      -----------------------------------------------------------      
     |                   =====================                   |     
     |                           x T B                           |     
     |                   =====================                   |     
     |                         S. Grimme                         |     
     |          Mulliken Center for Theoretical Chemistry        |     
     |                    University of Bonn                     |     
      -----------------------------------------------------------      

   * xtb version 6.7.1 (edcfbbe) compiled by 'albert@albert-system' on 2024-07-22

   xtb is free software: you can redistribute it and/or modify it under
   the terms of the GNU Lesser General Public License as published by
   the Free Software Foundation, either version 3 of the License, or
   (at your option) any later version.
   
   xtb is distributed in the hope that it will be useful,
   but WITHOUT ANY WARRANTY; without even the implied warranty of
   MERCHANTABILITY or FITNESS FOR A PARTICULAR PURPOSE.  See the
   GNU Lesser General Public License for more details.
   
   Cite this work as:
   * C. Bannwarth, E. Caldeweyher, S. Ehlert, A. Hansen, P. Pracht,
     J. Seibert, S. Spicher, S. Grimme, WIREs Comput. Mol. Sci., 2020, 11,
     e01493. DOI: 10.1002/wcms.1493
   
   for GFN2-xTB:
   * C. Bannwarth, S. Ehlert and S. Grimme., J. Chem. Theory Comput., 2019,
     15, 1652-1671. DOI: 10.1021/acs.jctc.8b01176
   for GFN1-xTB:
   * S. Grimme, C. Bannwarth, P. Shushkov, J. Chem. Theory Comput., 2017,
     13, 1989-2009. DOI: 10.1021/acs.jctc.7b00118
   for GFN0-xTB:
   * P. Pracht, E. Caldeweyher, S. Ehlert, S. Grimme, ChemRxiv, 2019, preprint.
     DOI: 10.26434/chemrxiv.8326202.v1
   for GFN-FF:
   * S. Spicher and S. Grimme, Angew. Chem. Int. Ed., 2020, 59, 15665-15673.
     DOI: 10.1002/anie.202004239
   
   for ALPB and GBSA implicit solvation:
   * S. Ehlert, M. Stahn, S. Spicher, S. Grimme, J. Chem. Theory Comput.,
     2021, 17, 4250-4261. DOI: 10.1021/acs.jctc.1c00471
   
   for ddCOSMO and CPCM-X implicit solvation:
   * M. Stahn, S. Ehlert, S. Grimme, J. Phys. Chem. A,
     2023, XX, XXXX-XXXX. DOI: 10.1021/acs.jpca.3c04382
   
   for DFT-D4:
   * E. Caldeweyher, C. Bannwarth and S. Grimme, J. Chem. Phys., 2017,
     147, 034112. DOI: 10.1063/1.4993215
   * E. Caldeweyher, S. Ehlert, A. Hansen, H. Neugebauer, S. Spicher,
     C. Bannwarth and S. Grimme, J. Chem. Phys., 2019, 150, 154122.
     DOI: 10.1063/1.5090222
   * E. Caldeweyher, J.-M. Mewes, S. Ehlert and S. Grimme, Phys. Chem. Chem. Phys.
     2020, 22, 8499-8512. DOI: 10.1039/D0CP00502A
   
   for sTDA-xTB:
   * S. Grimme and C. Bannwarth, J. Chem. Phys., 2016, 145, 054103.
     DOI: 10.1063/1.4959605
   
   in the mass-spec context:
   * V. Asgeirsson, C. Bauer and S. Grimme, Chem. Sci., 2017, 8, 4879.
     DOI: 10.1039/c7sc00601b
   * J. Koopman and S. Grimme, ACS Omega 2019, 4, 12, 15120-15133.
     DOI: 10.1021/acsomega.9b02011
   
   for metadynamics refer to:
   * S. Grimme, J. Chem. Theory Comput., 2019, 155, 2847-2862
     DOI: 10.1021/acs.jctc.9b00143
   
   for SPH calculations refer to:
   * S. Spicher and S. Grimme, J. Chem. Theory Comput., 2021, 17, 1701-1714
     DOI: 10.1021/acs.jctc.0c01306
   
   for ONIOM refer to:
   * C. Plett, A. Katbashev, S. Ehlert, S. Grimme, M. Bursch,
     Phys. Chem. Chem. Phys., 2023, 25, 17860-17868. DOI: 10.1039/D3CP02178E
   
   for DIPRO refer to:
   * J. Kohn, N. Gildemeister, S. Grimme, D. Fazzi, A. Hansen,
     J. Chem. Phys., 2023, just accepted.
   
   for PTB refer to:
   * S. Grimme, M. Mueller, A. Hansen, J. Chem. Phys., 2023, 158, 124111.
     DOI: 10.1063/5.0137838
   
   with help from (in alphabetical order)
   P. Atkinson, C. Bannwarth, F. Bohle, G. Brandenburg, E. Caldeweyher
   M. Checinski, S. Dohm, S. Ehlert, S. Ehrlich, I. Gerasimov, C. Hölzer
   A. Katbashev, J. Kohn, J. Koopman, C. Lavigne, S. Lehtola, F. März, M. Müller,
   F. Musil, H. Neugebauer, J. Pisarek, C. Plett, P. Pracht, F. Pultar,
   J. Seibert, P. Shushkov, S. Spicher, M. Stahn, M. Steiner, T. Strunk,
   J. Stückrath, T. Rose, and J. Unsleber
   
 * started run on 2025/04/11 at 12:31:06.907     
   ID    Z sym.   atoms
    1    6 C      1-3, 5-7
    2    7 N      4
    3    1 H      8-22

           -------------------------------------------------
          |                Calculation Setup                |
           -------------------------------------------------

          program call               : /srv/scratch/z5358697/.xtb/bin/xtb xtb_rrho.coord --gfn2 --bhess vtight --chrg 0 --enso --norestart -I rrho-xcontrol-inp --parallel 1 --alpb water
          hostname                   : k062
          coordinate file            : xtb_rrho.coord
          omp threads                :                     1


           -------------------------------------------------
          |                 G F N 2 - x T B                 |
           -------------------------------------------------

        Reference                      10.1021/acs.jctc.8b01176
      * Hamiltonian:
        H0-scaling (s, p, d)           1.850000    2.230000    2.230000
        zeta-weighting                 0.500000
      * Dispersion:
        s8                             2.700000
        a1                             0.520000
        a2                             5.000000
        s9                             5.000000
      * Repulsion:
        kExp                           1.500000    1.000000
        rExp                           1.000000
      * Coulomb:
        alpha                          2.000000
        third order                    shell-resolved
        anisotropic                    true
        a3                             3.000000
        a5                             4.000000
        cn-shift                       1.200000
        cn-exp                         4.000000
        max-rad                        5.000000

      * Solvation model:               ALPB
        Solvent                        water
        Parameter file                 internal GFN2-xTB/ALPB
        Dielectric constant                8.0200E+01
        Reference state                gsolv [1 M gas/solution]
        Free energy shift                  1.0808E-03 Eh       6.7819E-01 kcal/mol
        Temperature                        2.9815E+02 K
        Density                            1.0000E+00 kg/L
        Solvent mass                       1.8000E+01 g/mol
        Interaction kernel             P16
        Born radius scaling (c1)           1.4744E+00
        Born radii integrator          GBOBC
        Born offset                        0.0000E+00 a0       0.0000E+00 AA
        H-bond correction              true
        Ion screening                  false
        Surface tension                    1.0000E-05 Eh       1.5569E+01 dyn/cm
        Grid points                               974 per atom

          ...................................................
          :                      SETUP                      :
          :.................................................:
          :  # basis functions                  43          :
          :  # atomic orbitals                  43          :
          :  # shells                           29          :
          :  # electrons                        44          :
          :  max. iterations                   250          :
          :  Hamiltonian                  GFN2-xTB          :
          :  restarted?                      false          :
          :  GBSA solvation                   true          :
          :  PC potential                    false          :
          :  electronic temp.          300.0000000     K    :
          :  accuracy                    1.0000000          :
          :  -> integral cutoff          0.2500000E+02      :
          :  -> integral neglect         0.1000000E-07      :
          :  -> SCF convergence          0.1000000E-05 Eh   :
          :  -> wf. convergence          0.1000000E-03 e    :
          :  Broyden damping             0.4000000          :
          :  net charge                          0          :
          :  unpaired electrons                  0          :
          ...................................................

 iter      E             dE          RMSdq      gap      omega  full diag
   1    -23.7058123 -0.237058E+02  0.239E+00   10.04       0.0  T
   2    -23.7291840 -0.233717E-01  0.133E+00    9.91       1.0  T
   3    -23.7303257 -0.114174E-02  0.522E-01    9.92       1.0  T
   4    -23.7304551 -0.129350E-03  0.104E-01    9.86       1.0  T
   5    -23.7304825 -0.274207E-04  0.498E-02    9.86       1.0  T
   6    -23.7304858 -0.332196E-05  0.181E-02    9.85       1.2  T
   7    -23.7304863 -0.464864E-06  0.320E-03    9.86       6.7  T
   8    -23.7304863 -0.167385E-07  0.122E-03    9.86      17.5  T
   9    -23.7304863 -0.366832E-08  0.340E-04    9.86      62.8  T
  10    -23.7304863 -0.188809E-09  0.158E-04    9.86     135.3  T

   *** convergence criteria satisfied after 10 iterations ***

         #    Occupation            Energy/Eh            Energy/eV
      -------------------------------------------------------------
         1        2.0000           -0.6292374             -17.1224
       ...           ...                  ...                  ...
        16        2.0000           -0.4530438             -12.3280
        17        2.0000           -0.4432382             -12.0611
        18        2.0000           -0.4413097             -12.0086
        19        2.0000           -0.4326827             -11.7739
        20        2.0000           -0.4262061             -11.5977
        21        2.0000           -0.4155839             -11.3086
        22        2.0000           -0.3526017              -9.5948 (HOMO)
        23                          0.0095963               0.2611 (LUMO)
        24                          0.0675489               1.8381
        25                          0.0869139               2.3650
        26                          0.0973157               2.6481
        27                          0.1154601               3.1418
       ...                                ...                  ...
        43                          0.3216806               8.7534
      -------------------------------------------------------------
                  HL-Gap            0.3621980 Eh            9.8559 eV
             Fermi-level           -0.1715027 Eh           -4.6668 eV

 SCC (total)                   0 d,  0 h,  0 min,  0.033 sec
 SCC setup                      ...        0 min,  0.003 sec ( 10.426%)
 Dispersion                     ...        0 min,  0.000 sec (  0.792%)
 classical contributions        ...        0 min,  0.000 sec (  0.187%)
 integral evaluation            ...        0 min,  0.004 sec ( 12.766%)
 iterations                     ...        0 min,  0.018 sec ( 55.371%)
 molecular gradient             ...        0 min,  0.007 sec ( 19.916%)
 printout                       ...        0 min,  0.000 sec (  0.468%)

         :::::::::::::::::::::::::::::::::::::::::::::::::::::
         ::                     SUMMARY                     ::
         :::::::::::::::::::::::::::::::::::::::::::::::::::::
         :: total energy             -23.414238569987 Eh    ::
         :: total w/o Gsasa/hb       -23.412870678826 Eh    ::
         :: gradient norm              0.028882663868 Eh/a0 ::
         :: HOMO-LUMO gap              9.855910041777 eV    ::
         ::.................................................::
         :: SCC energy               -23.730399971814 Eh    ::
         :: -> isotropic ES            0.015205724081 Eh    ::
         :: -> anisotropic ES          0.009249885181 Eh    ::
         :: -> anisotropic XC          0.017731889580 Eh    ::
         :: -> dispersion             -0.014173208115 Eh    ::
         :: -> Gsolv                  -0.002373591091 Eh    ::
         ::    -> Gelec               -0.001005699930 Eh    ::
         ::    -> Gsasa               -0.001383242749 Eh    ::
         ::    -> Ghb                 -0.001065408110 Eh    ::
         ::    -> Gshift               0.001080759698 Eh    ::
         :: repulsion energy           0.316161401826 Eh    ::
         :: add. restraining           0.000000000000 Eh    ::
         :: total charge              -0.000000000000 e     ::
         :::::::::::::::::::::::::::::::::::::::::::::::::::::

metadynamics with 1 initial structures loaded
           -------------------------------------------------
          |           Optimal kpush determination           |
           -------------------------------------------------
      ----------------------------------------------------------- 
     |                   =====================                   |
     |                        A N C O P T                        |
     |                   =====================                   |
     |               Approximate Normal Coordinate               |
     |                Rational Function Optimizer                |
      ----------------------------------------------------------- 
target rmsd / Å         0.100000
unbiased initial rmsd   0.108579
 
iter. min.        max.        rmsd       kpush
      ----------------------------------------------------------- 
     |                   =====================                   |
     |                        A N C O P T                        |
     |                   =====================                   |
     |               Approximate Normal Coordinate               |
     |                Rational Function Optimizer                |
      ----------------------------------------------------------- 
 1    0.000000    1.000000    0.011799   -0.500000
      ----------------------------------------------------------- 
     |                   =====================                   |
     |                        A N C O P T                        |
     |                   =====================                   |
     |               Approximate Normal Coordinate               |
     |                Rational Function Optimizer                |
      ----------------------------------------------------------- 
 2    0.000000    0.500000    0.016815   -0.250000
      ----------------------------------------------------------- 
     |                   =====================                   |
     |                        A N C O P T                        |
     |                   =====================                   |
     |               Approximate Normal Coordinate               |
     |                Rational Function Optimizer                |
      ----------------------------------------------------------- 
 3    0.000000    0.250000    0.023687   -0.125000
      ----------------------------------------------------------- 
     |                   =====================                   |
     |                        A N C O P T                        |
     |                   =====================                   |
     |               Approximate Normal Coordinate               |
     |                Rational Function Optimizer                |
      ----------------------------------------------------------- 
 4    0.000000    0.125000    0.032232   -0.062500
      ----------------------------------------------------------- 
     |                   =====================                   |
     |                        A N C O P T                        |
     |                   =====================                   |
     |               Approximate Normal Coordinate               |
     |                Rational Function Optimizer                |
      ----------------------------------------------------------- 
 5    0.000000    0.062500    0.042382   -0.031250
      ----------------------------------------------------------- 
     |                   =====================                   |
     |                        A N C O P T                        |
     |                   =====================                   |
     |               Approximate Normal Coordinate               |
     |                Rational Function Optimizer                |
      ----------------------------------------------------------- 
 6    0.000000    0.031250    0.053504   -0.015625
      ----------------------------------------------------------- 
     |                   =====================                   |
     |                        A N C O P T                        |
     |                   =====================                   |
     |               Approximate Normal Coordinate               |
     |                Rational Function Optimizer                |
      ----------------------------------------------------------- 
 7    0.000000    0.015625    0.065900   -0.007812
      ----------------------------------------------------------- 
     |                   =====================                   |
     |                        A N C O P T                        |
     |                   =====================                   |
     |               Approximate Normal Coordinate               |
     |                Rational Function Optimizer                |
      ----------------------------------------------------------- 
 8    0.000000    0.007812    0.077298   -0.003906
      ----------------------------------------------------------- 
     |                   =====================                   |
     |                        A N C O P T                        |
     |                   =====================                   |
     |               Approximate Normal Coordinate               |
     |                Rational Function Optimizer                |
      ----------------------------------------------------------- 
 9    0.000000    0.003906    0.086211   -0.001953
      ----------------------------------------------------------- 
     |                   =====================                   |
     |                        A N C O P T                        |
     |                   =====================                   |
     |               Approximate Normal Coordinate               |
     |                Rational Function Optimizer                |
      ----------------------------------------------------------- 
10    0.000000    0.001953    0.092236   -0.000977
final kpush: -0.000977
           -------------------------------------------------
          |            Biased Numerical Hessian             |
           -------------------------------------------------
kpush                :  -0.00098
alpha                :   1.00000
step length          :   0.00500
SCC accuracy         :   0.30000
Hessian scale factor :   1.00000
frozen atoms in %    :   0.00000    0
RMS gradient         :   0.00004
estimated CPU  time      0.02 min
estimated wall time      0.02 min

writing file <hessian>.

 projected vibrational frequencies (cm⁻¹)
eigval :       -0.00    -0.00    -0.00    -0.00     0.00     0.00
eigval :       28.78   108.45   161.84   193.90   222.57   244.39
eigval :      265.95   306.17   359.66   396.27   403.48   451.74
eigval :      573.22   758.96   821.79   893.83   931.68   940.52
eigval :      963.56   969.97   977.12  1022.96  1114.86  1124.34
eigval :     1138.82  1174.65  1189.65  1217.91  1307.16  1315.21
eigval :     1322.15  1363.19  1389.83  1393.10  1404.41  1409.99
eigval :     1429.83  1480.19  1481.81  1488.83  1494.91  1497.65
eigval :     1500.68  1506.33  1513.96  2773.13  2896.18  3014.50
eigval :     3016.37  3028.96  3030.03  3031.26  3038.90  3041.43
eigval :     3045.49  3050.81  3053.55  3055.38  3061.29  3384.36
           -------------------------------------------------
          |                Property Printout                |
           -------------------------------------------------

    * Orbital Energies and Occupations

         #    Occupation            Energy/Eh            Energy/eV
      -------------------------------------------------------------
         1        2.0000           -0.6296740             -17.1343
       ...           ...                  ...                  ...
        10        2.0000           -0.5009697             -13.6321
        11        2.0000           -0.4839024             -13.1677
        12        2.0000           -0.4803255             -13.0703
        13        2.0000           -0.4693871             -12.7727
        14        2.0000           -0.4606932             -12.5361
        15        2.0000           -0.4597440             -12.5103
        16        2.0000           -0.4526536             -12.3173
        17        2.0000           -0.4426870             -12.0461
        18        2.0000           -0.4407149             -11.9925
        19        2.0000           -0.4323179             -11.7640
        20        2.0000           -0.4244492             -11.5499
        21        2.0000           -0.4164410             -11.3319
        22        2.0000           -0.3472268              -9.4485 (HOMO)
        23                          0.0240479               0.6544 (LUMO)
        24                          0.0794086               2.1608
        25                          0.0899227               2.4469
        26                          0.1092939               2.9740
        27                          0.1220285               3.3206
        28                          0.1251748               3.4062
        29                          0.1332114               3.6249
        30                          0.1620400               4.4093
        31                          0.1789896               4.8706
        32                          0.1853144               5.0427
        33                          0.2056905               5.5971
       ...                                ...                  ...
        43                          0.3339978               9.0885
      -------------------------------------------------------------
                  HL-Gap            0.3712747 Eh           10.1029 eV
             Fermi-level           -0.1615895 Eh           -4.3971 eV

     #   Z          covCN         q      C6AA      α(0)
     1   6 C        3.759    -0.121    22.862     6.817
     2   6 C        3.781     0.060    19.597     6.306
     3   6 C        3.756    -0.117    22.793     6.807
     4   7 N        2.683    -0.294    27.574     7.799
     5   6 C        3.781     0.051    19.735     6.329
     6   6 C        3.752    -0.115    22.752     6.802
     7   6 C        3.754    -0.121    22.874     6.820
     8   1 H        0.925     0.034     2.533     2.489
     9   1 H        0.925     0.043     2.414     2.430
    10   1 H        0.925     0.052     2.300     2.372
    11   1 H        0.922    -0.002     3.097     2.752
    12   1 H        0.925     0.051     2.302     2.372
    13   1 H        0.925     0.036     2.497     2.471
    14   1 H        0.925     0.039     2.459     2.452
    15   1 H        0.860     0.146     1.430     1.873
    16   1 H        0.924     0.025     2.665     2.553
    17   1 H        0.925     0.034     2.529     2.487
    18   1 H        0.925     0.029     2.599     2.521
    19   1 H        0.925     0.038     2.473     2.459
    20   1 H        0.925     0.051     2.309     2.376
    21   1 H        0.925     0.038     2.472     2.459
    22   1 H        0.925     0.042     2.421     2.433

 Mol. C6AA /au·bohr⁶  :       3189.756670
 Mol. C8AA /au·bohr⁸  :      65488.058037
 Mol. α(0) /au        :         84.179458


Wiberg/Mayer (AO) data.
largest (>0.10) Wiberg bond orders for each atom

 ---------------------------------------------------------------------------
     #   Z sym  total        # sym  WBO       # sym  WBO       # sym  WBO
 ---------------------------------------------------------------------------
     1   6 C    3.995 --     2 C    1.006    10 H    0.986     9 H    0.985
                             8 H    0.985
     2   6 C    3.986 --     1 C    1.006     3 C    1.004     4 N    1.000
                            11 H    0.958
     3   6 C    3.996 --     2 C    1.004    12 H    0.986    14 H    0.985
                            13 H    0.982
     4   7 N    3.063 --     5 C    1.001     2 C    1.000    15 H    0.953
     5   6 C    3.985 --     7 C    1.002     4 N    1.001     6 C    0.995
                            16 H    0.969
     6   6 C    3.997 --     5 C    0.995    18 H    0.987    19 H    0.986
                            17 H    0.985
     7   6 C    3.995 --     5 C    1.002    21 H    0.987    20 H    0.985
                            22 H    0.982
     8   1 H    0.999 --     1 C    0.985
     9   1 H    0.998 --     1 C    0.985
    10   1 H    0.997 --     1 C    0.986
    11   1 H    1.000 --     2 C    0.958
    12   1 H    0.997 --     3 C    0.986
    13   1 H    0.999 --     3 C    0.982
    14   1 H    0.998 --     3 C    0.985
    15   1 H    0.979 --     4 N    0.953
    16   1 H    0.999 --     5 C    0.969
    17   1 H    0.999 --     6 C    0.985
    18   1 H    0.999 --     6 C    0.987
    19   1 H    0.998 --     6 C    0.986
    20   1 H    0.997 --     7 C    0.985
    21   1 H    0.998 --     7 C    0.987
    22   1 H    0.998 --     7 C    0.982
 ---------------------------------------------------------------------------

Topologies differ in total number of bonds
Writing topology from bond orders to xtbtopo.mol

molecular dipole:
                 x           y           z       tot (Debye)
 q only:        0.042       0.005       0.002
   full:        0.017      -0.190       0.310       0.925
molecular quadrupole (traceless):
                xx          xy          yy          xz          yz          zz
 q only:        1.085       0.256      -1.110       0.057       0.839       0.026
  q+dip:        0.661      -0.222      -1.186      -0.266       1.266       0.525
   full:        1.027      -0.047      -1.527      -0.096       1.558       0.499

           -------------------------------------------------
          |                Geometry Summary                 |
           -------------------------------------------------

      molecular mass/u    :      101.1902299
   center of mass at/Å    :        0.0002015       0.0001900       0.0012851
  moments of inertia/u·Å² :        0.1289776E+03   0.3076087E+03   0.3435007E+03
rotational constants/cm⁻¹ :        0.1307021E+00   0.5480220E-01   0.4907597E-01

 * 21 selected distances

     #   Z          #   Z                                           value/Å
     1   6 C        2   6 C                                       1.5295508
     2   6 C        3   6 C                                       1.5287250
     2   6 C        4   7 N                                       1.4610822
     4   7 N        5   6 C                                       1.4629159
     5   6 C        6   6 C                                       1.5350587 (max)
     5   6 C        7   6 C                                       1.5314120
     1   6 C        8   1 H                                       1.0882598
     1   6 C        9   1 H                                       1.0866056
     1   6 C       10   1 H                                       1.0865652
     2   6 C       11   1 H                                       1.1061071
     3   6 C       12   1 H                                       1.0858786
     3   6 C       13   1 H                                       1.0853574
     3   6 C       14   1 H                                       1.0871406
     4   7 N       15   1 H                                       1.0136661 (min)
     5   6 C       16   1 H                                       1.0976212
     6   6 C       17   1 H                                       1.0875282
     6   6 C       18   1 H                                       1.0887311
     6   6 C       19   1 H                                       1.0865557
     7   6 C       20   1 H                                       1.0856271
     7   6 C       21   1 H                                       1.0871574
     7   6 C       22   1 H                                       1.0849839

 * 4 distinct bonds (by element types)

   Z      Z             #   av. dist./Å        max./Å        min./Å
   1 H    6 C          14     1.0888656     1.1061071     1.0849839
   6 C    6 C           4     1.5311866     1.5350587     1.5287250
   1 H    7 N           1     1.0136661     1.0136661     1.0136661
   6 C    7 N           2     1.4619991     1.4629159     1.4610822

           -------------------------------------------------
          |               Frequency Printout                |
           -------------------------------------------------
 projected vibrational frequencies (cm⁻¹)
eigval :       -0.00    -0.00    -0.00    -0.00     0.00     0.00
eigval :       28.78   108.45   161.84   193.90   222.57   244.39
eigval :      265.95   306.17   359.66   396.27   403.48   451.74
eigval :      573.22   758.96   821.79   893.83   931.68   940.52
eigval :      963.56   969.97   977.12  1022.96  1114.86  1124.34
eigval :     1138.82  1174.65  1189.65  1217.91  1307.16  1315.21
eigval :     1322.15  1363.19  1389.83  1393.10  1404.41  1409.99
eigval :     1429.83  1480.19  1481.81  1488.83  1494.91  1497.65
eigval :     1500.68  1506.33  1513.96  2773.13  2896.18  3014.50
eigval :     3016.37  3028.96  3030.03  3031.26  3038.90  3041.43
eigval :     3045.49  3050.81  3053.55  3055.38  3061.29  3384.36
 reduced masses (amu)
   1:  9.81   2:  9.05   3: 10.50   4: 10.35   5:  9.49   6:  9.83   7:  8.29   8:  7.49
   9:  1.58  10:  6.68  11:  3.36  12:  1.42  13:  3.76  14:  8.24  15:  8.10  16:  7.59
  17:  8.14  18:  7.39  19:  8.23  20:  6.18  21:  8.71  22:  8.13  23:  2.93  24:  3.07
  25:  5.82  26:  4.49  27:  4.43  28:  6.69  29:  7.31  30:  6.46  31:  7.02  32:  7.10
  33:  7.18  34: 10.13  35:  3.91  36:  3.48  37:  3.63  38:  3.18  39:  2.99  40:  3.15
  41:  3.33  42:  3.15  43:  3.38  44:  1.59  45:  1.58  46:  1.59  47:  1.58  48:  1.59
  49:  1.56  50:  1.60  51:  1.55  52:  1.69  53:  1.74  54:  1.83  55:  1.83  56:  1.87
  57:  1.85  58:  1.76  59:  1.83  60:  1.45  61:  1.51  62:  1.83  63:  1.44  64:  1.89
  65:  1.45  66:  1.83
 IR intensities (km·mol⁻¹)
   1:  0.01   2:  0.17   3:  0.06   4:  0.00   5:  0.14   6:  0.04   7:  0.03   8:  1.70
   9:  0.19  10:  0.95  11:  0.29  12:  0.04  13:  2.03  14:  1.05  15:  2.36  16:  0.70
  17:  4.76  18: 13.33  19:  4.96  20: 83.41  21:  2.69  22:  0.95  23:  1.06  24:  2.91
  25:  0.37  26:  0.03  27:  0.26  28:  1.28  29:  9.98  30:  2.79  31: 53.27  32:  9.53
  33: 16.56  34:113.10  35: 23.30  36:  5.98  37: 59.06  38: 28.97  39:  4.53  40:  6.10
  41: 15.74  42:  4.28  43:  9.99  44:  0.14  45:  1.73  46:  0.92  47:  1.42  48:  0.26
  49:  1.37  50:  1.36  51:  0.48  52:188.07  53:109.26  54: 73.08  55: 86.41  56: 70.10
  57: 97.27  58: 15.55  59: 79.06  60: 51.65  61: 24.13  62: 33.79  63: 12.99  64: 87.36
  65: 67.85  66: 15.59
 Raman intensities (Ä⁴*amu⁻¹)
   1:  0.00   2:  0.00   3:  0.00   4:  0.00   5:  0.00   6:  0.00   7:  0.00   8:  0.00
   9:  0.00  10:  0.00  11:  0.00  12:  0.00  13:  0.00  14:  0.00  15:  0.00  16:  0.00
  17:  0.00  18:  0.00  19:  0.00  20:  0.00  21:  0.00  22:  0.00  23:  0.00  24:  0.00
  25:  0.00  26:  0.00  27:  0.00  28:  0.00  29:  0.00  30:  0.00  31:  0.00  32:  0.00
  33:  0.00  34:  0.00  35:  0.00  36:  0.00  37:  0.00  38:  0.00  39:  0.00  40:  0.00
  41:  0.00  42:  0.00  43:  0.00  44:  0.00  45:  0.00  46:  0.00  47:  0.00  48:  0.00
  49:  0.00  50:  0.00  51:  0.00  52:  0.00  53:  0.00  54:  0.00  55:  0.00  56:  0.00
  57:  0.00  58:  0.00  59:  0.00  60:  0.00  61:  0.00  62:  0.00  63:  0.00  64:  0.00
  65:  0.00  66:  0.00
 output can be read by thermo (or use thermo option).
 writing <g98.out> molden fake output.
 recommended (thermochemical) frequency scaling factor: 1.0
           -------------------------------------------------
          |             Thermodynamic Functions             |
           -------------------------------------------------

Molecule has no symmetry elements
It seems to be the C1 point group
c1  symmetry found (for desy threshold:  0.10E+00) used in thermo

          ...................................................
          :                      SETUP                      :
          :.................................................:
          :  # frequencies                          60      :
          :  # imaginary freq.                       0      :
          :  linear?                             false      :
          :  only rotor calc.                    false      :
          :  symmetry                               c1      :
          :  rotational number                       1      :
          :  scaling factor                  1.0000000      :
          :  rotor cutoff                    0.0000000 cm⁻¹ :
          :  imag. cutoff                 -100.0000000 cm⁻¹ :
          :.................................................:

    mode    ω/cm⁻¹     T·S(HO)/kcal·mol⁻¹    T·S(FR)/kcal·mol⁻¹   T·S(vib)
   ------------------------------------------------------------------------
       1     28.78    -1.76256 (100.00%)    -1.21949 (  0.00%)    -1.76256
       2    108.45    -0.98282 (100.00%)    -0.82699 (  0.00%)    -0.98282
       3    161.84    -0.75376 (100.00%)    -0.70846 (  0.00%)    -0.75376
       4    193.90    -0.65302 (100.00%)    -0.65496 (  0.00%)    -0.65302
       5    222.57    -0.57784 (100.00%)    -0.61411 (  0.00%)    -0.57784
       6    244.39    -0.52793 (100.00%)    -0.58641 (  0.00%)    -0.52793
       7    265.95    -0.48371 (100.00%)    -0.56137 (  0.00%)    -0.48371
   ------------------------------------------------------------------------

   temp. (K)  partition function   enthalpy   heat capacity  entropy
                                   cal/mol     cal/K/mol   cal/K/mol   J/K/mol
 298.15  VIB   528.                 4269.432     28.997     26.778
         ROT  0.282E+06              888.752      2.981     27.920
         INT  0.149E+09             5158.184     31.978     54.699
         TR   0.985E+27             1481.254      4.968     39.735
         TOT                        6639.4382    36.9460    94.4338   395.1109

       T/K    H(0)-H(T)+PV         H(T)/Eh          T*S/Eh         G(T)/Eh
   ------------------------------------------------------------------------
    298.15    0.105806E-01    0.212832E+00    0.448685E-01    0.167963E+00
   ------------------------------------------------------------------------

         :::::::::::::::::::::::::::::::::::::::::::::::::::::
         ::                  THERMODYNAMIC                  ::
         :::::::::::::::::::::::::::::::::::::::::::::::::::::
         :: total free energy         -23.249315687177 Eh   ::
         ::.................................................::
         :: total energy              -23.417278739954 Eh   ::
         :: zero point energy           0.202250971733 Eh   ::
         :: G(RRHO) w/o ZPVE           -0.034287918957 Eh   ::
         :: G(RRHO) contrib.            0.167963052776 Eh   ::
         :::::::::::::::::::::::::::::::::::::::::::::::::::::

optimized geometry written to: xtbopt.coord


           -------------------------------------------------
          | TOTAL ENERGY              -23.417278739954 Eh   |
          | TOTAL ENTHALPY            -23.204447150034 Eh   |
          | TOTAL FREE ENERGY         -23.249315687177 Eh   |
          | GRADIENT NORM               0.000043869773 Eh/α |
          | HOMO-LUMO GAP              10.102898313777 eV   |
           -------------------------------------------------

------------------------------------------------------------------------
 * finished run on 2025/04/11 at 12:31:10.609     
------------------------------------------------------------------------
 total:
 * wall-time:     0 d,  0 h,  0 min,  3.701 sec
 *  cpu-time:     0 d,  0 h,  0 min,  3.428 sec
 * ratio c/w:     0.926 speedup
 SCF:
 * wall-time:     0 d,  0 h,  0 min,  0.033 sec
 *  cpu-time:     0 d,  0 h,  0 min,  0.022 sec
 * ratio c/w:     0.658 speedup
 analytical hessian:
 * wall-time:     0 d,  0 h,  0 min,  1.215 sec
 *  cpu-time:     0 d,  0 h,  0 min,  1.203 sec
 * ratio c/w:     0.990 speedup

