
                                 *****************
                                 * O   R   C   A *
                                 *****************

                                            #,                                       
                                            ###                                      
                                            ####                                     
                                            #####                                    
                                            ######                                   
                                           ########,                                 
                                     ,,################,,,,,                         
                               ,,#################################,,                 
                          ,,##########################################,,             
                       ,#########################################, ''#####,          
                    ,#############################################,,   '####,        
                  ,##################################################,,,,####,       
                ,###########''''           ''''###############################       
              ,#####''   ,,,,##########,,,,          '''####'''          '####       
            ,##' ,,,,###########################,,,                        '##       
           ' ,,###''''                  '''############,,,                           
         ,,##''                                '''############,,,,        ,,,,,,###''
      ,#''                                            '''#######################'''  
     '                                                          ''''####''''         
             ,#######,   #######,   ,#######,      ##                                
            ,#'     '#,  ##    ##  ,#'     '#,    #''#        ,####,   ,####,        
            ##       ##  ##   ,#'  ##            #'  '#       #'       #'  '#        
            ##       ##  #######   ##           ,######,      #####,   #    #        
            '#,     ,#'  ##    ##  '#,     ,#' ,#      #,     #,   #   #,  ,#        
             '#######'   ##     ##  '#######'  #'      '#     '####' # '####'        



                #########################################################
                #                        -***-                          #
                #          Department of theory and spectroscopy        #
                #                                                       #
                #                      Frank Neese                      #
                #                                                       #
                #     Directorship, Architecture, Infrastructure        #
                #                    SHARK, DRIVERS                     #
                #        Core code/Algorithms in most modules           #
                #                                                       #
                #        Max Planck Institute fuer Kohlenforschung      #
                #                Kaiser Wilhelm Platz 1                 #
                #                 D-45470 Muelheim/Ruhr                 #
                #                      Germany                          #
                #                                                       #
                #                  All rights reserved                  #
                #                        -***-                          #
                #########################################################


                         Program Version 6.0.0  -   RELEASE  -


 With contributions from (in alphabetic order):
   Daniel Aravena         : Magnetic Suceptibility
   Michael Atanasov       : Ab Initio Ligand Field Theory (pilot matlab implementation)
   Alexander A. Auer      : GIAO ZORA, VPT2 properties, NMR spectrum
   Ute Becker             : All parallelization in ORCA, NUMFREQ, NUMCALC
   Giovanni Bistoni       : ED, misc. LED, open-shell LED, HFLD
   Martin Brehm           : Molecular dynamics
   Dmytro Bykov           : pre 5.0 version of the SCF Hessian
   Marcos Casanova-Páez   : Triplet and SCS-CIS(D). UHF-(DLPNO)-IP/EA/STEOM-CCSD. UHF-CVS-IP/STEOM-CCSD
   Vijay G. Chilkuri      : MRCI spin determinant printing, contributions to CSF-ICE
   Pauline Colinet        : FMM embedding
   Dipayan Datta          : RHF DLPNO-CCSD density
   Achintya Kumar Dutta   : EOM-CC, STEOM-CC
   Nicolas Foglia         : Exact transition moments, OPA infrastructure, MCD improvements
   Dmitry Ganyushin       : Spin-Orbit,Spin-Spin,Magnetic field MRCI
   Miquel Garcia          : C-PCM and meta-GGA Hessian, CCSD/C-PCM, Gaussian charge scheme
   Tiago L. C. Gouveia    : GS-ROHF, GS-ROCIS
   Yang Guo               : DLPNO-NEVPT2, F12-NEVPT2, CIM, IAO-localization
   Andreas Hansen         : Spin unrestricted coupled pair/coupled cluster methods
   Ingolf Harden          : AUTO-CI MPn and infrastructure 
   Benjamin Helmich-Paris : MC-RPA, TRAH-(SCF,CASSCF), AVAS, COSX integrals, SCF dyn. polar.
   Lee Huntington         : MR-EOM, pCC
   Robert Izsak           : Overlap fitted RIJCOSX, COSX-SCS-MP3, EOM
   Riya Kayal             : Wick's Theorem for AUTO-CI, AUTO-CI UHF-CCSDT
   Emily Kempfer          : AUTO-CI, RHF CISDT and CCSDT
   Christian Kollmar      : KDIIS, OOCD, Brueckner-CCSD(T), CCSD density, CASPT2, CASPT2-K, improved NEVPT2
   Axel Koslowski         : Symmetry handling
   Simone Kossmann        : Meta GGA functionals, TD-DFT gradient, OOMP2, (MP2 Hessian; deprecated post 5.0)
   Lucas Lang             : DCDCAS
   Marvin Lechner         : AUTO-CI (C++ implementation), FIC-MRCC
   Spencer Leger          : CASSCF response
   Dagmar Lenk            : GEPOL surface, SMD, ORCA-2-JSON
   Dimitrios Liakos       : Extrapolation schemes; Compound Job, initial MDCI parallelization
   Dimitrios Manganas     : Further ROCIS development; embedding schemes. LFT, Crystal Embedding
   Dimitrios Pantazis     : SARC Basis sets
   Anastasios Papadopoulos: AUTO-CI, single reference methods and gradients
   Taras Petrenko         : pre 6.0 DFT Hessian and TD-DFT gradient, (ASA, deprecated), ECA, 1-Electron XAS/XES, NRVS
   Peter Pinski           : DLPNO-MP2, DLPNO-MP2 Gradient
   Christoph Reimann      : Effective Core Potentials
   Marius Retegan         : Local ZFS, SOC
   Christoph Riplinger    : Optimizer, TS searches, QM/MM, DLPNO-CCSD(T), (RO)-DLPNO pert. Triples
   Michael Roemelt        : Original ROCIS implementation
   Masaaki Saitow         : Open-shell DLPNO-CCSD energy and density
   Barbara Sandhoefer     : DKH picture change effects
   Kantharuban Sivalingam : CASSCF convergence/infrastructure, NEVPT2 and variants, FIC-MRCI
   Bernardo de Souza      : ESD, SOC TD-DFT
   Georgi Stoychev        : AutoAux, RI-MP2 NMR, DLPNO-MP2 response, X2C
   Van Anh Tran           : RI-MP2 g-tensors
   Willem Van den Heuvel  : Paramagnetic NMR
   Zikuan Wang            : NOTCH, Electric field optimization 
   Frank Wennmohs         : Technical directorship and infrastructure
   Hang Xu                : AUTO-CI-Response properties 


 We gratefully acknowledge several colleagues who have allowed us to
 interface, adapt or use parts of their codes:
   Stefan Grimme, W. Hujo, H. Kruse, P. Pracht,  : VdW corrections, initial TS optimization,
                  C. Bannwarth, S. Ehlert,         DFT functionals, gCP, sTDA/sTD-DF
                  L. Wittmann, M. Mueller
   Ed Valeev, F. Pavosevic, A. Kumar             : LibInt (2-el integral package), F12 methods
   Garnet Chan, S. Sharma, J. Yang, R. Olivares  : DMRG
   Ulf Ekstrom                                   : XCFun DFT Library
   Mihaly Kallay                                 : mrcc  (arbitrary order and MRCC methods)
   Frank Weinhold                                : gennbo (NPA and NBO analysis)
   Simon Mueller                                 : openCOSMO-RS
   Christopher J. Cramer and Donald G. Truhlar   : smd solvation model
   Lars Goerigk                                  : TD-DFT with DH, B97 family of functionals
   V. Asgeirsson, H. Jonsson                     : NEB implementation
   FAccTs GmbH                                   : IRC, NEB, NEB-TS, DLPNO-Multilevel, CI-OPT
                                                   MM, QMMM, 2- and 3-layer-ONIOM, Crystal-QMMM,
                                                   LR-CPCM, SF, NACMEs, symmetry and pop. for TD-DFT,
                                                   nearIR, NL-DFT gradient (VV10), updates on ESD,
                                                   ML-optimized integration grids, MBIS, APM,
                                                   GOAT, DOCKER, SOLVATOR, interface openCOSMO-RS
   S Lehtola, MJT Oliveira, MAL Marques          : LibXC Library
   Liviu Ungur et al                             : ANISO software


 Your calculation uses the libint2 library for the computation of 2-el integrals
 For citations please refer to: http://libint.valeyev.net

 Your ORCA version has been built with support for libXC version: 6.2.2
 For citations please refer to: https://libxc.gitlab.io

 This ORCA versions uses:
   CBLAS   interface :  Fast vector & matrix operations
   LAPACKE interface :  Fast linear algebra routines
   SCALAPACK package :  Parallel linear algebra routines
   Shared memory     :  Shared parallel matrices
   BLAS/LAPACK       :  OpenBLAS 0.3.27  USE64BITINT DYNAMIC_ARCH NO_AFFINITY SkylakeX SINGLE_THREADED
        Core in use  :  SkylakeX
   Copyright (c) 2011-2014, The OpenBLAS Project


Your calculation utilizes the geometrical counterpoise correction gCP
Please cite in your paper:
H.Kruse, S. Grimme J.Chem.Phys., 136, (2012), 154101 
   

Your calculation utilizes the atom-pairwise dispersion correction
based on EEQ partial charges (D4)


================================================================================

----- Orbital basis set information -----
Your calculation utilizes the basis: def2-mTZVPP
   Stefan Grimme, Andreas Hansen, Sebastian Ehlert, and Jan-Michael Mewes 
   J. Chem. Phys. 154, 064103 (2021). DOI: 10.1063/5.0040021

----- AuxJ basis set information -----
Your calculation utilizes the auxiliary basis: def2/J
   F. Weigend, Phys. Chem. Chem. Phys. 8, 1057 (2006).

================================================================================
                                        WARNINGS
                       Please study these warnings very carefully!
================================================================================

Using LibXC functional ID 497 : Re-regularized SCAN exchange by Furness et al
[ 1]  J. W. Furness, A. D. Kaplan, J. Ning, J. P. Perdew, and J. Sun.,  J. Phys. Chem. Lett. 11, 8208-8215 (2020)
[ 2]  J. W. Furness, A. D. Kaplan, J. Ning, J. P. Perdew, and J. Sun.,  J. Phys. Chem. Lett. 11, 9248-9248 (2020)
Using LibXC functional ID 498 : Re-regularized SCAN correlation by Furness et al
[ 1]  J. W. Furness, A. D. Kaplan, J. Ning, J. P. Perdew, and J. Sun.,  J. Phys. Chem. Lett. 11, 8208-8215 (2020)
[ 2]  J. W. Furness, A. D. Kaplan, J. Ning, J. P. Perdew, and J. Sun.,  J. Phys. Chem. Lett. 11, 9248-9248 (2020)
Using LibXC functional ID 497 : Re-regularized SCAN exchange by Furness et al
[ 1]  J. W. Furness, A. D. Kaplan, J. Ning, J. P. Perdew, and J. Sun.,  J. Phys. Chem. Lett. 11, 8208-8215 (2020)
[ 2]  J. W. Furness, A. D. Kaplan, J. Ning, J. P. Perdew, and J. Sun.,  J. Phys. Chem. Lett. 11, 9248-9248 (2020)
Using LibXC functional ID 498 : Re-regularized SCAN correlation by Furness et al
[ 1]  J. W. Furness, A. D. Kaplan, J. Ning, J. P. Perdew, and J. Sun.,  J. Phys. Chem. Lett. 11, 8208-8215 (2020)
[ 2]  J. W. Furness, A. D. Kaplan, J. Ning, J. P. Perdew, and J. Sun.,  J. Phys. Chem. Lett. 11, 9248-9248 (2020)

================================================================================
                                       INPUT FILE
================================================================================
NAME = sp_gas.inp
|  1> ! r2scan-3c def2/J RI DEFGRID2 scfconv6 printgap
|  2> %output
|  3>     printlevel normal
|  4> end
|  5> * xyz 0 1
|  6> C -2.7272148074 -0.79410952 0.3756586397
|  7> C -1.8847669925 -0.3147665447 -0.801440354
|  8> C -1.2667594544 1.0664237845 -0.5785395308
|  9> C -0.3190710668 1.1223037199 0.6272068462
| 10> C 0.7889840629 0.1111573723 0.4996206862
| 11> O 0.9805733377 -0.8143179902 1.2613384071
| 12> O 1.5533272525 0.3453156063 -0.5615486927
| 13> C 2.6379390252 -0.5516389318 -0.8061378276
| 14> H -2.1007493494 -1.0024933552 1.2396138363
| 15> H -3.4639541011 -0.0423849967 0.6485105763
| 16> H -3.250717731 -1.7101679872 0.1134930948
| 17> H -1.091760019 -1.0422987708 -0.993006664
| 18> H -2.5113992994 -0.2678969844 -1.6944726699
| 19> H -2.0627199398 1.7955517803 -0.4213770075
| 20> H -0.7103724279 1.3530370772 -1.4722635353
| 21> H -0.8543553231 0.9265343382 1.5548157101
| 22> H 0.1334763145 2.1133103186 0.6752980424
| 23> H 3.3656445811 -0.4853999584 0.0035806816
| 24> H 3.0738043943 -0.2352741246 -1.7484474055
| 25> H 2.2702667789 -1.5768549596 -0.8674642006
| 26> *
| 27> 
| 28>                          ****END OF INPUT****
================================================================================

                       ****************************
                       * Single Point Calculation *
                       ****************************

---------------------------------
CARTESIAN COORDINATES (ANGSTROEM)
---------------------------------
  C     -2.727215   -0.794110    0.375659
  C     -1.884767   -0.314767   -0.801440
  C     -1.266759    1.066424   -0.578540
  C     -0.319071    1.122304    0.627207
  C      0.788984    0.111157    0.499621
  O      0.980573   -0.814318    1.261338
  O      1.553327    0.345316   -0.561549
  C      2.637939   -0.551639   -0.806138
  H     -2.100749   -1.002493    1.239614
  H     -3.463954   -0.042385    0.648511
  H     -3.250718   -1.710168    0.113493
  H     -1.091760   -1.042299   -0.993007
  H     -2.511399   -0.267897   -1.694473
  H     -2.062720    1.795552   -0.421377
  H     -0.710372    1.353037   -1.472264
  H     -0.854355    0.926534    1.554816
  H      0.133476    2.113310    0.675298
  H      3.365645   -0.485400    0.003581
  H      3.073804   -0.235274   -1.748447
  H      2.270267   -1.576855   -0.867464

----------------------------
CARTESIAN COORDINATES (A.U.)
----------------------------
  NO LB      ZA    FRAG     MASS         X           Y           Z
   0 C     6.0000    0    12.011   -5.153689   -1.500650    0.709892
   1 C     6.0000    0    12.011   -3.561693   -0.594823   -1.514503
   2 C     6.0000    0    12.011   -2.393828    2.015249   -1.093281
   3 C     6.0000    0    12.011   -0.602957    2.120847    1.185249
   4 C     6.0000    0    12.011    1.490964    0.210057    0.944146
   5 O     8.0000    0    15.999    1.853015   -1.538838    2.383584
   6 O     8.0000    0    15.999    2.935363    0.652552   -1.061173
   7 C     6.0000    0    12.011    4.984982   -1.042447   -1.523380
   8 H     1.0000    0     1.008   -3.969841   -1.894438    2.342531
   9 H     1.0000    0     1.008   -6.545925   -0.080096    1.225507
  10 H     1.0000    0     1.008   -6.142966   -3.231749    0.214471
  11 H     1.0000    0     1.008   -2.063127   -1.969659   -1.876511
  12 H     1.0000    0     1.008   -4.745857   -0.506252   -3.202089
  13 H     1.0000    0     1.008   -3.897976    3.393101   -0.796287
  14 H     1.0000    0     1.008   -1.342409    2.556870   -2.782175
  15 H     1.0000    0     1.008   -1.614498    1.750896    2.938176
  16 H     1.0000    0     1.008    0.252234    3.993578    1.276128
  17 H     1.0000    0     1.008    6.360147   -0.917273    0.006767
  18 H     1.0000    0     1.008    5.808648   -0.444604   -3.304087
  19 H     1.0000    0     1.008    4.290182   -2.979824   -1.639270

--------------------------------
INTERNAL COORDINATES (ANGSTROEM)
--------------------------------
 C      0   0   0     0.000000000000     0.00000000     0.00000000
 C      1   0   0     1.524811480075     0.00000000     0.00000000
 C      2   1   0     1.529478610379   113.24246600     0.00000000
 C      3   2   1     1.534620530561   113.38531667    60.87134548
 C      4   3   2     1.505483754460   111.31372238    56.99705842
 O      5   4   3     1.213847182781   125.10450782   242.34678551
 O      5   4   3     1.328582342481   111.88523565    62.33695677
 C      7   5   4     1.428542609028   117.57378618   180.57303722
 H      1   2   3     1.087336826642   110.81190810   291.56863856
 H      1   2   3     1.087346644414   110.53176551    52.35848527
 H      1   2   3     1.087174870607   110.16766047   172.22040458
 H      2   1   3     1.093096908403   109.07912535   122.17689683
 H      2   1   3     1.091957655303   109.13356222   239.41850305
 H      3   2   1     1.090816569047   109.25498840   300.05034729
 H      3   2   1     1.091080335736   108.89850672   181.90321515
 H      4   3   2     1.088720850466   111.05463697   296.29586085
 H      4   3   2     1.090507209577   108.90566315   175.93351313
 H      8   7   5     1.090681915971   109.95772845   295.32657502
 H      8   7   5     1.085362912494   105.69600898   175.41432643
 H      8   7   5     1.090876577979   110.10953370    55.30558190

---------------------------
INTERNAL COORDINATES (A.U.)
---------------------------
 C      0   0   0     0.000000000000     0.00000000     0.00000000
 C      1   0   0     2.881476103201     0.00000000     0.00000000
 C      2   1   0     2.890295701307   113.24246600     0.00000000
 C      3   2   1     2.900012522254   113.38531667    60.87134548
 C      4   3   2     2.844951994997   111.31372238    56.99705842
 O      5   4   3     2.293838743888   125.10450782   242.34678551
 O      5   4   3     2.510656773653   111.88523565    62.33695677
 C      7   5   4     2.699554301700   117.57378618   180.57303722
 H      1   2   3     2.054768817680   110.81190810   291.56863856
 H      1   2   3     2.054787370581   110.53176551    52.35848527
 H      1   2   3     2.054462765128   110.16766047   172.22040458
 H      2   1   3     2.065653794718   109.07912535   122.17689683
 H      2   1   3     2.063500918362   109.13356222   239.41850305
 H      3   2   1     2.061344577843   109.25498840   300.05034729
 H      3   2   1     2.061843024648   108.89850672   181.90321515
 H      4   3   2     2.057384243671   111.05463697   296.29586085
 H      4   3   2     2.060759973168   108.90566315   175.93351313
 H      8   7   5     2.061090120405   109.95772845   295.32657502
 H      8   7   5     2.051038660529   105.69600898   175.41432643
 H      8   7   5     2.061457978289   110.10953370    55.30558190

---------------------
BASIS SET INFORMATION
---------------------
There are 3 groups of distinct atoms

 Group   1 Type C   : 11s6p1d contracted to 5s3p1d pattern {62111/411/1}
 Group   2 Type O   : 11s6p2d contracted to 5s3p2d pattern {62111/411/11}
 Group   3 Type H   : 4s1p contracted to 2s1p pattern {31/1}

Atom   0C    basis set group =>   1
Atom   1C    basis set group =>   1
Atom   2C    basis set group =>   1
Atom   3C    basis set group =>   1
Atom   4C    basis set group =>   1
Atom   5O    basis set group =>   2
Atom   6O    basis set group =>   2
Atom   7C    basis set group =>   1
Atom   8H    basis set group =>   3
Atom   9H    basis set group =>   3
Atom  10H    basis set group =>   3
Atom  11H    basis set group =>   3
Atom  12H    basis set group =>   3
Atom  13H    basis set group =>   3
Atom  14H    basis set group =>   3
Atom  15H    basis set group =>   3
Atom  16H    basis set group =>   3
Atom  17H    basis set group =>   3
Atom  18H    basis set group =>   3
Atom  19H    basis set group =>   3
---------------------------------
AUXILIARY/J BASIS SET INFORMATION
---------------------------------
There are 3 groups of distinct atoms

 Group   1 Type C   : 12s5p4d2f1g contracted to 6s4p3d1f1g pattern {711111/2111/211/2/1}
 Group   2 Type O   : 12s5p4d2f1g contracted to 6s4p3d1f1g pattern {711111/2111/211/2/1}
 Group   3 Type H   : 5s2p1d contracted to 3s1p1d pattern {311/2/1}

Atom   0C    basis set group =>   1
Atom   1C    basis set group =>   1
Atom   2C    basis set group =>   1
Atom   3C    basis set group =>   1
Atom   4C    basis set group =>   1
Atom   5O    basis set group =>   2
Atom   6O    basis set group =>   2
Atom   7C    basis set group =>   1
Atom   8H    basis set group =>   3
Atom   9H    basis set group =>   3
Atom  10H    basis set group =>   3
Atom  11H    basis set group =>   3
Atom  12H    basis set group =>   3
Atom  13H    basis set group =>   3
Atom  14H    basis set group =>   3
Atom  15H    basis set group =>   3
Atom  16H    basis set group =>   3
Atom  17H    basis set group =>   3
Atom  18H    basis set group =>   3
Atom  19H    basis set group =>   3

Checking for AutoStart:
The File: sp_gas.gbw exists
Trying to determine its content:
     ... Fine, the file contains calculation information
     ... Fine, the calculation information was read
     ... Fine, the file contains a basis set
     ... Fine, the basis set was read
     ... Fine, the file contains a geometry
     ... Fine, the geometry was read
     ... Fine, the file contains a set of orbitals
     ... Fine, the orbitals can be read
     => possible old guess file was deleted
     => GBW file was renamed to GES file
     => GES file is set as startup file
     => Guess is set to MORead
     ... now leaving AutoStart

------------------------------------------------------------------------------
                             ORCA STARTUP CALCULATIONS
                           -- RI-GTO INTEGRALS CHOSEN --
------------------------------------------------------------------------------
------------------------------------------------------------------------------
                   ___                                                        
                  /   \      - P O W E R E D   B Y -                         
                 /     \                                                     
                 |  |  |   _    _      __       _____    __    __             
                 |  |  |  | |  | |    /  \     |  _  \  |  |  /  |          
                  \  \/   | |  | |   /    \    | | | |  |  | /  /          
                 / \  \   | |__| |  /  /\  \   | |_| |  |  |/  /          
                |  |  |   |  __  | /  /__\  \  |    /   |      \           
                |  |  |   | |  | | |   __   |  |    \   |  |\   \          
                \     /   | |  | | |  |  |  |  | |\  \  |  | \   \       
                 \___/    |_|  |_| |__|  |__|  |_| \__\ |__|  \__/        
                                                                              
                      - O R C A' S   B I G   F R I E N D -                    
                                      &                                       
                       - I N T E G R A L  F E E D E R -                       
                                                                              
 v1 FN, 2020, v2 2021, v3 2022-2024                                           
------------------------------------------------------------------------------


----------------------
SHARK INTEGRAL PACKAGE
----------------------

Number of atoms                             ...     20
Number of basis functions                   ...    222
Number of shells                            ...    110
Maximum angular momentum                    ...      2
Integral batch strategy                     ... SHARK/LIBINT Hybrid
RI-J (if used) integral strategy            ... SPLIT-RIJ (Revised 2003 algorithm where possible)
Printlevel                                  ...      1
Contraction scheme used                     ... SEGMENTED contraction
Prescreening option                         ... SCHWARTZ
   Thresh                                   ... 1.000e-10
   Tcut                                     ... 1.000e-11
   Tpresel                                  ... 1.000e-11 
Coulomb Range Separation                    ... NOT USED
Exchange Range Separation                   ... NOT USED
Multipole approximations                    ... NOT USED
Finite Nucleus Model                        ... NOT USED
CABS basis                                  ... NOT available
Auxiliary Coulomb fitting basis             ... AVAILABLE
   # of basis functions in Aux-J            ...    524
   # of shells in Aux-J                     ...    180
   Maximum angular momentum in Aux-J        ...      4
Auxiliary J/K fitting basis                 ... NOT available
Auxiliary Correlation fitting basis         ... NOT available
Auxiliary 'external' fitting basis          ... NOT available

Checking pre-screening integrals            ... done (  0.0 sec) Dimension = 110
Check shell pair data                       ... done (  0.0 sec)
Shell pair information
Shell pair cut-off parameter TPreSel        ...   1.0e-11
Total number of shell pairs                 ...      6105
Shell pairs after pre-screening             ...      5434
Total number of primitive shell pairs       ...     21533
Primitive shell pairs kept                  ...     13543
          la=0 lb=0:   1823 shell pairs
          la=1 lb=0:   2048 shell pairs
          la=1 lb=1:    599 shell pairs
          la=2 lb=0:    578 shell pairs
          la=2 lb=1:    333 shell pairs
          la=2 lb=2:     53 shell pairs

Calculating one electron integrals          ... done (  0.0 sec)
Calculating RI/J V-Matrix + Cholesky decomp.... done (  0.1 sec)
Calculating Nuclear repulsion               ... done (  0.0 sec) ENN=    399.723640675489 Eh

Diagonalization of the overlap matrix:
Smallest eigenvalue                        ... 1.303e-04
Time for diagonalization                   ...    0.005 sec
Threshold for overlap eigenvalues          ... 1.000e-07
Number of eigenvalues below threshold      ... 0
Time for construction of square roots      ...    0.020 sec
Total time needed                          ...    0.035 sec

-------------------
DFT GRID GENERATION
-------------------

General Integration Accuracy     IntAcc      ... 4.388
Radial Grid Type                 RadialGrid  ... OptM3 with GC (2021)
Angular Grid (max. ang.)         AngularGrid ... 4 (Lebedev-302)
Angular grid pruning method      GridPruning ... 4 (adaptive)
Weight generation scheme         WeightScheme... mBecke (2022)
Basis function cutoff            BFCut       ... 1.0000e-10
Integration weight cutoff        WCut        ... 1.0000e-14
Partially contracted basis set               ... off
Rotationally invariant grid construction     ... off
Angular grids for H and He will be reduced by one unit
Diffuse basis detected: some atoms will have their outermost
                        angular grid increased by 1.

Total number of grid points                  ...    87262
Total number of batches                      ...     1373
Average number of points per batch           ...       63
Average number of grid points per atom       ...     4363
Initializing property integral containers    ... done (  0.0 sec)

SHARK setup successfully completed in   1.2 seconds

Maximum memory used throughout the entire STARTUP-calculation: 39.6 MB
-------------------------------------------------------------------------------
                                 ORCA GUESS
                   Start orbitals & Density for SCF / CASSCF
-------------------------------------------------------------------------------

------------
SCF SETTINGS
------------
Hamiltonian:
 Density Functional     Method          .... DFT(GTOs)
  Functional kind                       .... Exchange
  Functional name                       .... Re-regularized SCAN exchange by Furness et al
  Functional family                     .... MGGA
  Functional refs                              
    [ 0] J. W. Furness, A. D. Kaplan, J. Ning, J. P. Perdew, and J. Sun.,  J. Phys. Chem. Lett. 11, 8208-8215 (2020), doi: 10.1021/acs.jpclett.0c02405
    [ 1] J. W. Furness, A. D. Kaplan, J. Ning, J. P. Perdew, and J. Sun.,  J. Phys. Chem. Lett. 11, 9248-9248 (2020), doi: 10.1021/acs.jpclett.0c03077
  Functional external parameters        .... 6
    Parameter  0 _c1        =  6.670000e-01 : c1 parameter        
    Parameter  1 _c2        =  8.000000e-01 : c2 parameter        
    Parameter  2 _d         =  1.240000e+00 : d parameter         
    Parameter  3 _k1        =  6.500000e-02 : k1 parameter        
    Parameter  4 _eta       =  1.000000e-03 : eta parameter       
    Parameter  5 _dp2       =  3.610000e-01 : dp2 parameter       
  Functional kind                       .... Correlation
  Functional name                       .... Re-regularized SCAN correlation by Furness et al
  Functional family                     .... MGGA
  Functional refs                              
    [ 0] J. W. Furness, A. D. Kaplan, J. Ning, J. P. Perdew, and J. Sun.,  J. Phys. Chem. Lett. 11, 8208-8215 (2020), doi: 10.1021/acs.jpclett.0c02405
    [ 1] J. W. Furness, A. D. Kaplan, J. Ning, J. P. Perdew, and J. Sun.,  J. Phys. Chem. Lett. 11, 9248-9248 (2020), doi: 10.1021/acs.jpclett.0c03077
  Functional external parameters        .... 1
    Parameter  0 _eta       =  1.000000e-03 : Regularization parameter
 Gradients option       PostSCFGGA      .... off
 RI-approximation to the Coulomb term is turned on
   Number of AuxJ basis functions       .... 524


General Settings:
 Integral files         IntName         .... sp_gas
 Hartree-Fock type      HFTyp           .... RHF
 Total Charge           Charge          ....    0
 Multiplicity           Mult            ....    1
 Number of Electrons    NEL             ....   64
 Basis Dimension        Dim             ....  222
 Nuclear Repulsion      ENuc            ....    399.7236406755 Eh

Convergence Acceleration:
 AO-DIIS                CNVDIIS         .... on
   Start iteration      DIISMaxIt       ....    12
   Startup error        DIISStart       ....  0.200000
   # of expansion vecs  DIISMaxEq       ....     5
   Bias factor          DIISBfac        ....   1.050
   Max. coefficient     DIISMaxC        ....  10.000
 MO-DIIS                CNVKDIIS        .... off
 Trust-Rad. Augm. Hess. CNVTRAH         .... auto
   Auto Start mean grad. ratio tolernc. ....  1.125000
   Auto Start start iteration           ....     1
   Auto Start num. interpolation iter.  ....    10
   Max. Number of Micro iterations      ....    24
   Max. Number of Macro iterations      .... Maxiter - #DIIS iter
   Number of Davidson start vectors     ....     2
   Converg. threshold    (grad. norm)   ....   3.330e-04
   Grad. Scal. Fac. for Micro threshold ....   0.100
   Minimum threshold for Micro iter.    ....   1.000e-02
   NR start threshold (gradient norm)   ....   1.000e-04
   Initial trust radius                 ....   0.400
   Minimum AH scaling param. (alpha)    ....   1.000
   Maximum AH scaling param. (alpha)    .... 1000.000
   Quad. conv. algorithm                .... NR
   White noise on init. David. guess    .... on
   Maximum white noise                  ....   0.010
   Pseudo random numbers                .... off
   Inactive MOs                         .... canonical
   Orbital update algorithm             .... Taylor
   Preconditioner                       .... Diag
   Full preconditioner red. dimension   ....   250
   COSX micro iterations for RIJONX calc.... off
 SOSCF                  CNVSOSCF        .... on
   Start iteration      SOSCFMaxIt      ....   150
   Startup grad/error   SOSCFStart      ....  0.003300
   Hessian update       SOSCFHessUp     .... L-BFGS
 Level Shifting         CNVShift        .... on
   Level shift para.    LevelShift      ....    0.2500
   Turn off err/grad.   ShiftErr        ....    0.0010
 Zerner damping         CNVZerner       .... off
 Static damping         CNVDamp         .... on
   Fraction old density DampFac         ....    0.7000
   Max. Damping (<1)    DampMax         ....    0.9800
   Min. Damping (>=0)   DampMin         ....    0.0000
   Turn off err/grad.   DampErr         ....    0.1000

SCF Procedure:
 Maximum # iterations   MaxIter         ....   125
 SCF integral mode      SCFMode         .... Direct
   Integral package                     .... SHARK and LIBINT hybrid scheme
 Reset frequency        DirectResetFreq ....    20
 Integral Threshold     Thresh          ....  1.000e-10 Eh
 Primitive CutOff       TCut            ....  1.000e-11 Eh

Convergence Tolerance:
 Convergence Check Mode ConvCheckMode   .... Total+1el-Energy
 Convergence forced     ConvForced      .... 0
 Energy Change          TolE            ....  1.000e-06 Eh
 1-El. energy change                    ....  1.000e-03 Eh
 Orbital Gradient       TolG            ....  3.330e-04
 Orbital Rotation angle TolX            ....  3.330e-04
 DIIS Error             TolErr          ....  1.000e-06

---------------------
INITIAL GUESS: MOREAD
---------------------
Guess MOs are being read from file: sp_gas.ges
Input Geometry matches current geometry (good)
Atom 0: N(Shells)= 9 and 6 - projection required
Input basis set needs projection
NBasis(read)= 136
NBasis(calc)= 222
Basis set overlap was calculated
Using GuessMode=FMatrix for the initial guess
C*T matrix was formed
Effective Fockian was calculated
Effective Fockian was diagonalized
Initial density was built
                      ------------------
                      INITIAL GUESS DONE (   0.0 sec)
                      ------------------
             **** ENERGY FILE WAS UPDATED (sp_gas.en.tmp) ****
Finished Guess after   0.3 sec
Maximum memory used throughout the entire GUESS-calculation: 15.3 MB

-------------------------------------------------------------------------------------------
                                      ORCA LEAN-SCF
                              memory conserving SCF solver
-------------------------------------------------------------------------------------------

----------------------------------------D-I-I-S--------------------------------------------
Iteration    Energy (Eh)           Delta-E    RMSDP     MaxDP     DIISErr   Damp  Time(sec)
-------------------------------------------------------------------------------------------
               ***  Starting incremental Fock matrix formation  ***
    1    -386.0410355212973172     0.00e+00  4.58e-03  1.81e-01  6.27e-01  0.700   2.9
    2    -386.0994216639743399    -5.84e-02  3.58e-03  9.98e-02  4.40e-01  0.700   2.7
    3    -386.1406881341592907    -4.13e-02  2.60e-03  6.93e-02  3.09e-01  0.700   2.6
    4    -386.1696559944831506    -2.90e-02  1.85e-03  4.93e-02  2.16e-01  0.700   2.6
                               ***Turning on AO-DIIS***
    5    -386.1899723922803105    -2.03e-02  1.32e-03  3.51e-02  1.51e-01  0.700   2.6
    6    -386.2042123143420440    -1.42e-02  9.34e-04  2.48e-02  1.06e-01  0.700   2.6
    7    -386.2141936034245191    -9.98e-03  6.57e-04  1.75e-02  7.41e-02  0.700   2.5
    8    -386.2211862898923300    -6.99e-03  1.54e-03  4.09e-02  5.19e-02  0.000   2.5
                              *** Initializing SOSCF ***
---------------------------------------S-O-S-C-F--------------------------------------
Iteration    Energy (Eh)           Delta-E    RMSDP     MaxDP     MaxGrad    Time(sec)
--------------------------------------------------------------------------------------
    9    -386.2375224845183084    -1.63e-02  8.39e-06  4.04e-04  8.51e-05     2.6
               *** Restarting incremental Fock matrix formation ***
   10    -386.2375225549300239    -7.04e-08  4.79e-06  1.11e-04  4.47e-05     3.0
                  *** Gradient check signals convergence ***

               *****************************************************
               *                     SUCCESS                       *
               *           SCF CONVERGED AFTER  10 CYCLES          *
               *****************************************************

             **** ENERGY FILE WAS UPDATED (sp_gas.en.tmp) ****

----------------
TOTAL SCF ENERGY
----------------

Total Energy       :       -386.23752255493002 Eh          -10510.05731 eV

Components:
Nuclear Repulsion  :        399.72364067548858 Eh           10877.03324 eV
Electronic Energy  :       -785.96116323041861 Eh          -21387.09055 eV
One Electron Energy:      -1316.60898837912191 Eh          -35826.75197 eV
Two Electron Energy:        530.64782514870330 Eh           14439.66142 eV

Virial components:
Potential Energy   :       -770.87531329834428 Eh          -20976.58370 eV
Kinetic Energy     :        384.63779074341420 Eh           10466.52639 eV
Virial Ratio       :          2.00415906042000

DFT components:
N(Alpha)           :       31.999990854419 electrons
N(Beta)            :       31.999990854419 electrons
N(Total)           :       63.999981708839 electrons
E(X)               :      -52.078425181467 Eh       
E(C)               :       -2.038500133884 Eh       
E(XC)              :      -54.116925315351 Eh       

---------------
SCF CONVERGENCE
---------------

  Last Energy change         ...    7.0412e-08  Tolerance :   1.0000e-06
  Last MAX-Density change    ...    1.1122e-04  Tolerance :   1.0000e-05
  Last RMS-Density change    ...    4.7878e-06  Tolerance :   1.0000e-06
  Last DIIS Error            ...    8.5134e-05  Tolerance :   1.0000e-06
  Last Orbital Gradient      ...    4.4722e-05  Tolerance :   3.3300e-04
  Last Orbital Rotation      ...    1.7341e-04  Tolerance :   3.3300e-04


----------------
ORBITAL ENERGIES
----------------

  NO   OCC          E(Eh)            E(eV) 
   0   2.0000     -19.000094      -517.0188 
   1   2.0000     -18.929537      -515.0989 
   2   2.0000     -10.152369      -276.2600 
   3   2.0000     -10.087824      -274.5036 
   4   2.0000     -10.041617      -273.2463 
   5   2.0000     -10.035397      -273.0770 
   6   2.0000     -10.027974      -272.8751 
   7   2.0000     -10.014789      -272.5162 
   8   2.0000      -1.074291       -29.2329 
   9   2.0000      -0.976089       -26.5607 
  10   2.0000      -0.780494       -21.2383 
  11   2.0000      -0.724140       -19.7049 
  12   2.0000      -0.682842       -18.5811 
  13   2.0000      -0.624753       -17.0004 
  14   2.0000      -0.554966       -15.1014 
  15   2.0000      -0.528979       -14.3942 
  16   2.0000      -0.468482       -12.7480 
  17   2.0000      -0.458041       -12.4639 
  18   2.0000      -0.443290       -12.0625 
  19   2.0000      -0.426840       -11.6149 
  20   2.0000      -0.421484       -11.4692 
  21   2.0000      -0.388627       -10.5751 
  22   2.0000      -0.373658       -10.1677 
  23   2.0000      -0.364727        -9.9247 
  24   2.0000      -0.354995        -9.6599 
  25   2.0000      -0.340137        -9.2556 
  26   2.0000      -0.322613        -8.7787 
  27   2.0000      -0.304279        -8.2798 
  28   2.0000      -0.299162        -8.1406 
  29   2.0000      -0.297089        -8.0842 
  30   2.0000      -0.274835        -7.4786 
  31   2.0000      -0.233997        -6.3674 
  32   0.0000      -0.016858        -0.4587 
  33   0.0000       0.061194         1.6652 
  34   0.0000       0.091510         2.4901 
  35   0.0000       0.103937         2.8283 
  36   0.0000       0.117372         3.1939 
  37   0.0000       0.124259         3.3813 
  38   0.0000       0.135244         3.6802 
  39   0.0000       0.145255         3.9526 
  40   0.0000       0.151463         4.1215 
  41   0.0000       0.154988         4.2174 
  42   0.0000       0.161235         4.3874 
*Only the first 10 virtual orbitals were printed.

                    ********************************
                    * MULLIKEN POPULATION ANALYSIS *
                    ********************************

-----------------------
MULLIKEN ATOMIC CHARGES
-----------------------
   0 C :   -0.503254
   1 C :   -0.203799
   2 C :   -0.286610
   3 C :   -0.349585
   4 C :    0.354913
   5 O :   -0.412725
   6 O :   -0.175605
   7 C :   -0.291678
   8 H :    0.169942
   9 H :    0.145021
  10 H :    0.146233
  11 H :    0.143103
  12 H :    0.142765
  13 H :    0.151425
  14 H :    0.157914
  15 H :    0.178388
  16 H :    0.160316
  17 H :    0.159734
  18 H :    0.150216
  19 H :    0.163286
Sum of atomic charges:    0.0000000

--------------------------------
MULLIKEN REDUCED ORBITAL CHARGES
--------------------------------
  0 C s       :     3.340413  s :     3.340413
      pz      :     1.002877  p :     3.135867
      px      :     1.041581
      py      :     1.091409
      dz2     :     0.006032  d :     0.026974
      dxz     :     0.007628
      dyz     :     0.003677
      dx2y2   :     0.002135
      dxy     :     0.007502

  1 C s       :     3.166821  s :     3.166821
      pz      :     1.011542  p :     2.999796
      px      :     1.031595
      py      :     0.956659
      dz2     :     0.007723  d :     0.037182
      dxz     :     0.009151
      dyz     :     0.005113
      dx2y2   :     0.005178
      dxy     :     0.010016

  2 C s       :     3.250374  s :     3.250374
      pz      :     0.994196  p :     2.999390
      px      :     1.027540
      py      :     0.977655
      dz2     :     0.007535  d :     0.036846
      dxz     :     0.009189
      dyz     :     0.005054
      dx2y2   :     0.005039
      dxy     :     0.010029

  3 C s       :     3.266993  s :     3.266993
      pz      :     1.024701  p :     3.047836
      px      :     0.977168
      py      :     1.045966
      dz2     :     0.009269  d :     0.034756
      dxz     :     0.007628
      dyz     :     0.003065
      dx2y2   :     0.004254
      dxy     :     0.010541

  4 C s       :     3.164418  s :     3.164418
      pz      :     0.768393  p :     2.356033
      px      :     0.812996
      py      :     0.774644
      dz2     :     0.034794  d :     0.124636
      dxz     :     0.025427
      dyz     :     0.021472
      dx2y2   :     0.017045
      dxy     :     0.025898

  5 O s       :     3.839035  s :     3.839035
      pz      :     1.494793  p :     4.554171
      px      :     1.670572
      py      :     1.388806
      dz2     :     0.004169  d :     0.019519
      dxz     :     0.001423
      dyz     :     0.007920
      dx2y2   :     0.004499
      dxy     :     0.001509

  6 O s       :     3.700022  s :     3.700022
      pz      :     1.474722  p :     4.446867
      px      :     1.343492
      py      :     1.628653
      dz2     :     0.008983  d :     0.028716
      dxz     :     0.002585
      dyz     :     0.006125
      dx2y2   :     0.004023
      dxy     :     0.007000

  7 C s       :     3.312437  s :     3.312437
      pz      :     1.102326  p :     2.935622
      px      :     0.873791
      py      :     0.959505
      dz2     :     0.007168  d :     0.043618
      dxz     :     0.010403
      dyz     :     0.003855
      dx2y2   :     0.011002
      dxy     :     0.011190

  8 H s       :     0.811709  s :     0.811709
      pz      :     0.008257  p :     0.018349
      px      :     0.006098
      py      :     0.003994

  9 H s       :     0.836750  s :     0.836750
      pz      :     0.004195  p :     0.018229
      px      :     0.007026
      py      :     0.007008

 10 H s       :     0.835426  s :     0.835426
      pz      :     0.004034  p :     0.018340
      px      :     0.005430
      py      :     0.008877

 11 H s       :     0.839067  s :     0.839067
      pz      :     0.003709  p :     0.017830
      px      :     0.007325
      py      :     0.006796

 12 H s       :     0.839415  s :     0.839415
      pz      :     0.008480  p :     0.017820
      px      :     0.005866
      py      :     0.003475

 13 H s       :     0.830681  s :     0.830681
      pz      :     0.003603  p :     0.017894
      px      :     0.007439
      py      :     0.006852

 14 H s       :     0.824243  s :     0.824243
      pz      :     0.008459  p :     0.017844
      px      :     0.005449
      py      :     0.003935

 15 H s       :     0.803789  s :     0.803789
      pz      :     0.009217  p :     0.017823
      px      :     0.005158
      py      :     0.003448

 16 H s       :     0.821505  s :     0.821505
      pz      :     0.003589  p :     0.018179
      px      :     0.004704
      py      :     0.009887

 17 H s       :     0.822555  s :     0.822555
      pz      :     0.008058  p :     0.017711
      px      :     0.006627
      py      :     0.003026

 18 H s       :     0.832098  s :     0.832098
      pz      :     0.009742  p :     0.017685
      px      :     0.004316
      py      :     0.003627

 19 H s       :     0.818898  s :     0.818898
      pz      :     0.003553  p :     0.017817
      px      :     0.003453
      py      :     0.010810


------------------------
MULLIKEN OVERLAP CHARGES
------------------------
B(  0-C ,  1-C ) :   0.4198 B(  0-C ,  2-C ) :  -0.2188 B(  0-C ,  3-C ) :   0.0907 
B(  0-C ,  8-H ) :   0.8516 B(  0-C ,  9-H ) :   0.8572 B(  0-C , 10-H ) :   0.7851 
B(  0-C , 11-H ) :  -0.0642 B(  1-C ,  2-C ) :   0.4281 B(  1-C ,  3-C ) :  -0.1918 
B(  1-C ,  4-C ) :   0.0631 B(  1-C ,  8-H ) :  -0.0808 B(  1-C ,  9-H ) :  -0.1231 
B(  1-C , 10-H ) :  -0.0635 B(  1-C , 11-H ) :   0.8297 B(  1-C , 12-H ) :   0.8024 
B(  1-C , 13-H ) :  -0.0792 B(  1-C , 14-H ) :  -0.0883 B(  2-C ,  3-C ) :   0.1903 
B(  2-C ,  4-C ) :  -0.0808 B(  2-C ,  6-O ) :   0.0724 B(  2-C , 11-H ) :  -0.0671 
B(  2-C , 12-H ) :  -0.0959 B(  2-C , 13-H ) :   0.8662 B(  2-C , 14-H ) :   0.8241 
B(  2-C , 15-H ) :  -0.0705 B(  2-C , 16-H ) :  -0.0563 B(  3-C ,  4-C ) :   0.2130 
B(  3-C ,  5-O ) :  -0.1197 B(  3-C ,  6-O ) :  -0.0814 B(  3-C ,  8-H ) :   0.0538 
B(  3-C , 11-H ) :  -0.0718 B(  3-C , 13-H ) :  -0.1353 B(  3-C , 15-H ) :   0.9235 
B(  3-C , 16-H ) :   0.7545 B(  4-C ,  5-O ) :   0.9639 B(  4-C ,  6-O ) :   0.3034 
B(  4-C ,  7-C ) :  -0.1681 B(  4-C , 11-H ) :   0.0728 B(  4-C , 15-H ) :  -0.1455 
B(  5-O ,  6-O ) :  -0.2326 B(  5-O ,  7-C ) :   0.0593 B(  6-O ,  7-C ) :   0.3454 
B(  6-O , 17-H ) :  -0.0606 B(  6-O , 18-H ) :  -0.0895 B(  6-O , 19-H ) :  -0.0611 
B(  7-C , 17-H ) :   0.8201 B(  7-C , 18-H ) :   0.7939 B(  7-C , 19-H ) :   0.8219 
B( 17-H , 19-H ) :  -0.0557 


                     *******************************
                     * LOEWDIN POPULATION ANALYSIS *
                     *******************************

----------------------
LOEWDIN ATOMIC CHARGES
----------------------
   0 C :   -0.423902
   1 C :   -0.310698
   2 C :   -0.288810
   3 C :   -0.230572
   4 C :    0.346746
   5 O :   -0.422502
   6 O :   -0.605845
   7 C :   -0.044592
   8 H :    0.157149
   9 H :    0.149310
  10 H :    0.152616
  11 H :    0.157045
  12 H :    0.153514
  13 H :    0.156623
  14 H :    0.165690
  15 H :    0.178108
  16 H :    0.180420
  17 H :    0.175875
  18 H :    0.175993
  19 H :    0.177831

-------------------------------
LOEWDIN REDUCED ORBITAL CHARGES
-------------------------------
  0 C s       :     2.970881  s :     2.970881
      pz      :     1.115936  p :     3.390013
      px      :     1.127184
      py      :     1.146893
      dz2     :     0.013363  d :     0.063008
      dxz     :     0.018370
      dyz     :     0.008227
      dx2y2   :     0.004579
      dxy     :     0.018470

  1 C s       :     2.934865  s :     2.934865
      pz      :     1.105052  p :     3.295742
      px      :     1.108070
      py      :     1.082619
      dz2     :     0.016678  d :     0.080091
      dxz     :     0.020756
      dyz     :     0.009717
      dx2y2   :     0.010472
      dxy     :     0.022468

  2 C s       :     2.933024  s :     2.933024
      pz      :     1.088276  p :     3.275920
      px      :     1.092003
      py      :     1.095641
      dz2     :     0.016640  d :     0.079866
      dxz     :     0.021105
      dyz     :     0.009746
      dx2y2   :     0.010081
      dxy     :     0.022294

  3 C s       :     2.920366  s :     2.920366
      pz      :     1.107006  p :     3.236445
      px      :     1.047226
      py      :     1.082213
      dz2     :     0.019408  d :     0.073762
      dxz     :     0.018422
      dyz     :     0.005203
      dx2y2   :     0.009298
      dxy     :     0.021431

  4 C s       :     2.739036  s :     2.739036
      pz      :     0.859844  p :     2.643043
      px      :     0.865319
      py      :     0.917880
      dz2     :     0.073192  d :     0.271175
      dxz     :     0.056136
      dyz     :     0.053857
      dx2y2   :     0.033801
      dxy     :     0.054190

  5 O s       :     3.549996  s :     3.549996
      pz      :     1.533889  p :     4.659803
      px      :     1.635182
      py      :     1.490732
      dz2     :     0.043771  d :     0.212703
      dxz     :     0.032130
      dyz     :     0.059869
      dx2y2   :     0.033711
      dxy     :     0.043223

  6 O s       :     3.464291  s :     3.464291
      pz      :     1.566583  p :     4.667752
      px      :     1.461850
      py      :     1.639319
      dz2     :     0.079178  d :     0.473803
      dxz     :     0.128561
      dyz     :     0.071823
      dx2y2   :     0.105116
      dxy     :     0.089126

  7 C s       :     2.906971  s :     2.906971
      pz      :     1.101587  p :     3.032939
      px      :     0.933561
      py      :     0.997792
      dz2     :     0.017875  d :     0.104682
      dxz     :     0.026343
      dyz     :     0.007588
      dx2y2   :     0.026292
      dxy     :     0.026584

  8 H s       :     0.798439  s :     0.798439
      pz      :     0.020630  p :     0.044412
      px      :     0.014832
      py      :     0.008949

  9 H s       :     0.807355  s :     0.807355
      pz      :     0.009494  p :     0.043335
      px      :     0.016875
      py      :     0.016966

 10 H s       :     0.803888  s :     0.803888
      pz      :     0.009338  p :     0.043496
      px      :     0.012466
      py      :     0.021691

 11 H s       :     0.799542  s :     0.799542
      pz      :     0.008648  p :     0.043413
      px      :     0.018034
      py      :     0.016732

 12 H s       :     0.803417  s :     0.803417
      pz      :     0.020658  p :     0.043068
      px      :     0.014258
      py      :     0.008152

 13 H s       :     0.799903  s :     0.799903
      pz      :     0.008409  p :     0.043474
      px      :     0.018236
      py      :     0.016830

 14 H s       :     0.790593  s :     0.790593
      pz      :     0.021074  p :     0.043718
      px      :     0.013142
      py      :     0.009502

 15 H s       :     0.778102  s :     0.778102
      pz      :     0.023262  p :     0.043789
      px      :     0.012400
      py      :     0.008128

 16 H s       :     0.775150  s :     0.775150
      pz      :     0.008507  p :     0.044430
      px      :     0.011560
      py      :     0.024363

 17 H s       :     0.783035  s :     0.783035
      pz      :     0.019518  p :     0.041089
      px      :     0.014737
      py      :     0.006834

 18 H s       :     0.783952  s :     0.783952
      pz      :     0.022769  p :     0.040055
      px      :     0.008595
      py      :     0.008691

 19 H s       :     0.780705  s :     0.780705
      pz      :     0.007514  p :     0.041464
      px      :     0.008856
      py      :     0.025094


---------------------------------
LOEWDIN BOND ORDERS (THRESH 0.050000)
---------------------------------
B(  0-C ,  1-C ) :   1.1402 B(  0-C ,  2-C ) :   0.0640 B(  0-C ,  8-H ) :   0.9242 
B(  0-C ,  9-H ) :   0.9291 B(  0-C , 10-H ) :   0.9294 B(  1-C ,  2-C ) :   1.1099 
B(  1-C ,  3-C ) :   0.0582 B(  1-C , 11-H ) :   0.8863 B(  1-C , 12-H ) :   0.8944 
B(  2-C ,  3-C ) :   1.0771 B(  2-C ,  4-C ) :   0.0689 B(  2-C , 13-H ) :   0.8875 
B(  2-C , 14-H ) :   0.8837 B(  3-C ,  4-C ) :   0.9260 B(  3-C ,  5-O ) :   0.1799 
B(  3-C ,  6-O ) :   0.1746 B(  3-C , 15-H ) :   0.8687 B(  3-C , 16-H ) :   0.8628 
B(  4-C ,  5-O ) :   2.1765 B(  4-C ,  6-O ) :   1.4483 B(  4-C ,  7-C ) :   0.0895 
B(  5-O ,  6-O ) :   0.4623 B(  5-O ,  7-C ) :   0.0701 B(  6-O ,  7-C ) :   1.3563 
B(  6-O , 17-H ) :   0.0992 B(  6-O , 18-H ) :   0.1001 B(  6-O , 19-H ) :   0.0990 
B(  7-C , 17-H ) :   0.8593 B(  7-C , 18-H ) :   0.8659 B(  7-C , 19-H ) :   0.8563 


------------------------------------------
LOEWDIN REDUCED ORBITAL POPULATIONS PER MO
-------------------------------------------
THRESHOLD FOR PRINTING IS 0.1%%
                      0         1         2         3         4         5   
                 -19.00009 -18.92954 -10.15237 -10.08782 -10.04162 -10.03540
                   2.00000   2.00000   2.00000   2.00000   2.00000   2.00000
                  --------  --------  --------  --------  --------  --------
 2 C  s               0.0       0.0       0.0       0.0       0.0      99.7
 3 C  s               0.0       0.0       0.0       0.0      99.7       0.0
 4 C  s               0.0       0.0      98.9       0.0       0.0       0.0
 5 O  s               0.0      99.9       0.0       0.0       0.0       0.0
 5 O  py              0.0       0.0       0.1       0.0       0.0       0.0
 5 O  dyz             0.0       0.0       0.2       0.0       0.0       0.0
 6 O  s              99.9       0.0       0.0       0.0       0.0       0.0
 6 O  dxz             0.0       0.0       0.2       0.0       0.0       0.0
 6 O  dxy             0.0       0.0       0.0       0.2       0.0       0.0
 7 C  s               0.0       0.0       0.0      99.4       0.0       0.0

                      6         7         8         9        10        11   
                 -10.02797 -10.01479  -1.07429  -0.97609  -0.78049  -0.72414
                   2.00000   2.00000   2.00000   2.00000   2.00000   2.00000
                  --------  --------  --------  --------  --------  --------
 0 C  s               0.0      99.7       0.0       0.0       5.5      12.3
 0 C  pz              0.1       0.0       0.0       0.0       0.8       0.8
 0 C  px              0.0       0.0       0.0       0.0       0.7       0.3
 0 C  py              0.0       0.0       0.0       0.0       0.4       0.1
 1 C  s              99.7       0.0       0.0       0.0      14.2      13.1
 1 C  pz              0.0       0.1       0.0       0.0       0.7       0.5
 1 C  px              0.0       0.0       0.0       0.0       0.2       0.7
 1 C  py              0.0       0.0       0.0       0.0       1.3       0.2
 2 C  s               0.0       0.0       0.1       0.0      20.9       0.6
 2 C  pz              0.0       0.0       0.0       0.0       0.8       0.9
 2 C  px              0.0       0.0       0.3       0.0       0.1       2.7
 2 C  py              0.1       0.0       0.0       0.0       1.0       1.8
 3 C  s               0.0       0.0       1.0       0.2      17.0       6.1
 3 C  pz              0.0       0.0       0.1       0.1       1.7       0.0
 3 C  px              0.0       0.0       1.2       0.1       0.6       1.7
 3 C  py              0.0       0.0       0.8       0.4       0.1       0.1
 4 C  s               0.0       0.0      16.0       4.3       1.8       3.5
 4 C  pz              0.0       0.0       1.4      14.0       0.2       1.1
 4 C  px              0.0       0.0       3.2       0.4       3.7       0.9
 4 C  py              0.0       0.0       0.6       8.7       3.4       4.4
 4 C  dz2             0.0       0.0       0.2       0.0       0.0       0.0
 4 C  dxz             0.0       0.0       0.4       0.4       0.0       0.1
 4 C  dyz             0.0       0.0       0.4       0.8       0.0       0.0
 4 C  dx2y2           0.0       0.0       0.0       0.6       0.0       0.0
 4 C  dxy             0.0       0.0       0.0       0.1       0.0       0.0
 5 O  s               0.0       0.0      11.4      43.1       0.9       1.1
 5 O  pz              0.0       0.0       1.5       1.3       0.0       0.1
 5 O  px              0.0       0.0       0.0       0.2       0.1       0.1
 5 O  py              0.0       0.0       1.6       2.3       0.2       0.4
 5 O  dz2             0.0       0.0       0.2       0.1       0.0       0.0
 5 O  dxz             0.0       0.0       0.1       0.1       0.1       0.1
 5 O  dyz             0.0       0.0       1.0       0.1       0.1       0.3
 5 O  dx2y2           0.0       0.0       0.1       0.0       0.1       0.2
 5 O  dxy             0.0       0.0       0.0       0.1       0.1       0.1
 6 O  s               0.0       0.0      42.8      15.6       0.2       0.0
 6 O  pz              0.0       0.0       1.7       0.6       0.5       3.2
 6 O  px              0.0       0.0       0.1       0.4       2.0       8.5
 6 O  py              0.0       0.0       1.1       0.2       0.5       2.0
 6 O  dz2             0.0       0.0       0.1       0.5       0.0       0.2
 6 O  dxz             0.0       0.0       0.5       0.2       0.2       0.2
 6 O  dyz             0.0       0.0       0.1       0.6       0.0       0.0
 6 O  dx2y2           0.0       0.0       0.0       0.0       0.2       0.0
 6 O  dxy             0.0       0.0       0.0       0.3       0.0       0.3
 7 C  s               0.0       0.0       4.7       1.8       1.4      10.3
 7 C  pz              0.0       0.0       0.5       0.1       0.0       0.1
 7 C  px              0.0       0.0       3.5       0.8       0.1       0.1
 7 C  py              0.0       0.0       1.6       0.9       0.1       0.1
 7 C  dxy             0.0       0.0       0.3       0.2       0.0       0.0
 8 H  s               0.0       0.0       0.0       0.0       0.7       1.9
 8 H  pz              0.0       0.0       0.0       0.0       0.0       0.1
 9 H  s               0.0       0.0       0.0       0.0       0.7       2.0
10 H  s               0.0       0.0       0.0       0.0       0.6       2.0
10 H  py              0.0       0.0       0.0       0.0       0.0       0.1
11 H  s               0.0       0.0       0.0       0.0       1.8       2.0
11 H  px              0.0       0.0       0.0       0.0       0.1       0.1
12 H  s               0.0       0.0       0.0       0.0       1.8       2.3
12 H  pz              0.0       0.0       0.0       0.0       0.1       0.1
13 H  s               0.0       0.0       0.0       0.0       2.7       0.1
13 H  px              0.0       0.0       0.0       0.0       0.1       0.0
13 H  py              0.0       0.0       0.0       0.0       0.1       0.0
14 H  s               0.0       0.0       0.0       0.0       2.7       0.0
14 H  pz              0.0       0.0       0.0       0.0       0.2       0.0
15 H  s               0.0       0.0       0.1       0.0       2.2       0.8
15 H  pz              0.0       0.0       0.0       0.0       0.2       0.1
16 H  s               0.0       0.0       0.1       0.0       2.4       1.4
16 H  py              0.0       0.0       0.0       0.0       0.2       0.1
17 H  s               0.0       0.0       0.3       0.1       0.2       1.9
18 H  s               0.0       0.0       0.3       0.2       0.3       2.4
18 H  pz              0.0       0.0       0.0       0.0       0.0       0.2
19 H  s               0.0       0.0       0.3       0.1       0.2       1.9
19 H  py              0.0       0.0       0.0       0.0       0.0       0.2

                     12        13        14        15        16        17   
                  -0.68284  -0.62475  -0.55497  -0.52898  -0.46848  -0.45804
                   2.00000   2.00000   2.00000   2.00000   2.00000   2.00000
                  --------  --------  --------  --------  --------  --------
 0 C  s               9.7      14.0       4.4       1.3       0.1       0.2
 0 C  pz              0.2       1.1       4.0       1.4       1.6       0.1
 0 C  px              0.0       0.4       1.5       1.0       0.1       1.6
 0 C  py              0.0       0.4       0.0       0.0       0.3       0.2
 1 C  s               2.7       2.4       9.4       3.0       0.7       0.0
 1 C  pz              0.4       3.4       3.6       0.8       0.8       1.6
 1 C  px              1.5       2.4       0.5       0.0       3.4       0.9
 1 C  py              2.1       4.4       1.9       1.4       0.0       0.1
 2 C  s               4.5      11.0       4.6       2.7       0.1       0.2
 2 C  pz              0.8       3.7       0.6       0.6       0.8       6.0
 2 C  px              1.0       1.0       0.0       0.0       3.1       0.2
 2 C  py              1.2       0.1       7.0       1.8       1.5       0.9
 3 C  s               8.2       6.8       0.1       2.2       1.1       0.6
 3 C  pz              0.0       3.6       0.5       4.1       4.0       1.5
 3 C  px              0.8       1.9       4.6       0.0       0.3       8.7
 3 C  py              0.3       0.1       2.2       0.0      11.2       0.4
 3 C  dxy             0.0       0.0       0.0       0.0       0.1       0.0
 4 C  s               0.6       1.0       2.9       1.5       0.4       0.1
 4 C  pz              2.0       0.6       0.2       3.4       1.5       1.8
 4 C  px              2.0       2.1       0.6       2.3      11.7       0.6
 4 C  py              0.1       2.2       1.2       0.2       0.7       6.8
 4 C  dz2             0.1       0.1       0.0       0.0       0.0       0.0
 4 C  dyz             0.0       0.0       0.0       0.0       0.0       0.2
 5 O  s               0.1       0.5       1.6       0.6       0.0       1.5
 5 O  pz              0.1       0.0       0.5       1.7       0.1       5.9
 5 O  px              0.0       0.2       0.1       0.8       5.6       0.0
 5 O  py              0.0       0.4       0.9       0.0       0.1       0.1
 5 O  dz2             0.1       0.1       0.0       0.2       0.0       0.5
 5 O  dxz             0.0       0.0       0.0       0.1       0.6       0.0
 5 O  dyz             0.1       0.0       0.1       0.1       0.0       0.0
 5 O  dx2y2           0.0       0.0       0.1       0.0       0.0       0.2
 5 O  dxy             0.1       0.2       0.1       0.1       0.4       0.0
 6 O  s               1.1       0.6       2.0       3.7       0.4       0.8
 6 O  pz              3.4       0.0       2.7      12.2      14.2       0.1
 6 O  px              7.6       0.2       2.3       8.9       4.7       0.5
 6 O  py              1.4       0.0       0.2       0.8       0.0      23.2
 6 O  dz2             0.5       0.0       0.0       0.1       0.1       0.1
 6 O  dxz             0.2       0.4       0.4       0.0       0.8       0.2
 6 O  dyz             0.2       0.2       0.1       0.1       0.1       0.2
 6 O  dx2y2           0.1       0.1       0.1       0.0       0.2       0.9
 6 O  dxy             1.4       0.3       0.2       0.3       0.1       0.2
 7 C  s              17.5       2.7       3.1       3.2       0.0       0.2
 7 C  pz              0.2       0.0       0.0       0.6      10.9       1.3
 7 C  px              0.4       0.5       2.6       4.7       0.7       9.7
 7 C  py              0.1       0.2       3.0       9.8       0.1       5.2
 7 C  dz2             0.0       0.0       0.1       0.1       0.0       0.1
 7 C  dxy             0.0       0.0       0.2       0.4       0.0       0.0
 8 H  s               1.7       4.1       2.2       0.6       0.8       0.1
 8 H  pz              0.1       0.2       0.1       0.0       0.0       0.0
 8 H  px              0.0       0.1       0.1       0.0       0.0       0.0
 9 H  s               1.8       3.7       2.7       1.1       0.0       0.2
 9 H  px              0.1       0.1       0.1       0.0       0.0       0.0
 9 H  py              0.1       0.2       0.1       0.0       0.0       0.0
10 H  s               2.1       4.1       1.6       0.6       0.1       0.6
10 H  py              0.1       0.2       0.1       0.0       0.0       0.0
11 H  s               0.5       0.6       5.6       1.9       0.0       0.2
11 H  px              0.0       0.0       0.2       0.1       0.0       0.0
11 H  py              0.0       0.1       0.2       0.0       0.0       0.0
12 H  s               0.6       0.9       4.4       1.5       1.9       0.6
12 H  pz              0.0       0.0       0.2       0.1       0.1       0.0
12 H  px              0.0       0.1       0.1       0.0       0.0       0.0
13 H  s               1.0       3.1       3.7       1.8       0.8       0.1
13 H  px              0.1       0.1       0.2       0.1       0.0       0.0
13 H  py              0.0       0.1       0.1       0.0       0.0       0.0
14 H  s               0.9       3.6       1.5       1.8       0.9       2.6
14 H  pz              0.1       0.2       0.1       0.1       0.0       0.0
14 H  px              0.0       0.1       0.0       0.0       0.0       0.0
15 H  s               1.8       2.7       0.1       2.6       1.7       3.4
15 H  pz              0.1       0.1       0.0       0.1       0.0       0.2
15 H  py              0.0       0.0       0.0       0.0       0.1       0.0
16 H  s               1.7       2.2       0.1       0.9       5.1       0.3
16 H  py              0.1       0.2       0.0       0.0       0.1       0.0
17 H  s               3.9       0.9       2.1       3.9       2.5       1.1
17 H  pz              0.2       0.0       0.1       0.1       0.0       0.1
17 H  px              0.1       0.0       0.0       0.0       0.1       0.0
18 H  s               4.8       1.0       1.2       0.6       2.2       3.9
18 H  pz              0.3       0.1       0.0       0.0       0.0       0.2
19 H  s               3.9       0.8       2.2       4.5       0.3       2.4
19 H  px              0.0       0.0       0.1       0.1       0.0       0.0
19 H  py              0.3       0.0       0.1       0.1       0.0       0.1

                     18        19        20        21        22        23   
                  -0.44329  -0.42684  -0.42148  -0.38863  -0.37366  -0.36473
                   2.00000   2.00000   2.00000   2.00000   2.00000   2.00000
                  --------  --------  --------  --------  --------  --------
 0 C  s               0.0       0.0       0.2       0.0       0.0       0.1
 0 C  pz              0.7       2.6       0.1       0.3      10.1       0.3
 0 C  px              0.0       8.0       0.3       5.0       7.3       0.5
 0 C  py              2.5       0.5      10.6       2.4       1.3      20.6
 0 C  dxz             0.0       0.0       0.0       0.0       0.0       0.1
 1 C  s               0.1       0.0       0.2       0.0       0.1       0.4
 1 C  pz              1.0       5.5       2.3       1.2       0.7       3.5
 1 C  px              0.1      12.5       2.5       0.4       4.4       0.1
 1 C  py              5.1       1.3       4.6       4.3       1.2       0.7
 2 C  s               0.3       0.1       0.1       0.0       0.0       0.2
 2 C  pz              0.0       2.0       6.3       2.9       5.1       1.8
 2 C  px              4.9       3.2      10.1       0.5       1.0       4.6
 2 C  py              0.9       3.4       1.0       2.9       0.8       3.5
 2 C  dxz             0.0       0.0       0.0       0.0       0.1       0.1
 2 C  dxy             0.0       0.0       0.0       0.0       0.0       0.2
 3 C  s               0.9       0.0       0.0       0.1       0.4       0.2
 3 C  pz              1.3       1.4       2.0       0.0       2.7      12.2
 3 C  px              0.1       2.3       2.3       2.4       4.4       2.1
 3 C  py             11.5       1.4       1.0       5.0       1.6       4.9
 3 C  dxz             0.0       0.0       0.0       0.0       0.0       0.1
 3 C  dxy             0.1       0.0       0.0       0.0       0.0       0.1
 4 C  s               2.9       0.7       0.3       0.3       0.0       0.0
 4 C  pz              4.2       0.3       1.7       0.2       3.3       0.4
 4 C  px              0.4       0.3       0.0       4.1       3.0       0.2
 4 C  py              0.5       0.3       0.8       3.1       3.5       0.6
 4 C  dz2             0.0       0.0       0.1       0.0       0.0       0.1
 4 C  dxz             0.0       0.0       0.0       0.0       0.0       0.2
 4 C  dx2y2           0.1       0.0       0.0       0.0       0.0       0.1
 5 O  s               8.4       1.4       3.5       2.0       0.0       0.1
 5 O  pz              3.2       1.6       4.3       7.1       3.4       2.8
 5 O  px              1.8       0.6       0.0       0.2       2.8       0.8
 5 O  py             18.7       3.0       6.1       5.3       3.3       0.1
 5 O  dz2             0.2       0.0       0.0       0.0       0.1       0.1
 5 O  dxz             0.0       0.0       0.0       0.0       0.1       0.0
 5 O  dyz             0.3       0.0       0.1       0.1       0.0       0.0
 5 O  dx2y2           0.1       0.1       0.0       0.0       0.2       0.0
 5 O  dxy             0.1       0.1       0.0       0.2       0.0       0.1
 6 O  s               0.1       0.0       0.9       0.0       0.0       0.6
 6 O  pz              1.3       2.7       0.3       0.2       0.1       0.0
 6 O  px              6.2       1.6       5.6       1.1       0.2       0.8
 6 O  py              0.0       3.0       4.7       0.7       0.1       0.9
 6 O  dz2             0.3       0.1       0.0       0.5       0.5       0.0
 6 O  dxz             0.1       0.5       0.1       0.6       0.0       0.2
 6 O  dyz             0.0       0.2       0.1       0.0       0.5       0.0
 6 O  dx2y2           0.5       0.5       0.0       0.0       1.1       0.0
 6 O  dxy             0.1       0.0       0.0       0.3       0.2       0.0
 7 C  s               0.1       0.0       0.2       0.0       0.0       0.0
 7 C  pz              0.9       6.7       3.5      16.6       2.3       0.3
 7 C  px              0.7       5.0       2.4       3.0       4.9       0.1
 7 C  py              5.0       2.4       0.6       2.1       4.5       1.4
 7 C  dz2             0.0       0.0       0.0       0.2       0.0       0.0
 7 C  dxz             0.0       0.0       0.0       0.2       0.0       0.0
 7 C  dx2y2           0.0       0.0       0.0       0.0       0.1       0.0
 8 H  s               0.0       2.9       0.3       0.3       6.7       1.5
 9 H  s               0.5       1.5       0.6       3.3       0.0       5.9
 9 H  px              0.0       0.0       0.0       0.0       0.0       0.1
10 H  s               0.7       0.5       3.9       0.0       3.9       5.6
10 H  px              0.0       0.0       0.1       0.0       0.0       0.1
10 H  py              0.0       0.0       0.1       0.0       0.1       0.0
11 H  s               1.6       2.5       2.1       1.4       0.3       0.1
12 H  s               0.3       5.5       0.0       0.6       1.2       0.4
12 H  pz              0.0       0.2       0.0       0.0       0.0       0.0
13 H  s               0.8       1.8       1.1       1.7       0.0       4.6
14 H  s               0.2       0.1       6.2       0.7       0.7       0.5
14 H  pz              0.0       0.0       0.2       0.0       0.0       0.0
15 H  s               0.1       0.0       1.7       0.0       0.0       7.9
16 H  s               6.0       1.0       0.9       0.7       1.6       4.4
16 H  pz              0.0       0.0       0.0       0.0       0.0       0.1
16 H  py              0.1       0.0       0.0       0.0       0.0       0.1
17 H  s               0.5       5.0       0.0       1.5       4.0       0.2
17 H  px              0.0       0.1       0.0       0.1       0.0       0.0
18 H  s               0.0       0.3       2.4      11.4       0.0       0.3
18 H  pz              0.0       0.0       0.0       0.1       0.0       0.0
19 H  s               2.5       2.1       0.2       1.3       4.3       0.6
19 H  pz              0.0       0.0       0.0       0.1       0.0       0.0

                     24        25        26        27        28        29   
                  -0.35500  -0.34014  -0.32261  -0.30428  -0.29916  -0.29709
                   2.00000   2.00000   2.00000   2.00000   2.00000   2.00000
                  --------  --------  --------  --------  --------  --------
 0 C  s               0.2       0.0       0.0       0.4       0.2       0.0
 0 C  pz             11.3       2.9       0.2       3.9       6.0       7.0
 0 C  px              5.1       8.5       1.8      10.2       0.6       3.4
 0 C  py              1.2       1.7       1.9       1.0      10.9       1.2
 0 C  dz2             0.0       0.1       0.0       0.1       0.0       0.3
 0 C  dxz             0.1       0.0       0.0       0.0       0.2       0.1
 0 C  dyz             0.0       0.0       0.0       0.2       0.0       0.0
 0 C  dxy             0.1       0.1       0.0       0.2       0.1       0.2
 1 C  s               0.1       0.0       0.0       0.2       0.0       0.2
 1 C  pz             10.3       0.0       0.0       3.5       4.1      10.9
 1 C  px              2.5       0.8       0.8      13.3       0.8       7.8
 1 C  py              1.8       0.3       1.3       5.4      13.5       2.8
 1 C  dz2             0.0       0.1       0.0       0.1       0.0       0.4
 1 C  dxz             0.0       0.0       0.0       0.0       0.4       0.3
 1 C  dyz             0.0       0.0       0.0       0.2       0.1       0.0
 1 C  dx2y2           0.0       0.0       0.0       0.0       0.1       0.1
 1 C  dxy             0.0       0.1       0.0       0.6       0.1       0.1
 2 C  s               0.2       0.6       0.0       0.1       0.3       0.1
 2 C  pz              5.1       1.7       0.3       3.9       5.9       4.4
 2 C  px              1.6       3.5       1.8       5.1       3.2       5.7
 2 C  py              2.8       4.7       0.0       3.3      10.4       5.1
 2 C  dz2             0.1       0.1       0.0       0.1       0.1       0.1
 2 C  dxz             0.0       0.0       0.0       0.0       0.4       0.2
 2 C  dyz             0.0       0.0       0.0       0.1       0.2       0.0
 2 C  dx2y2           0.0       0.0       0.0       0.0       0.0       0.2
 2 C  dxy             0.1       0.0       0.0       0.5       0.0       0.0
 3 C  s               0.2       0.3       0.1       0.1       0.1       0.3
 3 C  pz              7.3       0.5       0.2       0.6       3.5       7.4
 3 C  px              2.7       4.7       4.5       0.6       0.2       3.6
 3 C  py              0.5       3.8       0.6       0.0       1.6       2.3
 3 C  dz2             0.2       0.1       0.1       0.1       0.1       0.0
 3 C  dxz             0.2       0.0       0.0       0.0       0.1       0.0
 3 C  dx2y2           0.0       0.1       0.0       0.0       0.0       0.0
 3 C  dxy             0.1       0.0       0.0       0.1       0.1       0.1
 4 C  s               0.2       0.0       0.5       0.2       0.0       0.0
 4 C  pz              1.5       1.1       3.0       0.0       0.3       0.1
 4 C  px              1.2       4.5       0.5       0.4       0.1       0.0
 4 C  py              2.7       2.0       2.1       0.9       0.4       0.2
 4 C  dz2             0.0       0.0       0.2       0.0       0.1       0.0
 4 C  dyz             0.0       0.0       0.5       0.0       0.1       0.1
 4 C  dx2y2           0.0       0.4       0.1       0.0       0.1       0.1
 4 C  dxy             0.0       0.1       0.1       0.0       0.0       0.0
 5 O  s               0.0       0.1       1.1       0.1       0.1       0.0
 5 O  pz              2.6       4.9       1.6       1.1       2.5       0.5
 5 O  px              0.1      11.8       0.1       0.6       0.0       0.4
 5 O  py              1.0       2.2       9.6       0.1       0.1       0.8
 5 O  dxz             0.0       0.1       0.0       0.0       0.0       0.0
 5 O  dyz             0.0       0.0       0.3       0.0       0.0       0.0
 5 O  dx2y2           0.1       0.1       0.0       0.0       0.0       0.0
 6 O  s               0.0       0.2       3.7       0.1       0.1       0.0
 6 O  pz              0.4       3.8       8.4       0.6       0.8       0.5
 6 O  px              1.2       1.4       1.6       0.6       0.1       0.8
 6 O  py              0.4       0.0      22.4       0.2       2.7       0.4
 6 O  dz2             0.0       0.5       0.0       0.0       0.0       0.0
 6 O  dxz             0.0       0.1       1.4       0.1       0.0       0.0
 6 O  dyz             0.2       0.1       0.3       0.2       0.0       0.0
 6 O  dx2y2           0.2       0.0       0.6       0.0       0.1       0.0
 6 O  dxy             0.2       0.0       0.0       0.0       0.0       0.1
 7 C  s               0.0       0.0       0.3       0.0       0.0       0.0
 7 C  pz              1.2       5.3       2.4       0.0       0.1       0.1
 7 C  px              3.0       1.5       0.6       0.2       0.0       0.3
 7 C  py              2.3       0.3       8.2       0.0       0.4       0.1
 7 C  dxz             0.0       0.2       0.4       0.0       0.0       0.0
 7 C  dx2y2           0.1       0.1       0.2       0.0       0.0       0.0
 8 H  s               0.9       4.5       1.3       0.6       2.1       6.6
 9 H  s               4.8       0.1       1.9       7.8       1.8       0.0
10 H  s               0.2       4.9       0.1       0.0       3.8       4.9
10 H  pz              0.1       0.0       0.0       0.0       0.2       0.0
11 H  s               0.3       0.0       1.2      15.8       1.5       0.3
11 H  pz              0.1       0.0       0.0       0.0       0.1       0.1
12 H  s               1.5       0.3       0.3       0.5       2.0      13.6
12 H  px              0.1       0.0       0.0       0.1       0.1       0.0
12 H  py              0.0       0.0       0.0       0.1       0.1       0.1
13 H  s               3.9       2.6       0.4       8.5       0.1       0.1
14 H  s               1.8       0.0       0.2       4.5      10.0       0.0
15 H  s               7.2       0.6       0.9       1.5       3.0       0.2
16 H  s               0.1       3.8       0.1       0.0       2.0       3.2
16 H  pz              0.1       0.0       0.0       0.0       0.0       0.1
17 H  s               0.1       4.4       1.5       0.1       0.0       0.4
17 H  py              0.0       0.0       0.1       0.0       0.0       0.0
18 H  s               2.7       1.3       3.6       0.0       0.3       0.0
19 H  s               2.3       0.6       4.1       0.0       0.4       0.3

                     30        31        32        33        34        35   
                  -0.27484  -0.23400  -0.01686   0.06119   0.09151   0.10394
                   2.00000   2.00000   0.00000   0.00000   0.00000   0.00000
                  --------  --------  --------  --------  --------  --------
 0 C  s               0.0       0.0       0.0       2.4       3.1      15.0
 0 C  pz              0.3       0.0       0.1       0.3       0.9       0.5
 0 C  px              0.0       0.0       0.0       0.2       0.0       1.5
 0 C  py              0.1       0.0       0.0       0.3       0.3       0.4
 0 C  dz2             0.0       0.0       0.0       0.0       0.0       0.1
 0 C  dxz             0.0       0.0       0.0       0.1       0.1       0.1
 0 C  dyz             0.0       0.0       0.0       0.0       0.0       0.2
 1 C  s               0.0       0.1       0.2       3.3       4.6       2.4
 1 C  pz              0.2       0.0       0.1       0.5       0.8       1.3
 1 C  px              0.0       0.0       0.1       0.8       0.1       5.2
 1 C  py              0.0       0.4       0.3       0.8       0.7       0.4
 1 C  dxz             0.0       0.0       0.0       0.0       0.1       0.4
 2 C  s               0.0       0.1       1.7       2.0       0.4       3.4
 2 C  pz              0.6       0.3       1.9       0.8       0.5       0.0
 2 C  px              0.1       0.8       0.6       0.2       0.3       3.5
 2 C  py              0.0       0.5       0.2       0.4       0.1       4.0
 2 C  dxz             0.0       0.0       0.0       0.2       0.0       0.1
 2 C  dyz             0.0       0.0       0.0       0.0       0.2       0.2
[...]
 3 C  pz              2.6       0.0       0.0       0.1       0.0       0.0
 3 C  px              3.0       0.0       0.1       0.0       0.0       0.0
 3 C  py              0.7       0.0       0.0       0.1       0.0       0.0
 3 C  dz2             6.0       0.0       0.2       0.1       0.0       0.0
 3 C  dxz             2.1       0.1       0.1       0.2       0.0       0.0
 3 C  dyz             1.1       0.0       0.1       0.0       0.0       0.0
 3 C  dx2y2           0.6       0.0       0.0       0.0       0.0       0.0
 3 C  dxy             0.3       0.0       0.1       0.0       0.0       0.0
 4 C  s               1.3       0.2       2.6       5.4       0.2       0.7
 4 C  pz              0.5       0.9       4.5       3.2       0.0       0.0
 4 C  px              0.3       0.3       2.5       0.2       0.0       0.0
 4 C  py              0.1       0.2       0.2       4.4       0.0       0.0
 4 C  dz2             3.1       0.5       3.1       0.1       0.0       0.0
 4 C  dxz             0.0       1.1       6.7       0.2       0.0       0.0
 4 C  dyz             1.2       0.0       0.5       4.6       0.0       0.0
 4 C  dx2y2           0.1       0.2       0.9       1.5       0.0       0.0
 4 C  dxy             4.0       0.2       1.2       0.2       0.0       0.0
 5 O  s               0.2       1.0       0.7      19.5       0.0       0.0
 5 O  pz              3.0       0.5       0.1       8.4       0.0       0.0
 5 O  px              2.6       0.1       0.2       0.9       0.0       0.0
 5 O  py              0.0       0.3       0.2      12.5       0.0       0.0
 5 O  dz2             5.4       0.2       0.5       0.3       0.0       0.0
 5 O  dxz             3.4       0.0       0.0       1.1       0.0       0.0
 5 O  dyz             1.7       1.4       0.0      22.3       0.0       0.0
 5 O  dx2y2           0.3       0.4       0.0       7.7       0.0       0.0
 5 O  dxy             3.5       0.0       1.4       1.5       0.0       0.0
 6 O  s               2.7      25.4       5.7       1.2       0.0       0.1
 6 O  pz              2.9       0.4      14.0       0.1       0.0       0.0
 6 O  px              0.2       4.8      16.8       0.4       0.0       0.0
 6 O  py              1.5       8.7       0.3       0.2       0.0       0.0
 6 O  dz2             0.6       1.4       8.9       0.3       0.0       0.0
 6 O  dxz             0.0       9.0      13.0       0.3       0.0       0.0
 6 O  dyz             3.4       0.1       2.0       0.0       0.0       0.0
 6 O  dx2y2           1.5       2.0       1.2       0.1       0.0       0.0
 6 O  dxy             0.0      13.6       5.3       1.1       0.0       0.0
 7 C  s               0.2       1.9       0.7       0.2       2.3      85.8
 7 C  pz              0.0       0.3       0.1       0.0       0.0       0.0
 7 C  px              0.0       4.7       1.2       0.2       0.0       0.0
 7 C  py              0.1       2.9       0.8       0.1       0.0       0.0
 7 C  dz2             0.0       2.5       0.7       0.2       0.0       0.0
 7 C  dxz             0.2       1.0       0.1       0.0       0.0       0.0
 7 C  dyz             0.1       0.4       0.2       0.0       0.0       0.0
 7 C  dx2y2           0.1       0.4       0.1       0.0       0.0       0.0
 7 C  dxy             0.1       9.0       1.7       0.4       0.0       0.0
11 H  s               1.9       0.0       0.0       0.0       0.0       0.0
11 H  pz              0.5       0.0       0.0       0.0       0.0       0.0
11 H  px              2.2       0.0       0.0       0.0       0.0       0.0
11 H  py              2.0       0.0       0.0       0.0       0.0       0.0
12 H  s               1.2       0.0       0.0       0.0       0.0       0.0
12 H  pz              2.1       0.0       0.0       0.0       0.0       0.0
12 H  px              0.6       0.0       0.0       0.0       0.0       0.0
13 H  s               0.2       0.0       0.0       0.0       0.0       0.0
13 H  px              0.7       0.0       0.0       0.0       0.0       0.0
14 H  pz              0.1       0.0       0.0       0.0       0.0       0.0
15 H  s               4.5       0.0       0.1       0.1       0.0       0.0
15 H  pz              7.1       0.0       0.1       0.1       0.0       0.0
15 H  px              1.7       0.0       0.0       0.0       0.0       0.0
16 H  s               1.3       0.0       0.0       0.0       0.0       0.0
16 H  pz              0.2       0.0       0.0       0.0       0.0       0.0
16 H  px              0.2       0.0       0.0       0.0       0.0       0.0
16 H  py              2.0       0.0       0.0       0.0       0.0       0.0
17 H  s               0.0       0.3       0.0       0.0       0.0       0.0
17 H  pz              0.0       0.7       0.1       0.0       0.0       0.0
17 H  py              0.0       0.2       0.0       0.0       0.0       0.0
18 H  s               0.0       0.2       0.1       0.0       0.0       0.0
18 H  pz              0.0       0.3       0.1       0.0       0.0       0.0
18 H  py              0.0       0.5       0.1       0.0       0.0       0.0
19 H  s               0.0       0.3       0.0       0.0       0.0       0.0
19 H  px              0.1       0.5       0.1       0.0       0.0       0.0
19 H  py              0.0       0.3       0.0       0.0       0.0       0.0

                    216       217       218       219       220       221   
                  22.05601  22.07756  22.10775  22.28631  43.70835  43.73461
                   0.00000   0.00000   0.00000   0.00000   0.00000   0.00000
                  --------  --------  --------  --------  --------  --------
 0 C  s               3.9       5.3       0.0       0.0       0.0       0.0
 1 C  s               7.0      87.5       0.2       0.8       0.0       0.0
 2 C  s              82.7       5.3       1.3       4.0       0.0       0.0
 3 C  s               1.1       0.3      89.1       0.0       0.0       0.0
 4 C  s               4.2       0.2       0.2      93.5       0.0       0.1
 5 O  s               0.0       0.0       0.0       0.2      69.9      30.0
 6 O  s               0.0       0.0       0.0       0.1      30.1      69.9
 7 C  s               0.8       1.0       8.8       0.8       0.0       0.0



                      *****************************
                      * MAYER POPULATION ANALYSIS *
                      *****************************

  NA   - Mulliken gross atomic population
  ZA   - Total nuclear charge
  QA   - Mulliken gross atomic charge
  VA   - Mayer's total valence
  BVA  - Mayer's bonded valence
  FA   - Mayer's free valence

  ATOM       NA         ZA         QA         VA         BVA        FA
  0 C      6.5033     6.0000    -0.5033     3.8180     3.8180     0.0000
  1 C      6.2038     6.0000    -0.2038     3.6021     3.6021    -0.0000
  2 C      6.2866     6.0000    -0.2866     3.6620     3.6620    -0.0000
  3 C      6.3496     6.0000    -0.3496     3.7408     3.7408     0.0000
  4 C      5.6451     6.0000     0.3549     3.8037     3.8037     0.0000
  5 O      8.4127     8.0000    -0.4127     1.9440     1.9440     0.0000
  6 O      8.1756     8.0000    -0.1756     1.9300     1.9300     0.0000
  7 C      6.2917     6.0000    -0.2917     3.8015     3.8015     0.0000
  8 H      0.8301     1.0000     0.1699     0.9580     0.9580     0.0000
  9 H      0.8550     1.0000     0.1450     0.9630     0.9630     0.0000
 10 H      0.8538     1.0000     0.1462     0.9627     0.9627     0.0000
 11 H      0.8569     1.0000     0.1431     0.9654     0.9654    -0.0000
 12 H      0.8572     1.0000     0.1428     0.9599     0.9599    -0.0000
 13 H      0.8486     1.0000     0.1514     0.9603     0.9603    -0.0000
 14 H      0.8421     1.0000     0.1579     0.9598     0.9598     0.0000
 15 H      0.8216     1.0000     0.1784     0.9558     0.9558    -0.0000
 16 H      0.8397     1.0000     0.1603     0.9560     0.9560    -0.0000
 17 H      0.8403     1.0000     0.1597     0.9560     0.9560     0.0000
 18 H      0.8498     1.0000     0.1502     0.9556     0.9556    -0.0000
 19 H      0.8367     1.0000     0.1633     0.9564     0.9564     0.0000

  Mayer bond orders larger than 0.100000
B(  0-C ,  1-C ) :   0.8944 B(  0-C ,  8-H ) :   0.9718 B(  0-C ,  9-H ) :   0.9839 
B(  0-C , 10-H ) :   0.9679 B(  1-C ,  2-C ) :   0.9034 B(  1-C , 11-H ) :   0.9638 
B(  1-C , 12-H ) :   0.9597 B(  2-C ,  3-C ) :   0.8757 B(  2-C , 13-H ) :   0.9810 
B(  2-C , 14-H ) :   0.9723 B(  3-C ,  4-C ) :   0.9484 B(  3-C , 15-H ) :   1.0043 
B(  3-C , 16-H ) :   0.9443 B(  4-C ,  5-O ) :   1.8341 B(  4-C ,  6-O ) :   1.0423 
B(  6-O ,  7-C ) :   0.8520 B(  7-C , 17-H ) :   0.9630 B(  7-C , 18-H ) :   0.9691 
B(  7-C , 19-H ) :   0.9630 

-------
TIMINGS
-------

Total SCF time: 0 days 0 hours 0 min 27 sec 

Total time                  ....      27.133 sec
Sum of individual times     ....      26.544 sec  ( 97.8%)

SCF preparation             ....       0.197 sec  (  0.7%)
Fock matrix formation       ....      25.349 sec  ( 93.4%)
  Startup                   ....       0.058 sec  (  0.2% of F)
  Split-RI-J                ....       4.933 sec  ( 19.5% of F)
  XC integration            ....      19.759 sec  ( 77.9% of F)
    Basis function eval.    ....       3.528 sec  ( 17.9% of XC)
    Density eval.           ....       6.146 sec  ( 31.1% of XC)
    XC-Functional eval.     ....       2.473 sec  ( 12.5% of XC)
    XC-Potential eval.      ....       6.573 sec  ( 33.3% of XC)
Diagonalization             ....       0.000 sec  (  0.0%)
Density matrix formation    ....       0.264 sec  (  1.0%)
Total Energy calculation    ....       0.037 sec  (  0.1%)
Population analysis         ....       0.127 sec  (  0.5%)
Orbital Transformation      ....       0.064 sec  (  0.2%)
Orbital Orthonormalization  ....       0.000 sec  (  0.0%)
DIIS solution               ....       0.448 sec  (  1.7%)
  MO trafo                  ....       0.000 sec  (  0.0 % of DIIS)
  Orb grad                  ....       0.000 sec  (  0.0 % of DIIS)
  Energy W gradient         ....       0.000 sec  (  0.0 % of DIIS)
  DIIS error                ....       0.015 sec  (  3.4 % of DIIS)
  DIIS work                 ....       0.376 sec  ( 83.9 % of DIIS)
  Form Q                    ....       0.000 sec  (  0.0 % of DIIS)
  Form QpQm                 ....       0.000 sec  (  0.0 % of DIIS)
  Exp/Cayley                ....       0.000 sec  (  0.0 % of DIIS)
  Orb update                ....       0.000 sec  (  0.0 % of DIIS)
  Wake-sleep                ....       0.024 sec  (  5.4 % of DIIS)
SOSCF solution              ....       0.057 sec  (  0.2%)
  MO trafo                  ....       0.044 sec  ( 76.9 % of SOSCF)
  Orb grad                  ....       0.001 sec  (  1.2 % of SOSCF)
  Rot update                ....       0.000 sec  (  0.1 % of SOSCF)
  Step                      ....       0.012 sec  ( 21.6 % of SOSCF)
Finished LeanSCF after  27.2 sec

Maximum memory used throughout the entire LEANSCF-calculation: 24.3 MB


-------------------------------------------------------------------------------
                          DFT DISPERSION CORRECTION                            
                                                                               
                                DFTD4 V3.4.0                                   
-------------------------------------------------------------------------------
The R2SCAN3C composite method is recognized
Using three-body term ABC
Active option DFTDOPT                   ...         5   

-------------------------   ----------------
Dispersion correction           -0.005414413
-------------------------   ----------------

------------------   -----------------
gCP correction             0.011995149
------------------   -----------------

-------------------------   --------------------
FINAL SINGLE POINT ENERGY      -386.230941818461
-------------------------   --------------------


------------------------------------------------------------------------------
                              ORCA PROPERTY CALCULATIONS
------------------------------------------------------------------------------

GBWName                                 ... sp_gas.gbw
Number of atoms                         ...     20
Number of basis functions               ...    222
Max core memory                         ...   1024 MB

Electric properties:
Dipole moment                           ... YES
Quadrupole moment                       ...  NO
Static polarizability (Dipole/Dipole)   ...  NO
Static polarizability (Dipole/Quad.)    ...  NO
Static polarizability (Quad./Quad.)     ...  NO
Static polarizability (Velocity)        ...  NO

Atomic electric properties:
Dipole moment                           ...  NO
Quadrupole moment                       ...  NO
Static polarizability                   ...  NO

Choice of electric origin               ... Center of mass
Position of electric origin             ...    -0.000028     0.000003    -0.000009

General magnetic properties:
Magnetizability                         ...  NO

EPR properties:
g-Tensor (aka g-matrix)                 ...  NO
Zero-Field splitting spin-orbit         ...  NO
Zero-field splitting spin-spin          ...  NO
Hyperfine couplings                     ...  NO (   0 nuclei)
Quadrupole couplings                    ...  NO (   0 nuclei)
Contact density                         ...  NO (   0 nuclei)

NMR properties:
Chemical shifts                         ...  NO (   0 nuclei)
Spin-rotation constants                 ...  NO (   0 nuclei)
Spin-spin couplings                     ...  NO (   0 nuclei,    0 pairs)

Choice of magnetic origin               ... GIAO
Position of magnetic origin             ...     0.000000     0.000000     0.000000

Properties with geometric perturbations:
SCF Hessian                             ...  NO
IR spectrum                             ...  NO
VCD spectrum                            ...  NO
X-ray spectroscopy properties:
SCF XES/XAS/RIXS spectra                ...  NO


-------------
DIPOLE MOMENT
-------------

Method             : SCF
Type of density    : Electron Density
Multiplicity       :   1
Irrep              :   0
Energy             :  -386.2375225549300239 Eh
Relativity type    : 
Basis              : AO
                                X                 Y                 Z
Electronic contribution:      6.766119251       0.611882089       2.071886861
Nuclear contribution   :     -6.719887886      -0.170512198      -2.768210046
                        -----------------------------------------
Total Dipole Moment    :      0.046231365       0.441369891      -0.696323186
                        -----------------------------------------
Magnitude (a.u.)       :      0.825718293
Magnitude (Debye)      :      2.098809105



--------------------
Rotational spectrum 
--------------------
 
Rotational constants in cm-1:             0.115376             0.039555             0.037539 
Rotational constants in MHz :          3458.882586          1185.828496          1125.387824 

Dipole components along the rotational axes: 
x,y,z [a.u.] :     0.053887     0.812049    -0.139583 
x,y,z [Debye]:     0.136969     2.064064    -0.354792 

 

Dipole moment calculation done in   0.0 sec 

Maximum memory used throughout the entire PROP-calculation: 14.0 MB

--------------------------------
SUGGESTED CITATIONS FOR THIS RUN
--------------------------------

Below you find a list of papers that are relevant to this ORCA run
We neither can nor want to force you to cite these papers, but we appreciate if you do
You receive ORCA, which is the product of decades of hard work by many enthusiastic individuals, for free
The only thing we kindly ask in return is that you cite our papers,
We deeply appreciate it, if you show your appreciation for ORCA by not just citing the generic ORCA reference.

Please note that relegating all ORCA citations to the supporting information does *not* help us.
SI sections are not indexed - citations you put there will not count into any citation statistics
But we need these citations in order to attract the funding resources that allow us to do what we are doing

Therefore, if you are a happy ORCA user, please consider citing a few of the papers listed below in the main body of your paper

In addition to the list printed below, the program has created the file sp_gas.bibtex that contains the list in bibtex format
You can import this file easily into all common literature databanks and citation aid programs


List of essential papers. We consider these as the minimum necessary citations

  1. Neese,F.
     Software update: the ORCA program system, version 5.0
     WIRES Comput. Molec. Sci., 2022 12(1)e1606
     doi.org/10.1002/wcms.1606
  2. Grimme,S.; Hansen,A.; Ehlert,S.; Mewes,J.
     r2SCAN-3c: A 'Swiss army knife' composite electronic-structure method
     J. Chem. Phys., 2021 154 064103
     doi.org/10.1063/5.0040021

List of papers to cite with high priority. The work reported in these papers was absolutely
necessary for this run to complete.
Our perspective: the developers of density functionals and basis sets usually get cited in chemistry papers
Good! But without the algorithms to do something with them, the functionals or basis sets would not do anything.
Hence, in our opinion, the algorithm design and method developments papers are equally worthy of getting cited

  1. Neese,F.
     An improvement of the resolution of the identity approximation for the formation of the Coulomb matrix
     J. Comp. Chem., 2003 24(14)1740-1747
     doi.org/10.1002/jcc.10318
  2. Neese,F.
     The SHARK Integral Generation and Digestion System
     J. Comp. Chem., 2022  1-16
     doi.org/10.1002/jcc.26942
  3. Lehtola,S.; Steigemann,C.; Oliveira,M.; Marques,M.
     Recent developments in Libxc - A comprehensive library of functionals for density functional theory
     Software X, 2018 7 
     doi.org/10.1016/j.softx.2017.11.002
  4. Caldeweyher,E.; Bannwarth,C.; Grimme,S.
     Extension of the D3 dispersion coefficient model
     J. Chem. Phys., 2017 147 034112-XXXX
     doi.org/10.1063/1.4993215
  5. Caldeweyher,E.; Ehlert,S.; Hansen,A.; Neugebauer,H.; Spicher,S.; Bannwarth,C.; Grimme,S.
     A generally applicable atomic-charge dependent London dispersion correction
     J. Chem. Phys., 2019 150 154122-XXXX
     doi.org/10.1063/1.5090222
  6. Caldeweyher,E.; Mewes,J.; Ehlert,S.; Grimme,S.
     Extension and evaluation of the D4 London-dispersion model for periodic systems
     Phys. Chem. Chem. Phys., 2020 22(16)8499-8512
     doi.org/10.1039/D0CP00502A

List of suggested additional citations. These are papers that are important in the 'surrounding' of 
of this run, or papers that preceded the highly important papers. If you like your results we are grateful for a citation.

  1. Neese,F.
     The ORCA program system
     WIRES Comput. Molec. Sci., 2012 2(1)73-78
     doi.org/10.1002/wcms.81
  2. Neese,F.
     Software update: the ORCA program system, version 4.0
     WIRES Comput. Molec. Sci., 2018 8(1)1-6
     doi.org/10.1002/wcms.1327
  3. Neese,F.; Wennmohs,F.; Becker,U.; Riplinger,C.
     The ORCA quantum chemistry program package
     J. Chem. Phys., 2020 152 Art. No. L224108
     doi.org/10.1063/5.0004608

List of optional additional citations

  1. Neese,F.
     Approximate second-order SCF convergence for spin unrestricted wavefunctions
     Chem. Phys. Lett., 2000 325(1-3)93-98
     doi.org/10.1016/s0009-2614(00)00662-x

Timings for individual modules:

Sum of individual times          ...       28.911 sec (=   0.482 min)
Startup calculation              ...        1.227 sec (=   0.020 min)   4.2 %
SCF iterations                   ...       27.557 sec (=   0.459 min)  95.3 %
Property calculations            ...        0.127 sec (=   0.002 min)   0.4 %
                             ****ORCA TERMINATED NORMALLY****
TOTAL RUN TIME: 0 days 0 hours 0 minutes 29 seconds 666 msec
