
                                 *****************
                                 * O   R   C   A *
                                 *****************

                                            #,                                       
                                            ###                                      
                                            ####                                     
                                            #####                                    
                                            ######                                   
                                           ########,                                 
                                     ,,################,,,,,                         
                               ,,#################################,,                 
                          ,,##########################################,,             
                       ,#########################################, ''#####,          
                    ,#############################################,,   '####,        
                  ,##################################################,,,,####,       
                ,###########''''           ''''###############################       
              ,#####''   ,,,,##########,,,,          '''####'''          '####       
            ,##' ,,,,###########################,,,                        '##       
           ' ,,###''''                  '''############,,,                           
         ,,##''                                '''############,,,,        ,,,,,,###''
      ,#''                                            '''#######################'''  
     '                                                          ''''####''''         
             ,#######,   #######,   ,#######,      ##                                
            ,#'     '#,  ##    ##  ,#'     '#,    #''#        ,####,   ,####,        
            ##       ##  ##   ,#'  ##            #'  '#       #'       #'  '#        
            ##       ##  #######   ##           ,######,      #####,   #    #        
            '#,     ,#'  ##    ##  '#,     ,#' ,#      #,     #,   #   #,  ,#        
             '#######'   ##     ##  '#######'  #'      '#     '####' # '####'        



                #########################################################
                #                        -***-                          #
                #          Department of theory and spectroscopy        #
                #                                                       #
                #                      Frank Neese                      #
                #                                                       #
                #     Directorship, Architecture, Infrastructure        #
                #                    SHARK, DRIVERS                     #
                #        Core code/Algorithms in most modules           #
                #                                                       #
                #        Max Planck Institute fuer Kohlenforschung      #
                #                Kaiser Wilhelm Platz 1                 #
                #                 D-45470 Muelheim/Ruhr                 #
                #                      Germany                          #
                #                                                       #
                #                  All rights reserved                  #
                #                        -***-                          #
                #########################################################


                         Program Version 6.0.0  -   RELEASE  -


 With contributions from (in alphabetic order):
   Daniel Aravena         : Magnetic Suceptibility
   Michael Atanasov       : Ab Initio Ligand Field Theory (pilot matlab implementation)
   Alexander A. Auer      : GIAO ZORA, VPT2 properties, NMR spectrum
   Ute Becker             : All parallelization in ORCA, NUMFREQ, NUMCALC
   Giovanni Bistoni       : ED, misc. LED, open-shell LED, HFLD
   Martin Brehm           : Molecular dynamics
   Dmytro Bykov           : pre 5.0 version of the SCF Hessian
   Marcos Casanova-Páez   : Triplet and SCS-CIS(D). UHF-(DLPNO)-IP/EA/STEOM-CCSD. UHF-CVS-IP/STEOM-CCSD
   Vijay G. Chilkuri      : MRCI spin determinant printing, contributions to CSF-ICE
   Pauline Colinet        : FMM embedding
   Dipayan Datta          : RHF DLPNO-CCSD density
   Achintya Kumar Dutta   : EOM-CC, STEOM-CC
   Nicolas Foglia         : Exact transition moments, OPA infrastructure, MCD improvements
   Dmitry Ganyushin       : Spin-Orbit,Spin-Spin,Magnetic field MRCI
   Miquel Garcia          : C-PCM and meta-GGA Hessian, CCSD/C-PCM, Gaussian charge scheme
   Tiago L. C. Gouveia    : GS-ROHF, GS-ROCIS
   Yang Guo               : DLPNO-NEVPT2, F12-NEVPT2, CIM, IAO-localization
   Andreas Hansen         : Spin unrestricted coupled pair/coupled cluster methods
   Ingolf Harden          : AUTO-CI MPn and infrastructure 
   Benjamin Helmich-Paris : MC-RPA, TRAH-(SCF,CASSCF), AVAS, COSX integrals, SCF dyn. polar.
   Lee Huntington         : MR-EOM, pCC
   Robert Izsak           : Overlap fitted RIJCOSX, COSX-SCS-MP3, EOM
   Riya Kayal             : Wick's Theorem for AUTO-CI, AUTO-CI UHF-CCSDT
   Emily Kempfer          : AUTO-CI, RHF CISDT and CCSDT
   Christian Kollmar      : KDIIS, OOCD, Brueckner-CCSD(T), CCSD density, CASPT2, CASPT2-K, improved NEVPT2
   Axel Koslowski         : Symmetry handling
   Simone Kossmann        : Meta GGA functionals, TD-DFT gradient, OOMP2, (MP2 Hessian; deprecated post 5.0)
   Lucas Lang             : DCDCAS
   Marvin Lechner         : AUTO-CI (C++ implementation), FIC-MRCC
   Spencer Leger          : CASSCF response
   Dagmar Lenk            : GEPOL surface, SMD, ORCA-2-JSON
   Dimitrios Liakos       : Extrapolation schemes; Compound Job, initial MDCI parallelization
   Dimitrios Manganas     : Further ROCIS development; embedding schemes. LFT, Crystal Embedding
   Dimitrios Pantazis     : SARC Basis sets
   Anastasios Papadopoulos: AUTO-CI, single reference methods and gradients
   Taras Petrenko         : pre 6.0 DFT Hessian and TD-DFT gradient, (ASA, deprecated), ECA, 1-Electron XAS/XES, NRVS
   Peter Pinski           : DLPNO-MP2, DLPNO-MP2 Gradient
   Christoph Reimann      : Effective Core Potentials
   Marius Retegan         : Local ZFS, SOC
   Christoph Riplinger    : Optimizer, TS searches, QM/MM, DLPNO-CCSD(T), (RO)-DLPNO pert. Triples
   Michael Roemelt        : Original ROCIS implementation
   Masaaki Saitow         : Open-shell DLPNO-CCSD energy and density
   Barbara Sandhoefer     : DKH picture change effects
   Kantharuban Sivalingam : CASSCF convergence/infrastructure, NEVPT2 and variants, FIC-MRCI
   Bernardo de Souza      : ESD, SOC TD-DFT
   Georgi Stoychev        : AutoAux, RI-MP2 NMR, DLPNO-MP2 response, X2C
   Van Anh Tran           : RI-MP2 g-tensors
   Willem Van den Heuvel  : Paramagnetic NMR
   Zikuan Wang            : NOTCH, Electric field optimization 
   Frank Wennmohs         : Technical directorship and infrastructure
   Hang Xu                : AUTO-CI-Response properties 


 We gratefully acknowledge several colleagues who have allowed us to
 interface, adapt or use parts of their codes:
   Stefan Grimme, W. Hujo, H. Kruse, P. Pracht,  : VdW corrections, initial TS optimization,
                  C. Bannwarth, S. Ehlert,         DFT functionals, gCP, sTDA/sTD-DF
                  L. Wittmann, M. Mueller
   Ed Valeev, F. Pavosevic, A. Kumar             : LibInt (2-el integral package), F12 methods
   Garnet Chan, S. Sharma, J. Yang, R. Olivares  : DMRG
   Ulf Ekstrom                                   : XCFun DFT Library
   Mihaly Kallay                                 : mrcc  (arbitrary order and MRCC methods)
   Frank Weinhold                                : gennbo (NPA and NBO analysis)
   Simon Mueller                                 : openCOSMO-RS
   Christopher J. Cramer and Donald G. Truhlar   : smd solvation model
   Lars Goerigk                                  : TD-DFT with DH, B97 family of functionals
   V. Asgeirsson, H. Jonsson                     : NEB implementation
   FAccTs GmbH                                   : IRC, NEB, NEB-TS, DLPNO-Multilevel, CI-OPT
                                                   MM, QMMM, 2- and 3-layer-ONIOM, Crystal-QMMM,
                                                   LR-CPCM, SF, NACMEs, symmetry and pop. for TD-DFT,
                                                   nearIR, NL-DFT gradient (VV10), updates on ESD,
                                                   ML-optimized integration grids, MBIS, APM,
                                                   GOAT, DOCKER, SOLVATOR, interface openCOSMO-RS
   S Lehtola, MJT Oliveira, MAL Marques          : LibXC Library
   Liviu Ungur et al                             : ANISO software


 Your calculation uses the libint2 library for the computation of 2-el integrals
 For citations please refer to: http://libint.valeyev.net

 Your ORCA version has been built with support for libXC version: 6.2.2
 For citations please refer to: https://libxc.gitlab.io

 This ORCA versions uses:
   CBLAS   interface :  Fast vector & matrix operations
   LAPACKE interface :  Fast linear algebra routines
   SCALAPACK package :  Parallel linear algebra routines
   Shared memory     :  Shared parallel matrices
   BLAS/LAPACK       :  OpenBLAS 0.3.27  USE64BITINT DYNAMIC_ARCH NO_AFFINITY SkylakeX SINGLE_THREADED
        Core in use  :  SkylakeX
   Copyright (c) 2011-2014, The OpenBLAS Project


Your calculation utilizes the geometrical counterpoise correction gCP
Please cite in your paper:
H.Kruse, S. Grimme J.Chem.Phys., 136, (2012), 154101 
   

Your calculation utilizes the atom-pairwise dispersion correction
based on EEQ partial charges (D4)


================================================================================

----- Orbital basis set information -----
Your calculation utilizes the basis: def2-SV(P)
   F. Weigend and R. Ahlrichs, Phys. Chem. Chem. Phys. 7, 3297 (2005).

----- AuxJ basis set information -----
Your calculation utilizes the auxiliary basis: def2/J
   F. Weigend, Phys. Chem. Chem. Phys. 8, 1057 (2006).

================================================================================
                                        WARNINGS
                       Please study these warnings very carefully!
================================================================================


================================================================================
                                       INPUT FILE
================================================================================
NAME = sp.inp
|  1> ! pbe def2-sv(p) def2/J RI DEFGRID1 loosescf d4 GCP(DFT/SV(P)) printgap
|  2> %output
|  3>     printlevel normal
|  4> end
|  5> * xyz 0 1
|  6> C 2.9952834056 -0.7512753643 -0.1468633227
|  7> C 1.5457587645 -0.4119331039 0.1809784705
|  8> C 1.1940892749 1.007952977 -0.2581486358
|  9> C -0.200749297 1.4697625879 0.1678907871
| 10> C -1.3460788513 0.7507546621 -0.5285195521
| 11> Cl -1.7479705168 -0.8243171386 0.248799218
| 12> H 3.2291168035 -1.7667108348 0.1634755807
| 13> H 3.6722970251 -0.0708393481 0.364894886
| 14> H 3.1722851196 -0.669993319 -1.2170172548
| 15> H 0.8904968654 -1.1285552178 -0.31556043
| 16> H 1.3846962561 -0.5078994913 1.2573225856
| 17> H 1.2801312917 1.0796891798 -1.344527208
| 18> H 1.9238629538 1.6947333168 0.1764481449
| 19> H -0.298044656 2.5295433809 -0.0771422561
| 20> H -0.310004591 1.366864391 1.2487061696
| 21> H -2.2642591731 1.3325342529 -0.4747055917
| 22> H -1.1069219427 0.5246564396 -1.5660997606
| 23> *
| 24> 
| 25>                          ****END OF INPUT****
================================================================================

                       ****************************
                       * Single Point Calculation *
                       ****************************

---------------------------------
CARTESIAN COORDINATES (ANGSTROEM)
---------------------------------
  C      2.995283   -0.751275   -0.146863
  C      1.545759   -0.411933    0.180978
  C      1.194089    1.007953   -0.258149
  C     -0.200749    1.469763    0.167891
  C     -1.346079    0.750755   -0.528520
  Cl    -1.747971   -0.824317    0.248799
  H      3.229117   -1.766711    0.163476
  H      3.672297   -0.070839    0.364895
  H      3.172285   -0.669993   -1.217017
  H      0.890497   -1.128555   -0.315560
  H      1.384696   -0.507899    1.257323
  H      1.280131    1.079689   -1.344527
  H      1.923863    1.694733    0.176448
  H     -0.298045    2.529543   -0.077142
  H     -0.310005    1.366864    1.248706
  H     -2.264259    1.332534   -0.474706
  H     -1.106922    0.524656   -1.566100

----------------------------
CARTESIAN COORDINATES (A.U.)
----------------------------
  NO LB      ZA    FRAG     MASS         X           Y           Z
   0 C     6.0000    0    12.011    5.660265   -1.419705   -0.277531
   1 C     6.0000    0    12.011    2.921061   -0.778441    0.342000
   2 C     6.0000    0    12.011    2.256502    1.904755   -0.487830
   3 C     6.0000    0    12.011   -0.379361    2.777449    0.317268
   4 C     6.0000    0    12.011   -2.543720    1.418721   -0.998757
   5 Cl   17.0000    0    35.453   -3.303186   -1.557734    0.470162
   6 H     1.0000    0     1.008    6.102146   -3.338600    0.308924
   7 H     1.0000    0     1.008    6.939636   -0.133867    0.689551
   8 H     1.0000    0     1.008    5.994750   -1.266104   -2.299829
   9 H     1.0000    0     1.008    1.682795   -2.132660   -0.596323
  10 H     1.0000    0     1.008    2.616697   -0.959791    2.375995
  11 H     1.0000    0     1.008    2.419098    2.040317   -2.540788
  12 H     1.0000    0     1.008    3.635574    3.202582    0.333439
  13 H     1.0000    0     1.008   -0.563223    4.780144   -0.145778
  14 H     1.0000    0     1.008   -0.585824    2.582999    2.359713
  15 H     1.0000    0     1.008   -4.278830    2.518125   -0.897064
  16 H     1.0000    0     1.008   -2.091779    0.991457   -2.959500

--------------------------------
INTERNAL COORDINATES (ANGSTROEM)
--------------------------------
 C      0   0   0     0.000000000000     0.00000000     0.00000000
 C      1   0   0     1.524386793507     0.00000000     0.00000000
 C      2   1   0     1.527278798431   111.35041804     0.00000000
 C      3   2   1     1.529821018369   114.23720532   185.99780160
 C      4   3   2     1.521098138143   114.60319865   291.61100712
 Cl     5   4   3     1.801830335661   112.55909171    83.15353305
 H      1   2   3     1.087243067435   110.55016636   180.46812981
 H      1   2   3     1.087767014256   110.57252145    60.38522262
 H      1   2   3     1.087734258004   110.46822284   300.44868342
 H      2   1   3     1.090626558567   109.09416934   121.56528370
 H      2   1   3     1.092550837825   109.42060073   239.02825832
 H      3   2   1     1.092139054142   109.20390381    63.38886515
 H      3   2   1     1.092296305654   108.43941486   306.44867780
 H      4   3   2     1.092081914672   108.16100675   172.62389011
 H      4   3   2     1.091185891240   109.79571006    55.29935241
 H      5   4   3     1.088309945717   111.09592533   200.50589049
 H      5   4   3     1.088526123811   111.66367216   323.83396166

---------------------------
INTERNAL COORDINATES (A.U.)
---------------------------
 C      0   0   0     0.000000000000     0.00000000     0.00000000
 C      1   0   0     2.880673561894     0.00000000     0.00000000
 C      2   1   0     2.886138659179   111.35041804     0.00000000
 C      3   2   1     2.890942758635   114.23720532   185.99780160
 C      4   3   2     2.874458903907   114.60319865   291.61100712
 Cl     5   4   3     3.404965874191   112.55909171    83.15353305
 H      1   2   3     2.054591638458   110.55016636   180.46812981
 H      1   2   3     2.055581754456   110.57252145    60.38522262
 H      1   2   3     2.055519854112   110.46822284   300.44868342
 H      2   1   3     2.060985510073   109.09416934   121.56528370
 H      2   1   3     2.064621870876   109.42060073   239.02825832
 H      3   2   1     2.063843712488   109.20390381    63.38886515
 H      3   2   1     2.064140874780   108.43941486   306.44867780
 H      4   3   2     2.063735734539   108.16100675   172.62389011
 H      4   3   2     2.062042495642   109.79571006    55.29935241
 H      5   4   3     2.056607746227   111.09592533   200.50589049
 H      5   4   3     2.057016263622   111.66367216   323.83396166

---------------------
BASIS SET INFORMATION
---------------------
There are 3 groups of distinct atoms

 Group   1 Type C   : 7s4p1d contracted to 3s2p1d pattern {511/31/1}
 Group   2 Type Cl  : 10s7p1d contracted to 4s3p1d pattern {5311/511/1}
 Group   3 Type H   : 4s contracted to 2s pattern {31}

Atom   0C    basis set group =>   1
Atom   1C    basis set group =>   1
Atom   2C    basis set group =>   1
Atom   3C    basis set group =>   1
Atom   4C    basis set group =>   1
Atom   5Cl   basis set group =>   2
Atom   6H    basis set group =>   3
Atom   7H    basis set group =>   3
Atom   8H    basis set group =>   3
Atom   9H    basis set group =>   3
Atom  10H    basis set group =>   3
Atom  11H    basis set group =>   3
Atom  12H    basis set group =>   3
Atom  13H    basis set group =>   3
Atom  14H    basis set group =>   3
Atom  15H    basis set group =>   3
Atom  16H    basis set group =>   3
---------------------------------
AUXILIARY/J BASIS SET INFORMATION
---------------------------------
There are 3 groups of distinct atoms

 Group   1 Type C   : 12s5p4d2f1g contracted to 6s4p3d1f1g pattern {711111/2111/211/2/1}
 Group   2 Type Cl  : 14s5p5d2f1g contracted to 8s4p3d1f1g pattern {71111111/2111/311/2/1}
 Group   3 Type H   : 5s2p1d contracted to 3s1p1d pattern {311/2/1}

Atom   0C    basis set group =>   1
Atom   1C    basis set group =>   1
Atom   2C    basis set group =>   1
Atom   3C    basis set group =>   1
Atom   4C    basis set group =>   1
Atom   5Cl   basis set group =>   2
Atom   6H    basis set group =>   3
Atom   7H    basis set group =>   3
Atom   8H    basis set group =>   3
Atom   9H    basis set group =>   3
Atom  10H    basis set group =>   3
Atom  11H    basis set group =>   3
Atom  12H    basis set group =>   3
Atom  13H    basis set group =>   3
Atom  14H    basis set group =>   3
Atom  15H    basis set group =>   3
Atom  16H    basis set group =>   3
------------------------------------------------------------------------------
                             ORCA STARTUP CALCULATIONS
                           -- RI-GTO INTEGRALS CHOSEN --
------------------------------------------------------------------------------
------------------------------------------------------------------------------
                   ___                                                        
                  /   \      - P O W E R E D   B Y -                         
                 /     \                                                     
                 |  |  |   _    _      __       _____    __    __             
                 |  |  |  | |  | |    /  \     |  _  \  |  |  /  |          
                  \  \/   | |  | |   /    \    | | | |  |  | /  /          
                 / \  \   | |__| |  /  /\  \   | |_| |  |  |/  /          
                |  |  |   |  __  | /  /__\  \  |    /   |      \           
                |  |  |   | |  | | |   __   |  |    \   |  |\   \          
                \     /   | |  | | |  |  |  |  | |\  \  |  | \   \       
                 \___/    |_|  |_| |__|  |__|  |_| \__\ |__|  \__/        
                                                                              
                      - O R C A' S   B I G   F R I E N D -                    
                                      &                                       
                       - I N T E G R A L  F E E D E R -                       
                                                                              
 v1 FN, 2020, v2 2021, v3 2022-2024                                           
------------------------------------------------------------------------------


----------------------
SHARK INTEGRAL PACKAGE
----------------------

Number of atoms                             ...     17
Number of basis functions                   ...    110
Number of shells                            ...     60
Maximum angular momentum                    ...      2
Integral batch strategy                     ... SHARK/LIBINT Hybrid
RI-J (if used) integral strategy            ... SPLIT-RIJ (Revised 2003 algorithm where possible)
Printlevel                                  ...      1
Contraction scheme used                     ... SEGMENTED contraction
Prescreening option                         ... SCHWARTZ
   Thresh                                   ... 1.000e-09
   Tcut                                     ... 1.000e-10
   Tpresel                                  ... 1.000e-10 
Coulomb Range Separation                    ... NOT USED
Exchange Range Separation                   ... NOT USED
Multipole approximations                    ... NOT USED
Finite Nucleus Model                        ... NOT USED
CABS basis                                  ... NOT available
Auxiliary Coulomb fitting basis             ... AVAILABLE
   # of basis functions in Aux-J            ...    417
   # of shells in Aux-J                     ...    147
   Maximum angular momentum in Aux-J        ...      4
Auxiliary J/K fitting basis                 ... NOT available
Auxiliary Correlation fitting basis         ... NOT available
Auxiliary 'external' fitting basis          ... NOT available

Checking pre-screening integrals            ... done (  0.0 sec) Dimension = 60
Check shell pair data                       ... done (  0.0 sec)
Shell pair information
Shell pair cut-off parameter TPreSel        ...   1.0e-10
Total number of shell pairs                 ...      1830
Shell pairs after pre-screening             ...      1740
Total number of primitive shell pairs       ...      7624
Primitive shell pairs kept                  ...      5177
          la=0 lb=0:    814 shell pairs
          la=1 lb=0:    509 shell pairs
          la=1 lb=1:     90 shell pairs
          la=2 lb=0:    232 shell pairs
          la=2 lb=1:     75 shell pairs
          la=2 lb=2:     20 shell pairs

Calculating one electron integrals          ... done (  0.0 sec)
Calculating RI/J V-Matrix + Cholesky decomp.... done (  0.1 sec)
Calculating Nuclear repulsion               ... done (  0.0 sec) ENN=    300.079107467116 Eh

Diagonalization of the overlap matrix:
Smallest eigenvalue                        ... 1.884e-03
Time for diagonalization                   ...    0.001 sec
Threshold for overlap eigenvalues          ... 1.000e-07
Number of eigenvalues below threshold      ... 0
Time for construction of square roots      ...    0.023 sec
Total time needed                          ...    0.034 sec

-------------------
DFT GRID GENERATION
-------------------

General Integration Accuracy     IntAcc      ... 4.159
Radial Grid Type                 RadialGrid  ... OptM3 with GC (2021)
Angular Grid (max. ang.)         AngularGrid ... 3 (Lebedev-194)
Angular grid pruning method      GridPruning ... 4 (adaptive)
Weight generation scheme         WeightScheme... mBecke (2022)
Basis function cutoff            BFCut       ... 1.0000e-10
Integration weight cutoff        WCut        ... 1.0000e-14
Partially contracted basis set               ... off
Rotationally invariant grid construction     ... off
Angular grids for H and He will be reduced by one unit

Total number of grid points                  ...    35891
Total number of batches                      ...      569
Average number of points per batch           ...       63
Average number of grid points per atom       ...     2111
Initializing property integral containers    ... done (  0.0 sec)

SHARK setup successfully completed in   0.6 seconds

Maximum memory used throughout the entire STARTUP-calculation: 18.3 MB
-------------------------------------------------------------------------------
                                 ORCA GUESS
                   Start orbitals & Density for SCF / CASSCF
-------------------------------------------------------------------------------

------------
SCF SETTINGS
------------
Hamiltonian:
 Density Functional     Method          .... DFT(GTOs)
 Exchange Functional    Exchange        .... PBE
   PBE kappa parameter   XKappa         ....  0.804000
   PBE mue parameter    XMuePBE         ....  0.219520
 Correlation Functional Correlation     .... PBE
   PBE beta parameter  CBetaPBE         ....  0.066725
 LDA part of GGA corr.  LDAOpt          .... PW91-LDA
 Gradients option       PostSCFGGA      .... off
   NL short-range parameter             ....  6.400000
 RI-approximation to the Coulomb term is turned on
   Number of AuxJ basis functions       .... 417


General Settings:
 Integral files         IntName         .... sp
 Hartree-Fock type      HFTyp           .... RHF
 Total Charge           Charge          ....    0
 Multiplicity           Mult            ....    1
 Number of Electrons    NEL             ....   58
 Basis Dimension        Dim             ....  110
 Nuclear Repulsion      ENuc            ....    300.0791074671 Eh

Convergence Acceleration:
 AO-DIIS                CNVDIIS         .... on
   Start iteration      DIISMaxIt       ....    12
   Startup error        DIISStart       ....  0.200000
   # of expansion vecs  DIISMaxEq       ....     5
   Bias factor          DIISBfac        ....   1.050
   Max. coefficient     DIISMaxC        ....  10.000
 MO-DIIS                CNVKDIIS        .... off
 Trust-Rad. Augm. Hess. CNVTRAH         .... auto
   Auto Start mean grad. ratio tolernc. ....  1.125000
   Auto Start start iteration           ....    50
   Auto Start num. interpolation iter.  ....    10
   Max. Number of Micro iterations      ....    24
   Max. Number of Macro iterations      .... Maxiter - #DIIS iter
   Number of Davidson start vectors     ....     2
   Converg. threshold    (grad. norm)   ....   1.000e-04
   Grad. Scal. Fac. for Micro threshold ....   0.100
   Minimum threshold for Micro iter.    ....   1.000e-02
   NR start threshold (gradient norm)   ....   1.000e-04
   Initial trust radius                 ....   0.400
   Minimum AH scaling param. (alpha)    ....   1.000
   Maximum AH scaling param. (alpha)    .... 1000.000
   Quad. conv. algorithm                .... NR
   White noise on init. David. guess    .... on
   Maximum white noise                  ....   0.010
   Pseudo random numbers                .... off
   Inactive MOs                         .... canonical
   Orbital update algorithm             .... Taylor
   Preconditioner                       .... Diag
   Full preconditioner red. dimension   ....   250
 SOSCF                  CNVSOSCF        .... on
   Start iteration      SOSCFMaxIt      ....   150
   Startup grad/error   SOSCFStart      ....  0.003300
   Hessian update       SOSCFHessUp     .... L-BFGS
 Level Shifting         CNVShift        .... on
   Level shift para.    LevelShift      ....    0.2500
   Turn off err/grad.   ShiftErr        ....    0.0010
 Zerner damping         CNVZerner       .... off
 Static damping         CNVDamp         .... on
   Fraction old density DampFac         ....    0.7000
   Max. Damping (<1)    DampMax         ....    0.9800
   Min. Damping (>=0)   DampMin         ....    0.0000
   Turn off err/grad.   DampErr         ....    0.1000

SCF Procedure:
 Maximum # iterations   MaxIter         ....   125
 SCF integral mode      SCFMode         .... Direct
   Integral package                     .... SHARK and LIBINT hybrid scheme
 Reset frequency        DirectResetFreq ....    20
 Integral Threshold     Thresh          ....  1.000e-09 Eh
 Primitive CutOff       TCut            ....  1.000e-10 Eh

Convergence Tolerance:
 Convergence Check Mode ConvCheckMode   .... Total+1el-Energy
 Convergence forced     ConvForced      .... 0
 Energy Change          TolE            ....  1.000e-05 Eh
 1-El. energy change                    ....  1.000e-02 Eh
 Orbital Gradient       TolG            ....  1.000e-04
 Orbital Rotation angle TolX            ....  1.000e-04
 DIIS Error             TolErr          ....  5.000e-04

------------------------------
INITIAL GUESS: MODEL POTENTIAL
------------------------------
Loading Hartree-Fock densities                     ... done
Calculating cut-offs                               ... done
Initializing the effective Hamiltonian             ... done
Setting up the integral package (SHARK)            ... done
Starting the Coulomb interaction                   ... done (   0.1 sec)
Making the grid                                    ... done (   0.2 sec)
Mapping shells                                     ... done
Starting the XC term evaluation                    ... done (   0.1 sec)
  promolecular density results
     # of electrons  =     58.002058002
     EX              =    -56.210159380
     EC              =     -1.995556402
     EX+EC           =    -58.205715782
Transforming the Hamiltonian                       ... done (   0.0 sec)
Diagonalizing the Hamiltonian                      ... done (   0.0 sec)
Back transforming the eigenvectors                 ... done (   0.0 sec)
Now organizing SCF variables                       ... done
                      ------------------
                      INITIAL GUESS DONE (   0.4 sec)
                      ------------------
             **** ENERGY FILE WAS UPDATED (sp.en.tmp) ****
Finished Guess after   0.6 sec
Maximum memory used throughout the entire GUESS-calculation: 13.3 MB

-------------------------------------------------------------------------------------------
                                      ORCA LEAN-SCF
                              memory conserving SCF solver
-------------------------------------------------------------------------------------------

----------------------------------------D-I-I-S--------------------------------------------
Iteration    Energy (Eh)           Delta-E    RMSDP     MaxDP     DIISErr   Damp  Time(sec)
-------------------------------------------------------------------------------------------
               ***  Starting incremental Fock matrix formation  ***
    1    -656.4172200776296222     0.00e+00  4.37e-03  8.23e-02  1.62e-01  0.700   0.6
    2    -656.4920741063091327    -7.49e-02  3.14e-03  4.74e-02  7.72e-02  0.700   0.7
                               ***Turning on AO-DIIS***
    3    -656.5180261518145244    -2.60e-02  1.31e-03  1.42e-02  2.15e-02  0.700   0.6
    4    -656.5331641769699900    -1.51e-02  1.98e-03  2.27e-02  8.43e-03  0.000   0.7
    5    -656.5677396470247231    -3.46e-02  5.43e-04  5.80e-03  7.76e-03  0.000   0.6
                              *** Initializing SOSCF ***
---------------------------------------S-O-S-C-F--------------------------------------
Iteration    Energy (Eh)           Delta-E    RMSDP     MaxDP     MaxGrad    Time(sec)
--------------------------------------------------------------------------------------
    6    -656.5681704562018695    -4.31e-04  1.98e-04  2.08e-03  1.96e-03     0.6
               *** Restarting incremental Fock matrix formation ***
    7    -656.5682036190294184    -3.32e-05  1.43e-04  1.46e-03  3.09e-04     0.6
    8    -656.5682038109172254    -1.92e-07  3.76e-05  7.10e-04  2.21e-04     0.6
                 **** Energy Check signals convergence ****

               *****************************************************
               *                     SUCCESS                       *
               *           SCF CONVERGED AFTER   8 CYCLES          *
               *****************************************************

             **** ENERGY FILE WAS UPDATED (sp.en.tmp) ****

----------------
TOTAL SCF ENERGY
----------------

Total Energy       :       -656.56820381091723 Eh          -17866.12912 eV

Components:
Nuclear Repulsion  :        300.07910746711593 Eh            8165.56764 eV
Electronic Energy  :       -956.64731127803316 Eh          -26031.69677 eV
One Electron Energy:      -1494.74845691215432 Eh          -40674.17335 eV
Two Electron Energy:        538.10114563412117 Eh           14642.47658 eV

Virial components:
Potential Energy   :      -1310.36875013162785 Eh          -35656.94646 eV
Kinetic Energy     :        653.80054632071062 Eh           17790.81733 eV
Virial Ratio       :          2.00423318320210

DFT components:
N(Alpha)           :       29.000399250279 electrons
N(Beta)            :       29.000399250279 electrons
N(Total)           :       58.000798500558 electrons
E(X)               :      -57.013210320657 Eh       
E(C)               :       -2.004717725016 Eh       
E(XC)              :      -59.017928045673 Eh       

---------------
SCF CONVERGENCE
---------------

  Last Energy change         ...    1.9189e-07  Tolerance :   1.0000e-05
  Last MAX-Density change    ...    7.0972e-04  Tolerance :   1.0000e-03
  Last RMS-Density change    ...    3.7636e-05  Tolerance :   1.0000e-04
  Last DIIS Error            ...    1.9554e-03  Tolerance :   5.0000e-04
  Last Orbital Gradient      ...    2.2090e-04  Tolerance :   1.0000e-04
  Last Orbital Rotation      ...    1.8568e-04  Tolerance :   1.0000e-04


----------------
ORBITAL ENERGIES
----------------

  NO   OCC          E(Eh)            E(eV) 
   0   2.0000    -100.616142     -2737.9044 
   1   2.0000      -9.939954      -270.4799 
   2   2.0000      -9.895783      -269.2779 
   3   2.0000      -9.886291      -269.0197 
   4   2.0000      -9.877278      -268.7744 
   5   2.0000      -9.869777      -268.5703 
   6   2.0000      -9.151744      -249.0316 
   7   2.0000      -6.983286      -190.0249 
   8   2.0000      -6.971438      -189.7025 
   9   2.0000      -6.971342      -189.6998 
  10   2.0000      -0.775286       -21.0966 
  11   2.0000      -0.716496       -19.4968 
  12   2.0000      -0.666842       -18.1457 
  13   2.0000      -0.598698       -16.2914 
  14   2.0000      -0.539712       -14.6863 
  15   2.0000      -0.509890       -13.8748 
  16   2.0000      -0.433173       -11.7872 
  17   2.0000      -0.413305       -11.2466 
  18   2.0000      -0.404794       -11.0150 
  19   2.0000      -0.373765       -10.1707 
  20   2.0000      -0.362123        -9.8539 
  21   2.0000      -0.347556        -9.4575 
  22   2.0000      -0.325649        -8.8614 
  23   2.0000      -0.314532        -8.5588 
  24   2.0000      -0.297449        -8.0940 
  25   2.0000      -0.285436        -7.7671 
  26   2.0000      -0.281103        -7.6492 
  27   2.0000      -0.243636        -6.6297 
  28   2.0000      -0.237398        -6.4599 
  29   0.0000       0.009451         0.2572 
  30   0.0000       0.036071         0.9815 
  31   0.0000       0.055535         1.5112 
  32   0.0000       0.060214         1.6385 
  33   0.0000       0.084057         2.2873 
  34   0.0000       0.091539         2.4909 
  35   0.0000       0.105792         2.8788 
  36   0.0000       0.118813         3.2331 
  37   0.0000       0.130027         3.5382 
  38   0.0000       0.137268         3.7352 
  39   0.0000       0.144052         3.9199 
*Only the first 10 virtual orbitals were printed.

                    ********************************
                    * MULLIKEN POPULATION ANALYSIS *
                    ********************************

-----------------------
MULLIKEN ATOMIC CHARGES
-----------------------
   0 C :   -0.260380
   1 C :   -0.198677
   2 C :   -0.186098
   3 C :   -0.129065
   4 C :   -0.173121
   5 Cl:   -0.151353
   6 H :    0.103338
   7 H :    0.093788
   8 H :    0.093796
   9 H :    0.095765
  10 H :    0.084445
  11 H :    0.080034
  12 H :    0.083579
  13 H :    0.092272
  14 H :    0.100285
  15 H :    0.137222
  16 H :    0.134168
Sum of atomic charges:    0.0000000

--------------------------------
MULLIKEN REDUCED ORBITAL CHARGES
--------------------------------
  0 C s       :     3.081294  s :     3.081294
      pz      :     1.060988  p :     3.149602
      px      :     1.032138
      py      :     1.056476
      dz2     :     0.008090  d :     0.029485
      dxz     :     0.005450
      dyz     :     0.002773
      dx2y2   :     0.006161
      dxy     :     0.007012

  1 C s       :     3.075936  s :     3.075936
      pz      :     1.045821  p :     3.085795
      px      :     1.026134
      py      :     1.013840
      dz2     :     0.009788  d :     0.036945
      dxz     :     0.005407
      dyz     :     0.005066
      dx2y2   :     0.007076
      dxy     :     0.009608

  2 C s       :     3.071225  s :     3.071225
      pz      :     1.033700  p :     3.078316
      px      :     1.011539
      py      :     1.033077
      dz2     :     0.010636  d :     0.036557
      dxz     :     0.004468
      dyz     :     0.004804
      dx2y2   :     0.006257
      dxy     :     0.010391

  3 C s       :     3.026647  s :     3.026647
      pz      :     1.049014  p :     3.066436
      px      :     0.999322
      py      :     1.018100
      dz2     :     0.010729  d :     0.035982
      dxz     :     0.006015
      dyz     :     0.002569
      dx2y2   :     0.010705
      dxy     :     0.005965

  4 C s       :     3.140029  s :     3.140029
      pz      :     1.046970  p :     2.989858
      px      :     1.078568
      py      :     0.864320
      dz2     :     0.011663  d :     0.043234
      dxz     :     0.004211
      dyz     :     0.007298
      dx2y2   :     0.008765
      dxy     :     0.011297

  5 Cls       :     5.958640  s :     5.958640
      pz      :     3.817472  p :    11.161594
      px      :     3.916456
      py      :     3.427667
      dz2     :     0.004201  d :     0.031119
      dxz     :     0.001845
      dyz     :     0.009780
      dx2y2   :     0.008755
      dxy     :     0.006538

  6 H s       :     0.896662  s :     0.896662

  7 H s       :     0.906212  s :     0.906212

  8 H s       :     0.906204  s :     0.906204

  9 H s       :     0.904235  s :     0.904235

 10 H s       :     0.915555  s :     0.915555

 11 H s       :     0.919966  s :     0.919966

 12 H s       :     0.916421  s :     0.916421

 13 H s       :     0.907728  s :     0.907728

 14 H s       :     0.899715  s :     0.899715

 15 H s       :     0.862778  s :     0.862778

 16 H s       :     0.865832  s :     0.865832


------------------------
MULLIKEN OVERLAP CHARGES
------------------------
B(  0-C ,  1-C ) :   0.8619 B(  0-C ,  2-C ) :  -0.1181 B(  0-C ,  6-H ) :   0.7344 
B(  0-C ,  7-H ) :   0.7495 B(  0-C ,  8-H ) :   0.7509 B(  1-C ,  2-C ) :   0.8881 
B(  1-C ,  3-C ) :  -0.1206 B(  1-C ,  9-H ) :   0.6971 B(  1-C , 10-H ) :   0.7178 
B(  1-C , 11-H ) :  -0.0591 B(  2-C ,  3-C ) :   0.8713 B(  2-C ,  4-C ) :  -0.1073 
B(  2-C , 10-H ) :  -0.0567 B(  2-C , 11-H ) :   0.7059 B(  2-C , 12-H ) :   0.6950 
B(  2-C , 14-H ) :  -0.0500 B(  3-C ,  4-C ) :   0.7709 B(  3-C ,  5-Cl) :  -0.1374 
B(  3-C , 13-H ) :   0.6341 B(  3-C , 14-H ) :   0.7045 B(  3-C , 16-H ) :  -0.0607 
B(  4-C ,  5-Cl) :   0.5461 B(  4-C , 14-H ) :  -0.0622 B(  4-C , 15-H ) :   0.7309 
B(  4-C , 16-H ) :   0.7365 B(  5-Cl, 15-H ) :  -0.0603 B(  5-Cl, 16-H ) :  -0.0654 
B(  7-H ,  8-H ) :  -0.0538 B(  9-H , 10-H ) :  -0.0656 B( 11-H , 12-H ) :  -0.0649 
B( 15-H , 16-H ) :  -0.0529 


                     *******************************
                     * LOEWDIN POPULATION ANALYSIS *
                     *******************************

----------------------
LOEWDIN ATOMIC CHARGES
----------------------
   0 C :   -0.340124
   1 C :   -0.244042
   2 C :   -0.226870
   3 C :   -0.247030
   4 C :   -0.269608
   5 Cl:    0.028589
   6 H :    0.119189
   7 H :    0.114263
   8 H :    0.115399
   9 H :    0.110305
  10 H :    0.114496
  11 H :    0.112418
  12 H :    0.115772
  13 H :    0.125451
  14 H :    0.122934
  15 H :    0.125245
  16 H :    0.123614

-------------------------------
LOEWDIN REDUCED ORBITAL CHARGES
-------------------------------
  0 C s       :     2.945806  s :     2.945806
      pz      :     1.121850  p :     3.323096
      px      :     1.083548
      py      :     1.117698
      dz2     :     0.020040  d :     0.071222
      dxz     :     0.011967
      dyz     :     0.006816
      dx2y2   :     0.016062
      dxy     :     0.016338

  1 C s       :     2.907756  s :     2.907756
      pz      :     1.102165  p :     3.247489
      px      :     1.075576
      py      :     1.069748
      dz2     :     0.023805  d :     0.088797
      dxz     :     0.011817
      dyz     :     0.011561
      dx2y2   :     0.019643
      dxy     :     0.021970

  2 C s       :     2.910651  s :     2.910651
      pz      :     1.095521  p :     3.227630
      px      :     1.055094
      py      :     1.077014
      dz2     :     0.025724  d :     0.088589
      dxz     :     0.010191
      dyz     :     0.010913
      dx2y2   :     0.017474
      dxy     :     0.024287

  3 C s       :     2.914859  s :     2.914859
      pz      :     1.102205  p :     3.243994
      px      :     1.057830
      py      :     1.083959
      dz2     :     0.025707  d :     0.088177
      dxz     :     0.014847
      dyz     :     0.005991
      dx2y2   :     0.025691
      dxy     :     0.015942

  4 C s       :     2.985964  s :     2.985964
      pz      :     1.098042  p :     3.186460
      px      :     1.122284
      py      :     0.966134
      dz2     :     0.026305  d :     0.097184
      dxz     :     0.010133
      dyz     :     0.016020
      dx2y2   :     0.017964
      dxy     :     0.026763

  5 Cls       :     5.795928  s :     5.795928
      pz      :     3.812423  p :    11.141156
      px      :     3.895327
      py      :     3.433406
      dz2     :     0.004431  d :     0.034327
      dxz     :     0.001960
      dyz     :     0.011124
      dx2y2   :     0.009876
      dxy     :     0.006937

  6 H s       :     0.880811  s :     0.880811

  7 H s       :     0.885737  s :     0.885737

  8 H s       :     0.884601  s :     0.884601

  9 H s       :     0.889695  s :     0.889695

 10 H s       :     0.885504  s :     0.885504

 11 H s       :     0.887582  s :     0.887582

 12 H s       :     0.884228  s :     0.884228

 13 H s       :     0.874549  s :     0.874549

 14 H s       :     0.877066  s :     0.877066

 15 H s       :     0.874755  s :     0.874755

 16 H s       :     0.876386  s :     0.876386


---------------------------------
LOEWDIN BOND ORDERS (THRESH 0.050000)
---------------------------------
B(  0-C ,  1-C ) :   1.1299 B(  0-C ,  2-C ) :   0.0579 B(  0-C ,  6-H ) :   0.9395 
B(  0-C ,  7-H ) :   0.9407 B(  0-C ,  8-H ) :   0.9413 B(  1-C ,  2-C ) :   1.0967 
B(  1-C ,  3-C ) :   0.0516 B(  1-C ,  9-H ) :   0.9022 B(  1-C , 10-H ) :   0.9060 
B(  2-C ,  3-C ) :   1.0977 B(  2-C ,  4-C ) :   0.0526 B(  2-C , 11-H ) :   0.9041 
B(  2-C , 12-H ) :   0.9010 B(  3-C ,  4-C ) :   1.1256 B(  3-C ,  5-Cl) :   0.0686 
B(  3-C , 13-H ) :   0.8901 B(  3-C , 14-H ) :   0.8995 B(  4-C ,  5-Cl) :   1.1847 
B(  4-C , 15-H ) :   0.9264 B(  4-C , 16-H ) :   0.9241 

------------------------------------------
LOEWDIN REDUCED ORBITAL POPULATIONS PER MO
-------------------------------------------
THRESHOLD FOR PRINTING IS 0.1%%
                      0         1         2         3         4         5   
                 -100.61614  -9.93995  -9.89578  -9.88629  -9.87728  -9.86978
                   2.00000   2.00000   2.00000   2.00000   2.00000   2.00000
                  --------  --------  --------  --------  --------  --------
 0 C  s               0.0       0.0       0.0       0.0       0.0      99.7
 1 C  s               0.0       0.0       0.0       0.0      99.6       0.0
 2 C  s               0.0       0.0       0.0      99.6       0.0       0.0
 3 C  s               0.0       0.0      99.6       0.0       0.0       0.0
 4 C  s               0.0      99.7       0.0       0.0       0.0       0.0
 5 Cl s             100.0       0.0       0.0       0.0       0.0       0.0

                      6         7         8         9        10        11   
                  -9.15174  -6.98329  -6.97144  -6.97134  -0.77529  -0.71650
                   2.00000   2.00000   2.00000   2.00000   2.00000   2.00000
                  --------  --------  --------  --------  --------  --------
 0 C  s               0.0       0.0       0.0       0.0       0.1       7.4
 0 C  px              0.0       0.0       0.0       0.0       0.1       1.7
 0 C  py              0.0       0.0       0.0       0.0       0.0       0.3
 1 C  s               0.0       0.0       0.0       0.0       0.9      16.9
 1 C  pz              0.0       0.0       0.0       0.0       0.0       0.3
 1 C  px              0.0       0.0       0.0       0.0       0.1       0.1
 1 C  py              0.0       0.0       0.0       0.0       0.2       1.4
 2 C  s               0.0       0.0       0.0       0.0       2.6      20.0
 2 C  pz              0.0       0.0       0.0       0.0       0.1       0.3
 2 C  px              0.0       0.0       0.0       0.0       0.8       0.1
 2 C  py              0.0       0.0       0.0       0.0       0.0       0.7
 3 C  s               0.0       0.0       0.0       0.0       7.9       8.7
 3 C  pz              0.0       0.0       0.0       0.0       0.4       0.1
 3 C  px              0.0       0.0       0.0       0.0       0.7       2.5
 3 C  py              0.0       0.0       0.0       0.0       1.2       0.1
 4 C  s               0.0       0.0       0.0       0.0      21.8       0.0
 4 C  pz              0.0       0.0       0.0       0.0       1.6       0.0
 4 C  px              0.0       0.0       0.0       0.0       0.0       2.0
 4 C  py              0.1       0.0       0.0       0.0       2.8       2.8
 5 Cl s              99.9       0.0       0.0       0.0      43.6      13.5
 5 Cl pz              0.0      19.8      71.7       8.5       0.4       0.0
 5 Cl px              0.0       4.9      17.6      77.6       0.1       0.0
 5 Cl py              0.0      75.3      10.7      13.9       1.8       0.1
 5 Cl dyz             0.0       0.0       0.0       0.0       0.1       0.0
 6 H  s               0.0       0.0       0.0       0.0       0.0       1.2
 7 H  s               0.0       0.0       0.0       0.0       0.0       1.4
 8 H  s               0.0       0.0       0.0       0.0       0.0       1.4
 9 H  s               0.0       0.0       0.0       0.0       0.4       2.6
10 H  s               0.0       0.0       0.0       0.0       0.2       3.0
11 H  s               0.0       0.0       0.0       0.0       0.5       3.8
12 H  s               0.0       0.0       0.0       0.0       0.4       3.9
13 H  s               0.0       0.0       0.0       0.0       1.3       1.7
14 H  s               0.0       0.0       0.0       0.0       1.6       1.5
15 H  s               0.0       0.0       0.0       0.0       3.8       0.0
16 H  s               0.0       0.0       0.0       0.0       3.8       0.0

                     12        13        14        15        16        17   
                  -0.66684  -0.59870  -0.53971  -0.50989  -0.43317  -0.41331
                   2.00000   2.00000   2.00000   2.00000   2.00000   2.00000
                  --------  --------  --------  --------  --------  --------
 0 C  s              15.5      13.6       7.9       1.8       0.1       0.2
 0 C  pz              0.0       0.0       0.2       0.8       1.9       0.3
 0 C  px              0.8       0.4       4.3       3.8       0.0       4.3
 0 C  py              0.0       0.2       0.2       0.2       2.5       0.2
 1 C  s              10.4       0.1       7.2       8.4       0.0       0.8
 1 C  pz              0.0       0.0       0.0       2.7       4.7       1.6
 1 C  px              2.4       4.3       3.0       2.4       2.5       0.3
 1 C  py              0.7       4.0       0.1       4.3       4.0       3.5
 1 C  dx2y2           0.1       0.2       0.1       0.0       0.0       0.0
 2 C  s               0.4      12.3       0.2       7.7       0.2       0.1
 2 C  pz              0.0       0.0       0.2       4.5       7.9       5.4
 2 C  px              4.2       0.1       1.4       2.6       9.6       0.9
 2 C  py              3.4       0.1       5.7       3.5       1.0       0.8
 2 C  dx2y2           0.1       0.0       0.1       0.0       0.0       0.1
 3 C  s              15.1       0.2       8.3       3.7       0.2       0.0
 3 C  pz              0.2       0.2       2.1       4.7       7.7       4.8
 3 C  px              0.3       9.9       0.6       2.0       0.2       1.0
 3 C  py              0.1       0.0       2.8       0.1       1.8      20.9
 3 C  dxz             0.0       0.1       0.0       0.0       0.0       0.0
 3 C  dxy             0.0       0.1       0.0       0.0       0.0       0.0
 4 C  s               4.4      12.6       7.6       1.4       0.2       0.2
 4 C  pz              0.0       0.5       4.3       4.2       3.1       0.8
 4 C  px              2.0       0.1       1.6       1.1      18.7       4.3
 4 C  py              4.5       2.3       0.1       0.4       1.5      11.3
 4 C  dyz             0.1       0.1       0.0       0.0       0.0       0.0
 4 C  dxy             0.0       0.0       0.1       0.0       0.1       0.0
 5 Cl s              12.0       9.4       4.9       0.2       0.2       2.7
 5 Cl pz              0.0       0.4       1.1       0.6       0.0       1.4
 5 Cl px              0.0       0.1       0.1       0.1       1.5       3.5
 5 Cl py              0.3       1.6       1.7       0.2       2.3       6.8
 5 Cl dxy             0.0       0.0       0.0       0.0       0.0       0.1
 6 H  s               3.2       4.3       3.4       0.4       0.6       0.1
 7 H  s               3.2       3.5       3.4       1.7       0.7       1.9
 8 H  s               3.2       3.6       3.2       1.9       0.8       0.0
 9 H  s               2.4       0.0       3.0       5.1       3.6       1.9
10 H  s               2.0       0.0       2.3       6.6       1.2       0.0
11 H  s               0.1       3.0       0.2       7.3       1.5       1.8
12 H  s               0.0       3.7       0.0       5.1       6.2       0.0
13 H  s               3.8       0.2       4.5       1.2       0.0      10.7
14 H  s               2.8       0.0       4.3       4.8       1.7       2.3
15 H  s               1.0       4.8       3.6       0.8       8.7       4.2
16 H  s               1.0       3.6       5.4       2.7       2.5       0.2

                     18        19        20        21        22        23   
                  -0.40479  -0.37376  -0.36212  -0.34756  -0.32565  -0.31453
                   2.00000   2.00000   2.00000   2.00000   2.00000   2.00000
                  --------  --------  --------  --------  --------  --------
 0 C  pz             10.1       2.1      15.0       2.2       0.8      14.7
 0 C  px              0.5       0.3       1.2       9.5       6.9       0.2
 0 C  py              0.5      21.2       7.3       1.1      10.6       0.1
 0 C  dz2             0.0       0.0       0.1       0.1       0.0       0.3
 0 C  dyz             0.0       0.1       0.0       0.0       0.1       0.0
 0 C  dxy             0.0       0.0       0.0       0.0       0.2       0.0
 1 C  s               0.0       0.1       0.1       0.1       0.1       0.0
 1 C  pz             15.3       0.7       4.8       0.1       0.0       3.4
 1 C  px              0.3       2.4       0.1      10.1       3.8       1.1
 1 C  py              0.4       7.8       1.1       2.3       0.0       0.0
 2 C  s               0.1       0.3       0.7       0.5       0.0       0.0
 2 C  pz              4.9       0.3       5.5       3.0       2.3       7.8
 2 C  px              0.7       1.0       0.8       5.7       8.9       0.0
 2 C  py              5.0       4.8       0.8       3.6       1.6       2.7
 2 C  dz2             0.0       0.0       0.1       0.0       0.0       0.3
 2 C  dxz             0.0       0.0       0.0       0.0       0.1       0.1
 2 C  dxy             0.0       0.0       0.0       0.0       0.2       0.0
 3 C  s               0.0       0.0       0.2       0.0       0.1       0.0
 3 C  pz              2.0       4.1       6.2       0.0       0.7      17.1
 3 C  px              5.3       8.1       0.5       2.3       4.7       0.1
 3 C  py              2.7       0.7       3.4       4.3       5.3       0.1
 3 C  dz2             0.0       0.0       0.1       0.0       0.1       0.7
 3 C  dxz             0.0       0.1       0.0       0.0       0.2       0.1
 3 C  dx2y2           0.0       0.0       0.1       0.2       0.1       0.0
 3 C  dxy             0.0       0.0       0.0       0.2       0.1       0.0
 4 C  s               0.0       0.0       0.1       0.0       0.6       0.2
 4 C  pz             18.6       0.1      12.2       1.7       0.2       4.3
 4 C  px              0.6       9.7       0.0       4.0       6.2       1.0
 4 C  py              0.9       4.5       1.9       9.9       3.2       0.1
 4 C  dz2             0.1       0.0       0.1       0.0       0.1       0.2
 4 C  dx2y2           0.0       0.0       0.0       0.3       0.0       0.0
 4 C  dxy             0.0       0.0       0.0       0.2       0.0       0.0
 5 Cl s               0.4       1.2       0.0       1.1       0.5       0.0
 5 Cl pz              0.9       3.3       2.4       4.5       4.8       0.2
 5 Cl px              0.1       0.0       0.0       4.2       0.4       1.3
 5 Cl py              3.6       6.3       1.9      11.4       7.3       3.1
 6 H  s               1.2       6.8       7.5       1.0       3.3       1.3
 7 H  s               1.0       6.3       0.3       0.2       9.9       1.1
 8 H  s               3.5       0.5       6.7       2.1       0.0       9.4
 9 H  s               0.6       3.3       0.1       0.0       0.9       0.0
10 H  s               5.6       0.1       1.8       0.1       0.2       2.4
11 H  s               2.2       0.0       4.1       1.0       0.5       5.6
12 H  s               0.9       0.8       0.0       1.4       7.7       2.7
13 H  s               1.4       0.0       1.3       3.2       4.4       1.0
14 H  s               1.0       1.0       3.3       0.0       0.7      13.7
15 H  s               0.9       1.1       0.6       7.5       0.3       0.1
16 H  s               8.4       0.0       6.8       0.0       1.1       2.9

                     24        25        26        27        28        29   
                  -0.29745  -0.28544  -0.28110  -0.24364  -0.23740   0.00945
                   2.00000   2.00000   2.00000   2.00000   2.00000   0.00000
                  --------  --------  --------  --------  --------  --------
 0 C  s               0.5       0.0       0.1       0.0       0.2       0.0
 0 C  pz              0.0       7.9       0.1       0.1       0.0       0.0
 0 C  px             16.2       0.1       2.6       0.0       1.5       0.1
 0 C  py              0.2       0.1      10.9       0.0       0.0       0.0
 0 C  dz2             0.0       0.4       0.0       0.0       0.0       0.0
 0 C  dxz             0.1       0.3       0.0       0.0       0.0       0.0
 0 C  dx2y2           0.0       0.0       0.3       0.0       0.0       0.0
 0 C  dxy             0.2       0.0       0.3       0.0       0.0       0.0
 1 C  s               0.3       0.1       0.1       0.0       0.1       0.3
 1 C  pz              0.2      20.4       0.3       0.4       0.1       0.1
 1 C  px             16.4       0.5       1.8       0.1       2.2       0.1
 1 C  py              2.9       0.2      19.0       0.4       1.1       0.1
 1 C  dz2             0.1       0.8       0.0       0.0       0.0       0.0
 1 C  dxz             0.1       0.2       0.0       0.0       0.0       0.0
 1 C  dyz             0.0       0.1       0.2       0.0       0.0       0.0
 1 C  dx2y2           0.1       0.0       0.3       0.0       0.0       0.0
 1 C  dxy             0.6       0.0       0.1       0.0       0.1       0.0
 2 C  s               0.2       0.2       0.2       0.0       0.1       0.4
 2 C  pz              0.9      11.7       0.0       0.0       0.0       0.4
 2 C  px             10.1       0.1       3.7       0.0       1.7       0.1
 2 C  py              2.0       0.6      16.6       0.5       0.2       0.0
 2 C  dz2             0.1       0.7       0.0       0.0       0.0       0.0
 2 C  dyz             0.0       0.1       0.1       0.0       0.0       0.0
 2 C  dx2y2           0.1       0.0       0.3       0.0       0.0       0.0
 2 C  dxy             0.6       0.0       0.0       0.0       0.1       0.0
 3 C  s               0.8       0.0       0.1       0.5       0.1       0.7
 3 C  pz              2.5       2.2       0.0       0.1       0.0       1.0
 3 C  px              5.8       0.1       4.8       1.0       2.8       0.0
 3 C  py              1.1       0.1       7.1       2.1       0.3       0.4
 3 C  dz2             0.0       0.3       0.0       0.0       0.0       0.5
 3 C  dx2y2           0.0       0.0       0.4       0.1       0.0       0.1
 3 C  dxy             0.1       0.0       0.1       0.0       0.0       0.3
 4 C  s               0.0       0.1       0.1       0.0       0.0      13.2
 4 C  pz              0.0       0.4       0.0       2.8       0.0       4.5
 4 C  px              0.4       0.1       0.2       0.0       3.9       1.5
 4 C  py              0.1       0.1       0.7       0.8       0.2      23.2
 4 C  dz2             0.1       0.1       0.0       0.4       0.1       0.1
 4 C  dxz             0.0       0.0       0.0       0.1       0.0       0.0
 4 C  dyz             0.0       0.0       0.0       0.1       0.0       0.9
 4 C  dx2y2           0.1       0.0       0.2       0.0       0.0       0.5
 4 C  dxy             0.0       0.0       0.1       0.0       0.6       0.1
 5 Cl s               0.0       0.0       0.0       0.0       0.0       3.4
 5 Cl pz              0.1       0.3       4.2      65.8       0.0       6.1
 5 Cl px             11.4       0.8       0.0       0.7      70.3       1.1
 5 Cl py              1.3       0.0       0.3      17.3       4.3      20.6
 5 Cl dz2             0.0       0.0       0.0       0.0       0.0       0.3
 5 Cl dxz             0.0       0.0       0.0       0.0       0.0       0.2
 5 Cl dyz             0.0       0.0       0.0       0.0       0.0       3.4
 5 Cl dx2y2           0.0       0.0       0.0       0.0       0.0       2.6
 5 Cl dxy             0.0       0.0       0.0       0.0       0.0       0.7
 6 H  s               0.0       1.1       8.4       0.1       0.0       0.0
 7 H  s               4.6       2.1       2.4       0.0       0.5       0.1
 8 H  s               0.2       7.5       0.0       0.1       0.0       0.0
 9 H  s               9.6       5.2       3.7       0.1       1.9       0.3
10 H  s               0.9      17.3       0.3       0.1       0.0       0.4
11 H  s               1.2      11.3       0.0       0.1       0.1       1.1
12 H  s               5.9       2.1       1.1       0.2       1.9       0.1
13 H  s               0.2       0.4       6.9       1.3       0.1       1.0
14 H  s               1.1       3.3       0.2       0.3       0.1       4.1
15 H  s               0.0       0.1       1.2       0.4       4.5       2.4
16 H  s               0.4       0.6       0.0       3.8       0.6       3.1

                     30        31        32        33        34        35   
                   0.03607   0.05553   0.06021   0.08406   0.09154   0.10579
                   0.00000   0.00000   0.00000   0.00000   0.00000   0.00000
                  --------  --------  --------  --------  --------  --------
 0 C  s               2.3      15.0       0.0       0.7       3.6       0.2
 0 C  pz              0.2       0.1       1.7       0.3       0.9       3.7
 0 C  px              1.7       1.3       0.4       0.2       0.5       1.2
 0 C  py              0.0       0.1       0.1       3.1       0.1       5.3
 0 C  dxz             0.0       0.1       0.1       0.0       0.1       0.0
 0 C  dyz             0.0       0.0       0.0       0.0       0.0       0.2
 0 C  dxy             0.0       0.0       0.0       0.0       0.0       0.2
 1 C  s               2.6       3.1       0.3       2.9       1.4       0.6
 1 C  pz              0.0       0.6       3.9       0.0       2.3       0.1
 1 C  px              0.3       1.1       0.3       1.5       0.6       0.2
 1 C  py              0.4       0.4       0.2       0.5       2.0       0.9
 1 C  dz2             0.0       0.1       0.2       0.0       0.1       0.1
 1 C  dyz             0.1       0.0       0.1       0.1       0.2       0.1
 1 C  dx2y2           0.0       0.3       0.0       0.1       0.0       0.0
 1 C  dxy             0.1       0.1       0.0       0.4       0.0       0.3
 2 C  s               5.7       0.3       0.1       5.1       0.0       0.4
 2 C  pz              0.8       0.3       6.2       1.1       0.1       2.6
 2 C  px              1.6       0.2       0.2       2.4       1.2       2.0
 2 C  py              1.5       0.4       0.8       1.3       0.5       0.9
 2 C  dz2             0.0       0.0       0.3       0.1       0.0       0.1
 2 C  dxz             0.1       0.0       0.0       0.0       0.4       0.1
 2 C  dyz             0.0       0.2       0.1       0.0       0.0       0.1
 2 C  dx2y2           0.0       0.1       0.0       0.3       0.3       0.0
 2 C  dxy             0.1       0.4       0.0       0.1       0.1       0.1
 3 C  s               3.9       3.4       1.9       1.1       2.3       2.9
 3 C  pz              0.1       0.2       3.1       0.5       3.6       0.3
 3 C  px              0.2       0.2       0.3       0.1       0.0       2.0
 3 C  py              2.7       2.2       0.5       0.2       2.7       1.1
 3 C  dz2             0.2       0.1       0.4       0.0       0.0       0.0
 3 C  dxz             0.0       0.1       0.0       0.3       0.1       0.6
 3 C  dx2y2           0.5       0.1       0.3       0.0       0.6       0.0
 3 C  dxy             0.0       0.0       0.0       0.0       0.1       0.2
 4 C  s               1.5       2.4       1.7       4.3       0.2       4.7
 4 C  pz              4.2       0.2       5.5       0.2       6.7       1.3
 4 C  px              0.5       1.6       0.4       2.7       2.5       0.4
 4 C  py              4.7       1.3       0.4       3.7       0.5       0.3
 4 C  dz2             0.0       0.0       0.4       0.1       0.2       0.1
 4 C  dxz             0.0       0.0       0.0       0.0       0.5       0.0
 4 C  dyz             0.1       0.0       0.1       0.2       0.1       0.3
 4 C  dx2y2           0.3       0.0       0.0       0.1       0.0       0.0
 4 C  dxy             0.5       0.3       0.0       0.0       0.1       0.1
 5 Cl s               1.1       0.1       0.0       0.8       0.7       0.2
 5 Cl pz              0.3       0.0       0.1       0.2       0.0       0.1
 5 Cl px              0.6       0.0       0.0       0.1       0.2       0.5
 5 Cl py              2.2       0.2       0.0       0.1       0.8       0.0
 5 Cl dz2             0.1       0.0       0.0       0.0       0.1       0.1
 5 Cl dyz             0.0       0.0       0.1       0.0       0.0       0.0
 5 Cl dx2y2           0.1       0.0       0.0       0.2       0.7       0.0
 5 Cl dxy             0.1       0.2       0.0       0.0       0.0       0.1
 6 H  s               0.8      11.3       0.3       8.5       2.0       2.6
 7 H  s               3.2       9.8       2.4       0.9       2.0      19.6
 8 H  s               3.1       9.9       2.7       0.2       8.3       3.1
 9 H  s               2.8       2.9       3.1       7.9       2.6       4.1
10 H  s               1.7       4.9       9.0       3.3       9.9       0.6
11 H  s               8.5       0.9      10.1      10.1       0.1       5.6
12 H  s              10.1       0.6       6.9       9.8       0.0       7.0
13 H  s              13.1      11.9       2.1       2.2       2.8       7.0
14 H  s               1.3       0.3      12.4       0.1      14.4       3.8
15 H  s               8.1      10.3       0.4      20.8       8.8       1.9
16 H  s               5.4       0.6      19.9       0.8      11.6      10.1

                     36        37        38        39        40        41   
                   0.11881   0.13003   0.13727   0.14405   0.15007   0.16475
                   0.00000   0.00000   0.00000   0.00000   0.00000   0.00000
                  --------  --------  --------  --------  --------  --------
 0 C  s               0.1       7.3       0.0       0.1       0.0       0.4
 0 C  pz              7.2       0.1       0.3       0.8      11.7       0.4
 0 C  px              0.3       2.1       0.2       0.4       0.4       1.7
 0 C  py              6.7       0.8       7.1       0.2       2.2       1.1
 0 C  dz2             0.5       0.1       0.1       0.4       0.4       0.0
 0 C  dxz             0.1       0.1       0.4       0.3       0.0       0.0
 0 C  dyz             0.2       0.0       0.1       0.1       0.7       0.0
 0 C  dx2y2           0.3       0.5       0.3       0.1       0.0       0.3
 0 C  dxy             0.0       0.0       0.3       0.0       0.1       0.0
 1 C  s               0.1       7.8       3.5       3.5       0.0       0.0
 1 C  pz              0.8       0.1       4.5       5.9       4.7       1.6
 1 C  px              1.1       0.2       0.1       1.4       1.6       2.0
 1 C  py              0.2       0.6       1.1       0.9       1.4       0.2
 1 C  dz2             0.0       0.0       0.0       0.3       0.0       0.5
 1 C  dxz             0.7       0.0       0.0       0.4       0.1       0.3
 1 C  dyz             0.0       0.0       0.0       0.1       0.8       0.1
 1 C  dx2y2           0.1       0.3       0.5       0.0       0.3       0.1
 1 C  dxy             0.1       0.0       0.4       0.1       0.1       0.0
 2 C  s               0.3       5.1       4.1       3.3       0.0       1.1
 2 C  pz              0.1       0.0       1.8       4.3       2.5       0.4
 2 C  px              1.3       0.2       2.7       1.3       0.4       4.3
 2 C  py              0.3       2.1       0.3       1.4       0.3       0.6
 2 C  dz2             0.1       0.0       0.2       0.0       0.7       0.4
 2 C  dxz             0.5       0.2       0.4       0.2       0.0       0.0
 2 C  dyz             0.0       0.2       0.1       0.0       0.3       1.1
 2 C  dx2y2           0.1       0.4       0.1       0.2       0.0       0.8
 2 C  dxy             0.0       0.0       0.0       0.5       0.2       0.0
 3 C  s               0.8       7.0       0.0       0.3       0.8       4.9
 3 C  pz              2.5       1.1       1.4       0.5       0.1      13.0
 3 C  px              0.1       0.6       0.0       1.9       0.4       1.7
 3 C  py              6.0       0.8       2.6       2.4       0.3       9.1
 3 C  dz2             0.1       0.0       0.4       0.0       0.0       0.5
 3 C  dxz             0.0       0.4       0.1       0.4       0.2       0.5
 3 C  dyz             0.5       0.0       0.2       0.0       0.0       2.4
 3 C  dx2y2           0.1       0.6       0.0       0.0       0.0       0.9
 3 C  dxy             0.0       0.0       0.1       0.5       0.0       0.3
 4 C  s               0.1       0.1       0.1       0.1       1.4       2.6
 4 C  pz              0.7       2.0       0.2       0.4       0.6       2.4
 4 C  px              2.6       0.4       0.2       3.4       1.5      13.0
 4 C  py              1.1       0.3       0.4       1.5       0.2       4.1
 4 C  dz2             0.2       0.4       0.1       0.1       0.1       0.2
 4 C  dxz             0.3       0.2       0.1       0.1       0.1       1.8
 4 C  dyz             0.0       0.0       0.0       0.0       0.1       0.1
 4 C  dx2y2           0.0       0.1       0.0       0.0       0.0       0.8
 4 C  dxy             0.1       0.0       0.0       0.0       0.1       2.2
 5 Cl s               0.1       0.1       0.0       0.1       0.0       1.7
 5 Cl pz              0.0       0.1       0.0       0.1       0.0       0.3
 5 Cl px              0.1       0.2       0.0       0.3       0.2       0.1
 5 Cl py              0.1       0.5       0.0       0.6       0.0       0.4
 5 Cl dz2             0.0       0.0       0.0       0.0       0.1       0.2
 5 Cl dxz             0.3       0.0       0.1       0.0       0.3       0.9
 5 Cl dyz             0.0       0.1       0.0       0.1       0.0       0.4
 5 Cl dx2y2           0.0       0.7       0.0       0.1       0.0       0.0
 5 Cl dxy             0.0       0.1       0.0       0.4       0.0       0.4
 6 H  s              19.3       6.8      13.1       1.4       0.1       1.2
 7 H  s               0.1       4.9       5.7       0.2      15.5       1.0
 8 H  s              15.6       3.2       1.0       1.5      17.4       0.2
 9 H  s               1.1       4.4       0.4      20.9      11.6       0.1
10 H  s               1.4       5.7      17.9       2.4       6.1       2.5
11 H  s               0.0       3.2       0.1      16.2       4.5       1.8
12 H  s               0.1       6.5      16.9       3.1       3.8       1.1
13 H  s               8.8       6.0       7.1       6.8       0.1       1.8
14 H  s               8.5      10.2       3.0       0.6       0.3       6.2
15 H  s               5.1       2.0       0.5       7.3       0.3       0.7
16 H  s               3.1       3.3       0.0       0.0       4.3       1.0

                     42        43        44        45        46        47   
                   0.19665   0.21361   0.22683   0.36920   0.38012   0.38574
                   0.00000   0.00000   0.00000   0.00000   0.00000   0.00000
                  --------  --------  --------  --------  --------  --------
 0 C  s               1.0       0.4       0.6       0.5       0.2       0.7
 0 C  pz              0.4       1.2       0.4       0.0       4.1       0.8
 0 C  px             13.3      11.0       4.9      14.5       1.0       2.6
 0 C  py              2.5       0.2       3.3       0.1       5.5       3.2
 0 C  dz2             0.5       0.7       0.1       0.3       2.0       0.0
 0 C  dxz             0.1       0.9       0.1       0.4       0.0       0.2
 0 C  dyz             0.2       0.1       0.1       0.0       0.3       0.4
 0 C  dx2y2           1.6       1.0       1.4       1.5       0.1       0.9
 0 C  dxy             2.1       0.0       0.2       0.5       0.3       0.2
 1 C  s               6.5       0.2       1.3       0.6       0.3       0.4
 1 C  pz              2.2       0.7       1.7       0.0       0.7       3.7
 1 C  px              7.9      10.2       4.8      13.1       1.8       1.9
 1 C  py              5.7      20.3       0.8       2.9       1.1       1.1
 1 C  dz2             2.0       0.1       0.3       0.1       0.0       2.3
 1 C  dxz             0.3       0.2       0.4       0.1       0.3       0.1
 1 C  dyz             0.2       1.2       0.7       0.0       0.1       0.0
 1 C  dx2y2           0.0       5.2       0.1       0.9       0.0       0.0
 1 C  dxy             1.4       0.0       0.0       0.2       0.2       0.6
 2 C  s               6.2       0.9       0.2       0.8       0.6       0.8
 2 C  pz              4.8       1.7       2.6       0.3       1.2       3.8
 2 C  px              2.9       2.3      12.3       1.3      13.0       0.1
 2 C  py              3.5      19.1       1.5       2.0       0.8       6.7
 2 C  dz2             1.1       0.3       0.3       0.0       0.2       2.6
 2 C  dxz             0.1       0.0       1.4       0.1       1.2       0.3
 2 C  dyz             0.1       1.5       0.1       0.3       0.2       0.7
 2 C  dx2y2           0.0       3.6       0.9       0.1       0.0       0.9
 2 C  dxy             1.8       0.0       0.2       1.6       0.8       0.0
 3 C  s               1.7       0.7       0.2       1.2       0.3       1.1
 3 C  pz              0.7       1.7       0.3       0.1       2.8       0.9
 3 C  px              6.3       1.2      21.2       0.1       6.0       8.0
 3 C  py              2.1       1.2       0.8       3.6       0.2       2.9
 3 C  dz2             0.6       0.1       0.0       0.4       2.2       0.6
 3 C  dxz             0.1       0.3       1.6       0.0       0.3       1.6
 3 C  dyz             0.2       0.0       0.0       0.1       0.0       0.1
 3 C  dx2y2           0.4       0.2       0.6       1.9       1.1       0.0
 3 C  dxy             2.0       0.2       2.0       0.2       0.1       0.6
 4 C  s               0.0       0.0       0.8       2.4       0.0       1.5
 4 C  pz              0.5       0.5       4.7       3.5       8.1       2.6
 4 C  px              0.3       0.3       3.2       5.3       2.4      11.3
 4 C  py              0.2       0.3       1.9       5.4       1.4       0.5
 4 C  dz2             0.0       0.1       0.0       0.1       3.0       0.2
 4 C  dxz             0.1       0.0       1.1       0.1       0.1       0.4
 4 C  dyz             0.3       0.0       0.7       0.1       0.8       0.1
 4 C  dx2y2           0.2       0.1       0.0       0.3       0.1       0.0
 4 C  dxy             0.0       0.2       0.9       2.1       0.0       0.5
 5 Cl s               0.0       0.4       0.3       3.8       1.9       5.3
 5 Cl pz              0.0       0.0       0.2       0.1       0.5       0.1
 5 Cl px              0.0       0.5       0.5       1.0       0.0       0.1
 5 Cl dz2             0.0       0.1       1.0       0.0       0.2       0.0
 5 Cl dxz             0.0       0.0       0.0       0.0       0.5       1.1
 5 Cl dyz             0.0       0.1       0.8       1.7       2.2       0.0
 5 Cl dx2y2           0.0       0.5       0.0       3.1       0.0       0.1
 5 Cl dxy             0.0       0.1       0.3       0.6       0.5       0.2
 6 H  s               2.0       0.4       1.7       0.6       3.8       3.9
 7 H  s               1.0       1.6       0.9       1.6       0.4       0.3
 8 H  s               1.1       1.3       0.4       0.4       3.3       0.1
 9 H  s               2.3       0.1       0.4       0.8       0.2       0.1
10 H  s               1.3       0.3       1.8       0.1       0.2       5.5
11 H  s               1.9       1.1       3.3       0.2       0.2       7.1
12 H  s               1.3       0.9       1.0       3.9       3.9       3.9
13 H  s               0.8       0.3       0.5       6.3       0.2       0.6
14 H  s               2.6       1.4       1.0       0.7       5.1       1.2
15 H  s               0.3       0.1       1.4       5.7       3.0       2.4
16 H  s               0.9       0.7       3.8       0.1       8.9       0.2

                     48        49        50        51        52        53   
                   0.39851   0.41199   0.42770   0.44804   0.51461   0.53477
                   0.00000   0.00000   0.00000   0.00000   0.00000   0.00000
                  --------  --------  --------  --------  --------  --------
 0 C  s               0.0       0.1       0.5       0.2       1.3       4.3
 0 C  pz              5.6       9.1       8.9       0.1       6.2       0.4
 0 C  px              1.6       0.4       2.2       5.4       5.6      16.3
 0 C  py              2.3       3.0       0.6       8.7       0.7       0.3
 0 C  dz2             1.1       1.4       2.4       0.2       0.9       0.1
 0 C  dxz             1.5       0.6       0.1       0.3       0.2       0.0
 0 C  dyz             0.5       0.9       0.0       1.7       0.0       0.3
 0 C  dx2y2           0.0       0.4       0.3       0.0       0.1       0.0
 0 C  dxy             0.6       1.4       0.4       0.2       0.0       0.1
 1 C  s               0.0       0.2       1.0       1.1       0.2       0.6
 1 C  pz              6.0       0.6       0.3       0.2       3.3       1.2
 1 C  px              0.3       1.4       0.9       3.1       0.4       4.1
 1 C  py              0.9       7.4       6.7       6.5       3.4       0.1
 1 C  dz2             2.2       0.3       0.2       0.2       1.9       0.0
 1 C  dxz             0.7       1.2       0.4       0.2       0.2       0.2
 1 C  dyz             0.0       1.3       0.9       1.4       0.0       0.2
 1 C  dx2y2           0.0       0.3       0.9       0.1       0.0       1.3
 1 C  dxy             0.3       1.8       0.2       0.1       0.0       0.3
 2 C  s               0.3       0.8       0.1       1.3       0.8       0.8
 2 C  pz              0.4       2.8       5.0       3.9       0.1       0.4
 2 C  px              1.1       0.1       3.2       1.0       0.0       2.6
 2 C  py              2.1       4.9       7.7       0.2       1.1       1.6
 2 C  dz2             0.1       1.7       1.5       0.8       0.1       0.0
 2 C  dxz             0.1       0.1       0.0       0.1       0.0       0.1
 2 C  dyz             0.7       0.0       0.2       0.0       0.8       1.1
 2 C  dx2y2           0.0       0.4       0.5       0.5       0.1       0.0
 2 C  dxy             0.0       0.2       0.1       0.0       0.0       0.3
 3 C  s               1.0       0.8       0.4       0.1       0.2       1.0
 3 C  pz              6.6       2.2       0.2       0.2       0.6       0.8
 3 C  px              3.5       0.2       0.7       1.2       8.3       2.0
 3 C  py              5.1       3.3       1.2       4.7       1.3       3.0
 3 C  dz2             0.6       0.6       0.1       0.5       0.1       0.6
 3 C  dxz             0.5       0.4       0.2       0.0       0.1       0.3
 3 C  dyz             0.8       0.2       0.0       2.0       0.0       0.0
 3 C  dx2y2           0.0       0.0       0.0       1.3       0.1       0.0
 3 C  dxy             0.3       0.0       1.0       0.1       0.0       0.2
 4 C  s               0.1       0.0       0.7       1.4       1.9       0.5
 4 C  pz              0.6       0.2       8.1       9.2       0.3       5.0
 4 C  px              2.6       0.6       1.0       0.3       0.6       1.6
 4 C  py             14.8       5.8      13.9       2.7       0.5       1.5
 4 C  dz2             0.4       0.0       0.1       2.7       0.0       0.8
 4 C  dxz             0.8       0.3       0.2       0.4       0.1       0.8
 4 C  dyz             1.1       0.5       1.4       0.0       0.6       0.0
 4 C  dx2y2           0.7       0.1       1.5       0.1       0.7       0.1
 4 C  dxy             0.1       0.0       0.2       0.1       0.2       3.0
 5 Cl s               0.7       0.3       0.4       1.5      35.0       0.3
 5 Cl pz              0.5       0.2       0.0       0.7       0.3       0.0
 5 Cl px              0.4       0.1       0.3       0.1       1.2       0.8
 5 Cl py              0.1       0.0       0.0       1.0       1.0       0.2
 5 Cl dz2             2.1       1.3       0.1       2.5       0.5       2.8
 5 Cl dxz             0.0       0.0       0.0       0.6       0.4       0.5
 5 Cl dyz             0.1       0.0       1.7       4.0       0.5       0.3
 5 Cl dx2y2           0.7       0.1       0.4       1.6       0.3       7.4
 5 Cl dxy             1.2       0.4       1.3       0.2       0.0      13.2
 6 H  s               0.1       1.8       3.1       1.0       0.1       0.3
 7 H  s               6.7       8.6       0.2       2.8       0.4       2.0
 8 H  s               4.9       5.1       6.7       0.0       1.6       0.2
 9 H  s               2.8      11.5       0.7       1.4       0.7       1.0
10 H  s               6.9       2.5       0.8       0.1       1.5       1.0
11 H  s               0.3       5.1       3.3       2.4       0.3       0.1
12 H  s               0.2       1.6       0.1       0.4       1.1       4.2
13 H  s               0.3       0.3       0.1       5.9       0.2       0.7
[...]
14 H  s               0.2       0.1       0.2       0.3       0.8       1.2
15 H  s               0.1       3.3       0.0       2.6       0.2       0.3
16 H  s               1.4       0.3       2.1       0.2       2.2       1.3

                    102       103       104       105       106       107   
                   2.20688   2.20917   2.26388   2.30930   2.43485   2.49747
                   0.00000   0.00000   0.00000   0.00000   0.00000   0.00000
                  --------  --------  --------  --------  --------  --------
 0 C  s               0.0       0.0       0.1       0.2       0.6       0.0
 0 C  pz              0.2       0.0       0.0       0.0       0.1       0.0
 0 C  px              0.0       0.0       0.1       0.4       1.2       0.0
 0 C  dz2            15.9       0.1       9.2       1.5       3.1       0.0
 0 C  dxz            12.2       0.0       2.9       2.3       2.0       0.3
 0 C  dyz             0.1       1.5       0.0       0.3       0.0       0.0
 0 C  dx2y2           0.3       0.1       0.0       0.1       7.4       0.1
 0 C  dxy             0.1       5.3       1.5      13.4       0.9       0.8
 1 C  s               0.0       0.0       0.2       0.3       2.4       0.4
 1 C  pz              0.0       0.2       0.2       0.3       0.4       0.1
 1 C  px              0.1       0.1       0.2       1.0       1.0       0.1
 1 C  py              0.1       0.0       0.0       0.1       0.9       0.6
 1 C  dz2             1.3      16.2       0.9       6.9       8.8       3.6
 1 C  dxz            13.7       1.9       6.0       0.0       2.2       0.4
 1 C  dyz             0.0       7.1       2.6       1.4       5.5       0.3
 1 C  dx2y2           1.7       4.9       0.1       1.6       0.1       2.9
 1 C  dxy             0.1       0.0       3.9       7.7      11.6       4.1
 2 C  s               0.0       0.8       0.3       0.1       0.8       0.6
 2 C  pz              0.1       0.2       0.6       0.1       0.4       0.1
 2 C  px              0.1       0.6       0.3       0.7       0.1       0.1
 2 C  py              0.1       0.3       0.1       0.1       0.7       1.1
 2 C  dz2             0.0       0.0      18.3       9.9       4.3       2.3
 2 C  dxz             0.0       0.0       0.2      15.3       3.5       0.3
 2 C  dyz             1.4      10.2       2.4       0.1       1.2       7.1
 2 C  dx2y2           0.3       7.3       0.4       0.1       5.9       0.8
 2 C  dxy             1.2       0.2       8.4       0.5       8.1       0.0
 3 C  s               0.0       0.9       0.3       0.0       0.5       1.4
 3 C  pz              0.6       0.6       0.5       0.0       0.1       0.5
 3 C  px              0.1       0.0       0.2       0.1       0.0       1.5
 3 C  py              0.1       1.5       0.2       0.4       0.1       0.8
 3 C  dz2             8.2       1.0      14.4       7.0       4.9       1.8
 3 C  dxz             0.1       0.3       0.5       4.5       0.1      12.1
 3 C  dyz             0.3      10.9       3.7       3.0       0.2       3.8
 3 C  dx2y2          10.0       2.5       1.3       1.7       7.7       5.9
 3 C  dxy             0.4       2.7       0.5       5.4       0.8      12.2
 4 C  s               0.0       0.2       0.1       0.1       0.1       1.4
 4 C  pz              0.1       0.1       0.0       0.0       0.1       0.7
 4 C  px              0.1       0.1       0.0       0.2       0.1       2.2
 4 C  py              0.5       0.4       0.2       0.0       0.1       0.8
 4 C  dz2             2.2       9.7       0.0       0.0       1.7       0.5
 4 C  dxz             2.1       0.5       1.7       0.2       1.3       9.6
 4 C  dyz             0.0       0.2       1.2       0.3       2.2       4.9
 4 C  dx2y2           6.9       3.3       5.5       6.7       0.8       2.0
 4 C  dxy             8.9       1.3       2.5       0.3       1.7       9.7
 5 Cl s               0.1       0.1       0.3       0.0       0.0       0.1
 5 Cl pz              0.1       0.0       0.1       0.0       0.0       0.0
 5 Cl py              0.1       0.0       0.2       0.0       0.0       0.1
 5 Cl dyz             0.3       0.0       0.4       0.1       0.0       0.0
 5 Cl dx2y2           0.2       0.0       0.2       0.0       0.0       0.1
 5 Cl dxy             0.0       0.2       0.0       0.0       0.0       0.1
 6 H  s               0.5       0.2       0.2       0.4       0.1       0.0
 7 H  s               0.6       0.5       0.0       1.1       0.1       0.0
 8 H  s               2.3       0.0       1.1       0.1       0.2       0.0
 9 H  s               0.6       1.0       0.1       0.2       1.3       0.1
10 H  s               0.3       2.1       0.1       0.7       0.5       0.3
11 H  s               0.0       0.0       2.1       1.4       0.3       0.1
12 H  s               0.3       0.3       1.4       0.7       0.8       0.1
13 H  s               1.3       1.0       0.3       0.3       0.0       0.5
14 H  s               1.3       0.1       1.6       0.7       0.3       0.3
15 H  s               1.7       0.3       0.3       0.1       0.3       0.3
16 H  s               0.5       0.8       0.0       0.0       0.1       0.1

                    108       109   
                   2.58299   2.65673
                   0.00000   0.00000
                  --------  --------
 0 C  s               0.6       1.2
 0 C  px              1.4       1.4
 0 C  py              0.1       0.3
 0 C  dz2             0.9       1.7
 0 C  dxz             2.7       0.3
 0 C  dyz             0.2       0.2
 0 C  dx2y2           9.4       3.4
 0 C  dxy             0.0       3.7
 1 C  s               0.5       0.0
 1 C  px              0.6       2.3
 1 C  py              0.4       1.8
 1 C  dz2             2.5       0.0
 1 C  dxz             0.1       3.4
 1 C  dyz             2.7       2.2
 1 C  dx2y2           9.6      20.5
 1 C  dxy            10.7       0.6
 2 C  s               1.5       0.0
 2 C  px              0.6       2.8
 2 C  py              0.0       2.0
 2 C  dz2             4.3       0.0
 2 C  dxz             0.6       4.1
 2 C  dyz             1.0       2.2
 2 C  dx2y2           2.8      21.9
 2 C  dxy            20.3       0.1
 3 C  s               0.5       0.5
 3 C  px              1.6       2.6
 3 C  py              0.0       0.1
 3 C  dz2             1.0       1.1
 3 C  dxz             6.1       2.7
 3 C  dx2y2          12.0       1.5
 3 C  dxy             0.5      11.0
 4 C  s               0.0       0.3
 4 C  pz              0.0       0.1
 4 C  px              0.1       0.6
 4 C  dz2             1.3       0.0
 4 C  dxz             0.2       1.2
 4 C  dyz             0.5       0.1
 4 C  dx2y2           0.7       0.5
 4 C  dxy             0.0       1.1
 6 H  s               0.3       0.1
10 H  s               0.1       0.0
11 H  s               0.2       0.0
12 H  s               0.3       0.0
13 H  s               0.3       0.0
16 H  s               0.1       0.0


                      *****************************
                      * MAYER POPULATION ANALYSIS *
                      *****************************

  NA   - Mulliken gross atomic population
  ZA   - Total nuclear charge
  QA   - Mulliken gross atomic charge
  VA   - Mayer's total valence
  BVA  - Mayer's bonded valence
  FA   - Mayer's free valence

  ATOM       NA         ZA         QA         VA         BVA        FA
  0 C      6.2604     6.0000    -0.2604     4.0120     4.0120     0.0000
  1 C      6.1987     6.0000    -0.1987     4.1401     4.1401    -0.0000
  2 C      6.1861     6.0000    -0.1861     4.1346     4.1346    -0.0000
  3 C      6.1291     6.0000    -0.1291     4.0413     4.0413     0.0000
  4 C      6.1731     6.0000    -0.1731     4.0047     4.0047     0.0000
  5 Cl    17.1514    17.0000    -0.1514     1.1256     1.1256     0.0000
  6 H      0.8967     1.0000     0.1033     0.9498     0.9498     0.0000
  7 H      0.9062     1.0000     0.0938     0.9578     0.9578     0.0000
  8 H      0.9062     1.0000     0.0938     0.9570     0.9570     0.0000
  9 H      0.9042     1.0000     0.0958     0.9702     0.9702     0.0000
 10 H      0.9156     1.0000     0.0844     0.9543     0.9543     0.0000
 11 H      0.9200     1.0000     0.0800     0.9532     0.9532    -0.0000
 12 H      0.9164     1.0000     0.0836     0.9497     0.9497     0.0000
 13 H      0.9077     1.0000     0.0923     0.9461     0.9461    -0.0000
 14 H      0.8997     1.0000     0.1003     0.9679     0.9679    -0.0000
 15 H      0.8628     1.0000     0.1372     0.9410     0.9410     0.0000
 16 H      0.8658     1.0000     0.1342     0.9465     0.9465    -0.0000

  Mayer bond orders larger than 0.100000
B(  0-C ,  1-C ) :   1.1497 B(  0-C ,  6-H ) :   0.9536 B(  0-C ,  7-H ) :   0.9545 
B(  0-C ,  8-H ) :   0.9547 B(  1-C ,  2-C ) :   1.1353 B(  1-C ,  9-H ) :   0.9165 
B(  1-C , 10-H ) :   0.9266 B(  2-C ,  3-C ) :   1.1298 B(  2-C , 11-H ) :   0.9214 
B(  2-C , 12-H ) :   0.9215 B(  3-C ,  4-C ) :   1.0904 B(  3-C , 13-H ) :   0.9077 
B(  3-C , 14-H ) :   0.9158 B(  4-C ,  5-Cl) :   1.0294 B(  4-C , 15-H ) :   0.9333 
B(  4-C , 16-H ) :   0.9281 

-------
TIMINGS
-------

Total SCF time: 0 days 0 hours 0 min 5 sec 

Total time                  ....       5.322 sec
Sum of individual times     ....       4.953 sec  ( 93.1%)

SCF preparation             ....       0.143 sec  (  2.7%)
Fock matrix formation       ....       4.163 sec  ( 78.2%)
  Startup                   ....       0.046 sec  (  1.1% of F)
  Split-RI-J                ....       1.196 sec  ( 28.7% of F)
  XC integration            ....       2.549 sec  ( 61.2% of F)
    XC Preparation          ....       0.000 sec  (  0.0% of XC)
    Basis function eval.    ....       0.815 sec  ( 32.0% of XC)
    Density eval.           ....       0.264 sec  ( 10.4% of XC)
    XC-Functional eval.     ....       0.237 sec  (  9.3% of XC)
    XC-Potential eval.      ....       0.462 sec  ( 18.1% of XC)
Diagonalization             ....       0.000 sec  (  0.0%)
Density matrix formation    ....       0.117 sec  (  2.2%)
Total Energy calculation    ....       0.028 sec  (  0.5%)
Population analysis         ....       0.053 sec  (  1.0%)
Orbital Transformation      ....       0.052 sec  (  1.0%)
Orbital Orthonormalization  ....       0.000 sec  (  0.0%)
DIIS solution               ....       0.322 sec  (  6.0%)
  MO trafo                  ....       0.000 sec  (  0.0 % of DIIS)
  Orb grad                  ....       0.000 sec  (  0.0 % of DIIS)
  Energy W gradient         ....       0.000 sec  (  0.0 % of DIIS)
  DIIS error                ....       0.002 sec  (  0.6 % of DIIS)
  DIIS work                 ....       0.285 sec  ( 88.6 % of DIIS)
  Form Q                    ....       0.000 sec  (  0.0 % of DIIS)
  Form QpQm                 ....       0.000 sec  (  0.0 % of DIIS)
  Exp/Cayley                ....       0.000 sec  (  0.0 % of DIIS)
  Orb update                ....       0.000 sec  (  0.0 % of DIIS)
  Wake-sleep                ....       0.015 sec  (  4.7 % of DIIS)
SOSCF solution              ....       0.076 sec  (  1.4%)
  MO trafo                  ....       0.034 sec  ( 45.0 % of SOSCF)
  Orb grad                  ....       0.001 sec  (  1.7 % of SOSCF)
  Rot update                ....       0.029 sec  ( 37.4 % of SOSCF)
  Step                      ....       0.012 sec  ( 15.7 % of SOSCF)
Finished LeanSCF after   5.4 sec

Maximum memory used throughout the entire LEANSCF-calculation: 10.6 MB


-------------------------------------------------------------------------------
                          DFT DISPERSION CORRECTION                            
                                                                               
                                DFTD4 V3.4.0                                   
-------------------------------------------------------------------------------
The PBE functional is recognized
Active option DFTDOPT                   ...         5   

-------------------------   ----------------
Dispersion correction           -0.013342864
-------------------------   ----------------

------------------   -----------------
gCP correction             0.071004813
------------------   -----------------

-------------------------   --------------------
FINAL SINGLE POINT ENERGY      -656.510541861360
-------------------------   --------------------


------------------------------------------------------------------------------
                              ORCA PROPERTY CALCULATIONS
------------------------------------------------------------------------------

GBWName                                 ... sp.gbw
Number of atoms                         ...     17
Number of basis functions               ...    110
Max core memory                         ...   1024 MB

Electric properties:
Dipole moment                           ... YES
Quadrupole moment                       ...  NO
Static polarizability (Dipole/Dipole)   ...  NO
Static polarizability (Dipole/Quad.)    ...  NO
Static polarizability (Quad./Quad.)     ...  NO
Static polarizability (Velocity)        ...  NO

Atomic electric properties:
Dipole moment                           ...  NO
Quadrupole moment                       ...  NO
Static polarizability                   ...  NO

Choice of electric origin               ... Center of mass
Position of electric origin             ...     0.000021     0.000008    -0.000003

General magnetic properties:
Magnetizability                         ...  NO

EPR properties:
g-Tensor (aka g-matrix)                 ...  NO
Zero-Field splitting spin-orbit         ...  NO
Zero-field splitting spin-spin          ...  NO
Hyperfine couplings                     ...  NO (   0 nuclei)
Quadrupole couplings                    ...  NO (   0 nuclei)
Contact density                         ...  NO (   0 nuclei)

NMR properties:
Chemical shifts                         ...  NO (   0 nuclei)
Spin-rotation constants                 ...  NO (   0 nuclei)
Spin-spin couplings                     ...  NO (   0 nuclei,    0 pairs)

Choice of magnetic origin               ... GIAO
Position of magnetic origin             ...     0.000000     0.000000     0.000000

Properties with geometric perturbations:
SCF Hessian                             ...  NO
IR spectrum                             ...  NO
VCD spectrum                            ...  NO
X-ray spectroscopy properties:
SCF XES/XAS/RIXS spectra                ...  NO


-------------
DIPOLE MOMENT
-------------

Method             : SCF
Type of density    : Electron Density
Multiplicity       :   1
Irrep              :   0
Energy             :  -656.5682038109172254 Eh
Relativity type    : 
Basis              : AO
                                X                 Y                 Z
Electronic contribution:    -13.042411970      -4.604182818       1.760511829
Nuclear contribution   :     13.204172635       5.219354432      -2.007824315
                        -----------------------------------------
Total Dipole Moment    :      0.161760665       0.615171614      -0.247312486
                        -----------------------------------------
Magnitude (a.u.)       :      0.682470580
Magnitude (Debye)      :      1.734702356



--------------------
Rotational spectrum 
--------------------
 
Rotational constants in cm-1:             0.148335             0.048414             0.038941 
Rotational constants in MHz :          4446.983902          1451.428131          1167.423145 

Dipole components along the rotational axes: 
x,y,z [a.u.] :     0.186228    -0.639841    -0.147269 
x,y,z [Debye]:     0.473355    -1.626348    -0.374328 

 

Dipole moment calculation done in   0.0 sec 

Maximum memory used throughout the entire PROP-calculation: 6.7 MB

--------------------------------
SUGGESTED CITATIONS FOR THIS RUN
--------------------------------

Below you find a list of papers that are relevant to this ORCA run
We neither can nor want to force you to cite these papers, but we appreciate if you do
You receive ORCA, which is the product of decades of hard work by many enthusiastic individuals, for free
The only thing we kindly ask in return is that you cite our papers,
We deeply appreciate it, if you show your appreciation for ORCA by not just citing the generic ORCA reference.

Please note that relegating all ORCA citations to the supporting information does *not* help us.
SI sections are not indexed - citations you put there will not count into any citation statistics
But we need these citations in order to attract the funding resources that allow us to do what we are doing

Therefore, if you are a happy ORCA user, please consider citing a few of the papers listed below in the main body of your paper

In addition to the list printed below, the program has created the file sp.bibtex that contains the list in bibtex format
You can import this file easily into all common literature databanks and citation aid programs


List of essential papers. We consider these as the minimum necessary citations

  1. Neese,F.
     Software update: the ORCA program system, version 5.0
     WIRES Comput. Molec. Sci., 2022 12(1)e1606
     doi.org/10.1002/wcms.1606

List of papers to cite with high priority. The work reported in these papers was absolutely
necessary for this run to complete.
Our perspective: the developers of density functionals and basis sets usually get cited in chemistry papers
Good! But without the algorithms to do something with them, the functionals or basis sets would not do anything.
Hence, in our opinion, the algorithm design and method developments papers are equally worthy of getting cited

  1. Neese,F.
     An improvement of the resolution of the identity approximation for the formation of the Coulomb matrix
     J. Comp. Chem., 2003 24(14)1740-1747
     doi.org/10.1002/jcc.10318
  2. Neese,F.
     The SHARK Integral Generation and Digestion System
     J. Comp. Chem., 2022  1-16
     doi.org/10.1002/jcc.26942
  3. Caldeweyher,E.; Bannwarth,C.; Grimme,S.
     Extension of the D3 dispersion coefficient model
     J. Chem. Phys., 2017 147 034112-XXXX
     doi.org/10.1063/1.4993215
  4. Caldeweyher,E.; Ehlert,S.; Hansen,A.; Neugebauer,H.; Spicher,S.; Bannwarth,C.; Grimme,S.
     A generally applicable atomic-charge dependent London dispersion correction
     J. Chem. Phys., 2019 150 154122-XXXX
     doi.org/10.1063/1.5090222
  5. Caldeweyher,E.; Mewes,J.; Ehlert,S.; Grimme,S.
     Extension and evaluation of the D4 London-dispersion model for periodic systems
     Phys. Chem. Chem. Phys., 2020 22(16)8499-8512
     doi.org/10.1039/D0CP00502A

List of suggested additional citations. These are papers that are important in the 'surrounding' of 
of this run, or papers that preceded the highly important papers. If you like your results we are grateful for a citation.

  1. Neese,F.
     The ORCA program system
     WIRES Comput. Molec. Sci., 2012 2(1)73-78
     doi.org/10.1002/wcms.81
  2. Neese,F.
     Software update: the ORCA program system, version 4.0
     WIRES Comput. Molec. Sci., 2018 8(1)1-6
     doi.org/10.1002/wcms.1327
  3. Neese,F.; Wennmohs,F.; Becker,U.; Riplinger,C.
     The ORCA quantum chemistry program package
     J. Chem. Phys., 2020 152 Art. No. L224108
     doi.org/10.1063/5.0004608

List of optional additional citations

  1. Neese,F.
     Approximate second-order SCF convergence for spin unrestricted wavefunctions
     Chem. Phys. Lett., 2000 325(1-3)93-98
     doi.org/10.1016/s0009-2614(00)00662-x

Timings for individual modules:

Sum of individual times          ...        6.682 sec (=   0.111 min)
Startup calculation              ...        0.605 sec (=   0.010 min)   9.1 %
SCF iterations                   ...        5.985 sec (=   0.100 min)  89.6 %
Property calculations            ...        0.091 sec (=   0.002 min)   1.4 %
                             ****ORCA TERMINATED NORMALLY****
TOTAL RUN TIME: 0 days 0 hours 0 minutes 7 seconds 319 msec
