      -----------------------------------------------------------      
     |                   =====================                   |     
     |                           x T B                           |     
     |                   =====================                   |     
     |                         S. Grimme                         |     
     |          Mulliken Center for Theoretical Chemistry        |     
     |                    University of Bonn                     |     
      -----------------------------------------------------------      

   * xtb version 6.7.1 (edcfbbe) compiled by 'albert@albert-system' on 2024-07-22

   xtb is free software: you can redistribute it and/or modify it under
   the terms of the GNU Lesser General Public License as published by
   the Free Software Foundation, either version 3 of the License, or
   (at your option) any later version.
   
   xtb is distributed in the hope that it will be useful,
   but WITHOUT ANY WARRANTY; without even the implied warranty of
   MERCHANTABILITY or FITNESS FOR A PARTICULAR PURPOSE.  See the
   GNU Lesser General Public License for more details.
   
   Cite this work as:
   * C. Bannwarth, E. Caldeweyher, S. Ehlert, A. Hansen, P. Pracht,
     J. Seibert, S. Spicher, S. Grimme, WIREs Comput. Mol. Sci., 2020, 11,
     e01493. DOI: 10.1002/wcms.1493
   
   for GFN2-xTB:
   * C. Bannwarth, S. Ehlert and S. Grimme., J. Chem. Theory Comput., 2019,
     15, 1652-1671. DOI: 10.1021/acs.jctc.8b01176
   for GFN1-xTB:
   * S. Grimme, C. Bannwarth, P. Shushkov, J. Chem. Theory Comput., 2017,
     13, 1989-2009. DOI: 10.1021/acs.jctc.7b00118
   for GFN0-xTB:
   * P. Pracht, E. Caldeweyher, S. Ehlert, S. Grimme, ChemRxiv, 2019, preprint.
     DOI: 10.26434/chemrxiv.8326202.v1
   for GFN-FF:
   * S. Spicher and S. Grimme, Angew. Chem. Int. Ed., 2020, 59, 15665-15673.
     DOI: 10.1002/anie.202004239
   
   for ALPB and GBSA implicit solvation:
   * S. Ehlert, M. Stahn, S. Spicher, S. Grimme, J. Chem. Theory Comput.,
     2021, 17, 4250-4261. DOI: 10.1021/acs.jctc.1c00471
   
   for ddCOSMO and CPCM-X implicit solvation:
   * M. Stahn, S. Ehlert, S. Grimme, J. Phys. Chem. A,
     2023, XX, XXXX-XXXX. DOI: 10.1021/acs.jpca.3c04382
   
   for DFT-D4:
   * E. Caldeweyher, C. Bannwarth and S. Grimme, J. Chem. Phys., 2017,
     147, 034112. DOI: 10.1063/1.4993215
   * E. Caldeweyher, S. Ehlert, A. Hansen, H. Neugebauer, S. Spicher,
     C. Bannwarth and S. Grimme, J. Chem. Phys., 2019, 150, 154122.
     DOI: 10.1063/1.5090222
   * E. Caldeweyher, J.-M. Mewes, S. Ehlert and S. Grimme, Phys. Chem. Chem. Phys.
     2020, 22, 8499-8512. DOI: 10.1039/D0CP00502A
   
   for sTDA-xTB:
   * S. Grimme and C. Bannwarth, J. Chem. Phys., 2016, 145, 054103.
     DOI: 10.1063/1.4959605
   
   in the mass-spec context:
   * V. Asgeirsson, C. Bauer and S. Grimme, Chem. Sci., 2017, 8, 4879.
     DOI: 10.1039/c7sc00601b
   * J. Koopman and S. Grimme, ACS Omega 2019, 4, 12, 15120-15133.
     DOI: 10.1021/acsomega.9b02011
   
   for metadynamics refer to:
   * S. Grimme, J. Chem. Theory Comput., 2019, 155, 2847-2862
     DOI: 10.1021/acs.jctc.9b00143
   
   for SPH calculations refer to:
   * S. Spicher and S. Grimme, J. Chem. Theory Comput., 2021, 17, 1701-1714
     DOI: 10.1021/acs.jctc.0c01306
   
   for ONIOM refer to:
   * C. Plett, A. Katbashev, S. Ehlert, S. Grimme, M. Bursch,
     Phys. Chem. Chem. Phys., 2023, 25, 17860-17868. DOI: 10.1039/D3CP02178E
   
   for DIPRO refer to:
   * J. Kohn, N. Gildemeister, S. Grimme, D. Fazzi, A. Hansen,
     J. Chem. Phys., 2023, just accepted.
   
   for PTB refer to:
   * S. Grimme, M. Mueller, A. Hansen, J. Chem. Phys., 2023, 158, 124111.
     DOI: 10.1063/5.0137838
   
   with help from (in alphabetical order)
   P. Atkinson, C. Bannwarth, F. Bohle, G. Brandenburg, E. Caldeweyher
   M. Checinski, S. Dohm, S. Ehlert, S. Ehrlich, I. Gerasimov, C. Hölzer
   A. Katbashev, J. Kohn, J. Koopman, C. Lavigne, S. Lehtola, F. März, M. Müller,
   F. Musil, H. Neugebauer, J. Pisarek, C. Plett, P. Pracht, F. Pultar,
   J. Seibert, P. Shushkov, S. Spicher, M. Stahn, M. Steiner, T. Strunk,
   J. Stückrath, T. Rose, and J. Unsleber
   
 * started run on 2025/04/11 at 15:53:55.115     
   ID    Z sym.   atoms
    1    6 C      1-4, 7, 8
    2    8 O      5, 6
    3    1 H      9-20

           -------------------------------------------------
          |                Calculation Setup                |
           -------------------------------------------------

          program call               : /srv/scratch/z5358697/.xtb/bin/xtb gas.coord --gfn2 --sp --chrg 0 --norestart --parallel 1
          hostname                   : k061
          coordinate file            : gas.coord
          omp threads                :                     1


           -------------------------------------------------
          |                 G F N 2 - x T B                 |
           -------------------------------------------------

        Reference                      10.1021/acs.jctc.8b01176
      * Hamiltonian:
        H0-scaling (s, p, d)           1.850000    2.230000    2.230000
        zeta-weighting                 0.500000
      * Dispersion:
        s8                             2.700000
        a1                             0.520000
        a2                             5.000000
        s9                             5.000000
      * Repulsion:
        kExp                           1.500000    1.000000
        rExp                           1.000000
      * Coulomb:
        alpha                          2.000000
        third order                    shell-resolved
        anisotropic                    true
        a3                             3.000000
        a5                             4.000000
        cn-shift                       1.200000
        cn-exp                         4.000000
        max-rad                        5.000000


          ...................................................
          :                      SETUP                      :
          :.................................................:
          :  # basis functions                  44          :
          :  # atomic orbitals                  44          :
          :  # shells                           28          :
          :  # electrons                        48          :
          :  max. iterations                   250          :
          :  Hamiltonian                  GFN2-xTB          :
          :  restarted?                      false          :
          :  GBSA solvation                  false          :
          :  PC potential                    false          :
          :  electronic temp.          300.0000000     K    :
          :  accuracy                    1.0000000          :
          :  -> integral cutoff          0.2500000E+02      :
          :  -> integral neglect         0.1000000E-07      :
          :  -> SCF convergence          0.1000000E-05 Eh   :
          :  -> wf. convergence          0.1000000E-03 e    :
          :  Broyden damping             0.4000000          :
          :  net charge                          0          :
          :  unpaired electrons                  0          :
          ...................................................

 iter      E             dE          RMSdq      gap      omega  full diag
   1    -27.3549738 -0.273550E+02  0.384E+00    5.94       0.0  T
   2    -27.4259700 -0.709962E-01  0.198E+00    4.71       1.0  T
   3    -27.4292110 -0.324101E-02  0.111E+00    5.19       1.0  T
   4    -27.4313993 -0.218822E-02  0.184E-01    4.90       1.0  T
   5    -27.4316905 -0.291240E-03  0.721E-02    4.98       1.0  T
   6    -27.4316962 -0.570758E-05  0.238E-02    4.97       1.0  T
   7    -27.4316975 -0.127680E-05  0.773E-03    4.97       2.9  T
   8    -27.4316976 -0.154026E-06  0.188E-03    4.97      11.9  T
   9    -27.4316976 -0.555915E-08  0.864E-04    4.97      25.9  T
  10    -27.4316976 -0.206133E-08  0.273E-04    4.97      81.8  T

   *** convergence criteria satisfied after 10 iterations ***

         #    Occupation            Energy/Eh            Energy/eV
      -------------------------------------------------------------
         1        2.0000           -0.7410563             -20.1652
       ...           ...                  ...                  ...
        18        2.0000           -0.4712145             -12.8224
        19        2.0000           -0.4639843             -12.6257
        20        2.0000           -0.4610951             -12.5470
        21        2.0000           -0.4482476             -12.1974
        22        2.0000           -0.4405635             -11.9883
        23        2.0000           -0.4353442             -11.8463
        24        2.0000           -0.4087064             -11.1215 (HOMO)
        25                         -0.2260725              -6.1517 (LUMO)
        26                         -0.0049885              -0.1357
        27                          0.0989248               2.6919
        28                          0.1058343               2.8799
        29                          0.1112084               3.0261
       ...                                ...                  ...
        44                          0.6274891              17.0748
      -------------------------------------------------------------
                  HL-Gap            0.1826339 Eh            4.9697 eV
             Fermi-level           -0.3173894 Eh           -8.6366 eV

 SCC (total)                   0 d,  0 h,  0 min,  0.030 sec
 SCC setup                      ...        0 min,  0.000 sec (  0.876%)
 Dispersion                     ...        0 min,  0.000 sec (  0.556%)
 classical contributions        ...        0 min,  0.000 sec (  0.146%)
 integral evaluation            ...        0 min,  0.003 sec (  9.527%)
 iterations                     ...        0 min,  0.021 sec ( 70.151%)
 molecular gradient             ...        0 min,  0.005 sec ( 18.140%)
 printout                       ...        0 min,  0.000 sec (  0.536%)

         :::::::::::::::::::::::::::::::::::::::::::::::::::::
         ::                     SUMMARY                     ::
         :::::::::::::::::::::::::::::::::::::::::::::::::::::
         :: total energy             -27.115042207970 Eh    ::
         :: gradient norm              0.028272651875 Eh/a0 ::
         :: HOMO-LUMO gap              4.969720601684 eV    ::
         ::.................................................::
         :: SCC energy               -27.431699111527 Eh    ::
         :: -> isotropic ES            0.048204012789 Eh    ::
         :: -> anisotropic ES          0.002306602548 Eh    ::
         :: -> anisotropic XC          0.007762068849 Eh    ::
         :: -> dispersion             -0.011191779093 Eh    ::
         :: repulsion energy           0.316656903557 Eh    ::
         :: add. restraining           0.000000000000 Eh    ::
         :: total charge              -0.000000000000 e     ::
         :::::::::::::::::::::::::::::::::::::::::::::::::::::

           -------------------------------------------------
          |                Property Printout                |
           -------------------------------------------------

    * Orbital Energies and Occupations

         #    Occupation            Energy/Eh            Energy/eV
      -------------------------------------------------------------
         1        2.0000           -0.7410563             -20.1652
       ...           ...                  ...                  ...
        12        2.0000           -0.5227168             -14.2238
        13        2.0000           -0.5192352             -14.1291
        14        2.0000           -0.5027103             -13.6794
        15        2.0000           -0.4922357             -13.3944
        16        2.0000           -0.4861078             -13.2277
        17        2.0000           -0.4776007             -12.9962
        18        2.0000           -0.4712145             -12.8224
        19        2.0000           -0.4639843             -12.6257
        20        2.0000           -0.4610951             -12.5470
        21        2.0000           -0.4482476             -12.1974
        22        2.0000           -0.4405635             -11.9883
        23        2.0000           -0.4353442             -11.8463
        24        2.0000           -0.4087064             -11.1215 (HOMO)
        25                         -0.2260725              -6.1517 (LUMO)
        26                         -0.0049885              -0.1357
        27                          0.0989248               2.6919
        28                          0.1058343               2.8799
        29                          0.1112084               3.0261
        30                          0.1322234               3.5980
        31                          0.1430018               3.8913
        32                          0.1485610               4.0426
        33                          0.1508626               4.1052
        34                          0.1617625               4.4018
        35                          0.1707803               4.6472
       ...                                ...                  ...
        44                          0.6274891              17.0748
      -------------------------------------------------------------
                  HL-Gap            0.1826339 Eh            4.9697 eV
             Fermi-level           -0.3173894 Eh           -8.6366 eV

     #   Z          covCN         q      C6AA      α(0)
     1   6 C        3.753    -0.106    22.585     6.777
     2   6 C        3.803    -0.047    21.405     6.587
     3   6 C        3.805    -0.091    22.234     6.713
     4   6 C        2.713     0.356    20.952     7.493
     5   8 O        0.856    -0.427    22.219     6.320
     6   8 O        1.704    -0.263    18.364     5.786
     7   6 C        3.692     0.078    19.452     6.311
     8   6 C        3.751    -0.115    22.771     6.805
     9   1 H        0.925     0.041     2.430     2.438
    10   1 H        0.925     0.040     2.450     2.448
    11   1 H        0.925     0.041     2.430     2.438
    12   1 H        0.924     0.043     2.411     2.428
    13   1 H        0.924     0.040     2.451     2.448
    14   1 H        0.925     0.061     2.188     2.313
    15   1 H        0.925     0.067     2.124     2.279
    16   1 H        0.924     0.049     2.330     2.387
    17   1 H        0.924     0.063     2.164     2.300
    18   1 H        0.925     0.057     2.237     2.339
    19   1 H        0.925     0.059     2.207     2.323
    20   1 H        0.925     0.053     2.280     2.361

 Mol. C6AA /au·bohr⁶  :       3018.410140
 Mol. C8AA /au·bohr⁸  :      64015.324064
 Mol. α(0) /au        :         81.293347


Wiberg/Mayer (AO) data.
largest (>0.10) Wiberg bond orders for each atom

 ---------------------------------------------------------------------------
     #   Z sym  total        # sym  WBO       # sym  WBO       # sym  WBO
 ---------------------------------------------------------------------------
     1   6 C    3.995 --     2 C    1.018    10 H    0.988    11 H    0.987
                             9 H    0.986
     2   6 C    3.994 --     1 C    1.018     3 C    0.980    13 H    0.979
                            12 H    0.979
     3   6 C    3.993 --     2 C    0.980     4 C    0.973    15 H    0.971
                            14 H    0.969
     4   6 C    3.915 --     5 O    1.733     6 O    1.153     3 C    0.973
     5   8 O    2.017 --     4 C    1.733     6 O    0.175
     6   8 O    2.316 --     4 C    1.153     7 C    0.930     5 O    0.175
     7   6 C    3.925 --     8 C    1.019    16 H    0.969    17 H    0.968
                             6 O    0.930
     8   6 C    3.991 --     7 C    1.019    18 H    0.986    19 H    0.985
                            20 H    0.983
     9   1 H    0.997 --     1 C    0.986
    10   1 H    0.998 --     1 C    0.988
    11   1 H    0.998 --     1 C    0.987
    12   1 H    0.998 --     2 C    0.979
    13   1 H    0.998 --     2 C    0.979
    14   1 H    0.996 --     3 C    0.969
    15   1 H    0.995 --     3 C    0.971
    16   1 H    0.997 --     7 C    0.969
    17   1 H    0.996 --     7 C    0.968
    18   1 H    0.997 --     8 C    0.986
    19   1 H    0.996 --     8 C    0.985
    20   1 H    0.996 --     8 C    0.983
 ---------------------------------------------------------------------------

Topologies differ in total number of bonds
Writing topology from bond orders to xtbtopo.mol

molecular dipole:
                 x           y           z       tot (Debye)
 q only:        0.173      -0.861       0.482
   full:        0.173      -0.908       0.497       2.668
molecular quadrupole (traceless):
                xx          xy          yy          xz          yz          zz
 q only:        9.020      -0.973      -6.523      -0.690       2.966      -2.497
  q+dip:        7.141      -1.105      -5.888      -0.657       4.142      -1.253
   full:        7.804      -0.833      -6.524      -0.576       4.531      -1.280


           -------------------------------------------------
          | TOTAL ENERGY              -27.115042207970 Eh   |
          | GRADIENT NORM               0.028272651875 Eh/α |
          | HOMO-LUMO GAP               4.969720601684 eV   |
           -------------------------------------------------

------------------------------------------------------------------------
 * finished run on 2025/04/11 at 15:53:55.182     
------------------------------------------------------------------------
 total:
 * wall-time:     0 d,  0 h,  0 min,  0.065 sec
 *  cpu-time:     0 d,  0 h,  0 min,  0.028 sec
 * ratio c/w:     0.427 speedup
 SCF:
 * wall-time:     0 d,  0 h,  0 min,  0.030 sec
 *  cpu-time:     0 d,  0 h,  0 min,  0.016 sec
 * ratio c/w:     0.543 speedup

