22
 energy: -292.319695489677 gnorm: 0.001921662645 xtb: 6.7.1 (edcfbbe)
C            2.40724671878793        0.63077618230705        0.60591749281842
C            1.13737520053689       -0.10349763990176        0.18248072973375
C            1.29536664378584       -0.64252661755415       -1.23613794352791
N            0.00602014578592        0.84156450221736        0.30878300901547
C           -1.37300615078503        0.28730564727053        0.25936008507966
C           -1.56630037659589       -1.02432140869299        1.02572992051138
C           -1.92157665750416        0.16838974787824       -1.16374413613664
H            2.30612324248060        1.04944726424471        1.61428049855217
H            3.25869339195498       -0.05640826608937        0.61098111055478
H            2.63182954044612        1.45044490313383       -0.08631307788049
H            1.01543054129944       -0.96699143893516        0.85853659944449
H            1.34720955063727        0.18010935412462       -1.95877585139796
H            0.47631469860418       -1.30419086632933       -1.52395940371498
H            2.22219567063583       -1.22085509204505       -1.30866868641298
H            0.10086860084792        1.24567798505634        1.23629924056712
H           -1.98448512280183        1.04861198889862        0.76198144124212
H           -1.05443012761863       -1.85907546456224        0.53472122581755
H           -1.18952837177517       -0.94351273820118        2.05172695695341
H           -2.63141512324907       -1.27381265425867        1.07557612197409
H           -1.75729052521312        1.09143061645294       -1.72917029511433
H           -3.00014731851078       -0.01836368191530       -1.12465365546347
H           -1.46901754596116       -0.65892410364414       -1.71739899578698
22
 energy: -292.319715249698 gnorm: 0.000617925028 xtb: 6.7.1 (edcfbbe)
C            2.40796119113638        0.63230339158322        0.60544879704223
C            1.13864960890449       -0.10278296041697        0.18352072387996
C            1.29514072134323       -0.64599577155550       -1.23322423571308
N            0.00654595609528        0.84282151979358        0.30744962128258
C           -1.37302752174687        0.28711830653670        0.25899949324174
C           -1.56543293853191       -1.02573335296506        1.02245323177541
C           -1.92251883113280        0.17093846465683       -1.16344489456227
H            2.30809568782304        1.04895333791531        1.61433182443983
H            3.26096140471333       -0.05334125499340        0.60795837050465
H            2.63126855744431        1.45375761008154       -0.08491532084928
H            1.01590876298712       -0.96392945669468        0.86204729438992
H            1.34158092351673        0.17321242054130       -1.96033618418669
H            0.47770597206514       -1.31306170652561       -1.51575241278934
H            2.22517979399448       -1.22018853042228       -1.30569205096052
H            0.10102591715521        1.24762112368438        1.23485172275168
H           -1.98387433665757        1.04682752288979        0.76408609255258
H           -1.05604713342835       -1.86052257745660        0.52899620533296
H           -1.18813770221041       -0.94812008194722        2.04825609372167
H           -2.63128390758691       -1.27331970808077        1.07250788744522
H           -1.76016126797760        1.09474224869352       -1.72701315149596
H           -3.00127341684755       -0.01529195892043       -1.12392961386603
H           -1.47079165507560       -0.65472764504684       -1.71904950344584
22
 energy: -292.319741525090 gnorm: 0.001380283299 xtb: 6.7.1 (edcfbbe)
C            2.40918782662908        0.63708614584021        0.60376252142376
C            1.14062929181255       -0.10107735643762        0.18732476435779
C            1.29298934989330       -0.65705259218837       -1.22446285182838
N            0.00774409972506        0.84624462913633        0.30599776576467
C           -1.37250861619259        0.28760934300503        0.25809011622904
C           -1.56265114999110       -1.02965986957015        1.01327885756992
C           -1.92404613145179        0.17928116543018       -1.16360724954119
H            2.31371817907765        1.04974889548394        1.61463440541115
H            3.26507900559679       -0.04535719658941        0.59919360896459
H            2.62661739858159        1.46189746082834       -0.08464186398098
H            1.01762088316277       -0.95646548516774        0.87284158277012
H            1.32422103628413        0.15378273650522       -1.96201979714256
H            0.48036615328724       -1.33678040776345       -1.49286466411403
H            2.22927158333736       -1.22144899450611       -1.29851889595477
H            0.10078154701966        1.25251877970365        1.23305459925965
H           -1.98251352254413        1.04334122975156        0.76966417684451
H           -1.05763187279435       -1.86260112378208        0.51216256643129
H           -1.18281735524508       -0.96064854880581        2.03859487641458
H           -2.62919070566071       -1.27507804575347        1.06475906222981
H           -1.76588859387641        1.10713899501052       -1.72141676068035
H           -3.00265223014960       -0.00942121442008       -1.12347727018702
H           -1.47085252611473       -0.64176975198566       -1.72480654212698
22
 energy: -292.319756248409 gnorm: 0.001802518275 xtb: 6.7.1 (edcfbbe)
C            2.41070530067922        0.64165605538501        0.60050450372105
C            1.14163765138815       -0.10044440804762        0.19295837060120
C            1.28843291199992       -0.66745797824891       -1.21504480368946
N            0.00810515769956        0.84712444391966        0.30677030979480
C           -1.37246688516244        0.28820933799227        0.25788854021656
C           -1.56008171361650       -1.03401064783805        1.00469081944030
C           -1.92350411374576        0.18821547460705       -1.16461205067131
H            2.31993352801641        1.05359081303925        1.61208103249973
H            3.26894526632613       -0.03769821029139        0.59045359787480
H            2.62082967231173        1.46767357350257       -0.08869368785870
H            1.01997288938337       -0.95008809703902        0.88587574545400
H            1.30685035601486        0.13592935405391       -1.96131965956346
H            0.47933441189644       -1.35682828792276       -1.47024900206311
H            2.22895965033249       -1.22448541878055       -1.29047283682485
H            0.09980884732377        1.25582358743309        1.23291685241674
H           -1.98255906798101        1.04046894840406        0.77452235684142
H           -1.05673919899868       -1.86346548467456        0.49603571580846
H           -1.17732315285360       -0.97239412574962        2.02936073472986
H           -2.62655432222762       -1.27928449712842        1.05737364244600
H           -1.76982610540749        1.12100519089989       -1.71548029935399
H           -3.00114706175171       -0.00596195955323       -1.12594392236047
H           -1.46584213779282       -0.62628102427024       -1.73208000054773
22
 energy: -292.319772047459 gnorm: 0.001099494573 xtb: 6.7.1 (edcfbbe)
C            2.41138892445407        0.64671337187128        0.59597267340496
C            1.14139247574594       -0.09976552329429        0.19855176843523
C            1.28297197613777       -0.67810685429923       -1.20558418477408
N            0.00845552347269        0.84804219171395        0.31060766790530
C           -1.37122543025189        0.28843739097967        0.25812855453797
C           -1.55846461440731       -1.03868863253924        0.99659911208866
C           -1.92143614694919        0.19709986944028       -1.16562394479203
H            2.32606692779740        1.06195411232818        1.60674059075291
H            3.27091408437472       -0.03067780645863        0.58266161299747
H            2.61450263176608        1.47080517451494       -0.09748531150320
H            1.02354321426957       -0.94453568969807        0.89824702340593
H            1.29266012025636        0.11948471905621       -1.95769346197009
H            0.47553348498972       -1.37276900506407       -1.45015266102898
H            2.22533694729495       -1.23130973950786       -1.28251480637813
H            0.09871703262346        1.25814661633377        1.23619049950147
H           -1.98260985694645        1.03694884875065        0.77880721663608
H           -1.05440297912301       -1.86388860759393        0.48190732668854
H           -1.17399575461403       -0.98308587999532        2.02093007306554
H           -2.62441087276734       -1.28564365832325        1.04934233059593
H           -1.77302971766144        1.13599965104702       -1.70781173683223
H           -2.99770342622432       -0.00508345027492       -1.13022736346153
H           -1.45673412115845       -0.60877287015461       -1.74006399009918
22
 energy: -292.319788356630 gnorm: 0.000938291482 xtb: 6.7.1 (edcfbbe)
C            2.41280489028116        0.65264996752398        0.58841991720967
C            1.14068650895688       -0.09930701596622        0.20616041100776
C            1.27539480704349       -0.68847564773114       -1.19442003901021
N            0.00764218781401        0.84655915993500        0.31745026497990
C           -1.37070767059560        0.28823624106508        0.25921362149700
C           -1.55728566550628       -1.04468449779328        0.98846889777981
C           -1.91705567731313        0.20770840729722       -1.16730142839482
H            2.33326982183474        1.07759096788583        1.59588814687612
H            3.27300754787658       -0.02354350907083        0.57559249822140
H            2.60861411692039        1.47034362464897       -0.11475808715773
H            1.02967235240390       -0.93921511233737        0.91328625982373
H            1.28135245154591        0.10321882949831       -1.95204780223474
H            0.46769951410386       -1.38493635128589       -1.42949977015608
H            2.21690027093394       -1.24213432468861       -1.27128256140715
H            0.09612958382927        1.25713425210676        1.24279705283758
H           -1.98465909021867        1.03236794916514        0.78352763207792
H           -1.05033450969999       -1.86509367610747        0.46911584962939
H           -1.17371537308946       -0.99505014917214        2.01349912623331
H           -2.62247518306509       -1.29429019878592        1.03844869957270
H           -1.77619531276931        1.15497859847053       -1.69773109395980
H           -2.99113949368067       -0.00649353495906       -1.13664540022005
H           -1.44213697939185       -0.58625133225051       -1.75066112748827
22
 energy: -292.319797798832 gnorm: 0.001380544480 xtb: 6.7.1 (edcfbbe)
C            2.41370287034230        0.65747653491952        0.58226177520573
C            1.14084351803964       -0.09885431536495        0.21078311435820
C            1.27084832864089       -0.69488694173748       -1.18731985249635
N            0.00772070064572        0.84570018972221        0.32348099202874
C           -1.36949283862752        0.28706209615319        0.26026766166507
C           -1.55787991170965       -1.04942380859996        0.98309011129337
C           -1.91413799292737        0.21457588684602       -1.16757850910103
H            2.33720755792537        1.09349717899165        1.58533656320371
H            3.27355690056229       -0.01918515701890        0.57402422332922
H            2.60715725502286        1.46738364209718       -0.13056998372865
H            1.03511473102166       -0.93585248441929        0.92250480720119
H            1.27806125217711        0.09378818170308       -1.94826220950626
H            0.46069114998893       -1.38998207633502       -1.41772298955930
H            2.21054150887187       -1.25186421164942       -1.26281629270168
H            0.09483784357384        1.25466024239109        1.24959385065327
H           -1.98522897861713        1.02810001999176        0.78703043404379
H           -1.04753101618676       -1.86697215589925        0.46262389557361
H           -1.17775747450759       -1.00283003051360        2.00959659786085
H           -2.62280366395567       -1.30093639392787        1.02867732927722
H           -1.77939409615942        1.16783455953792       -1.68886593337764
H           -2.98649759598645       -0.00815919572724       -1.14080652719017
H           -1.43209180850342       -0.56981358305880       -1.75781333885581
22
 energy: -292.319804398880 gnorm: 0.000893473966 xtb: 6.7.1 (edcfbbe)
C            2.41444685083749        0.65936043033895        0.57917039216084
C            1.14159216934426       -0.09844573007876        0.21201840772552
C            1.27000657131967       -0.69659079780336       -1.18497505923486
N            0.00725434961064        0.84488093712911        0.32603716030796
C           -1.36990205962937        0.28597452349988        0.26093669771911
C           -1.55823429423660       -1.05162839068348        0.98155703757936
C           -1.91349920058535        0.21720784759126       -1.16726790019749
H            2.33719396070060        1.10383425767046        1.57831486459114
H            3.27399391092834       -0.01798609554936        0.57758562124488
H            2.60968124743397        1.46312942007054       -0.13999272879143
H            1.03816369962570       -0.93460377530283        0.92495140065985
H            1.28156801464903        0.09152741012849       -1.94663515221208
H            0.45699816146376       -1.38838193529542       -1.41576880791795
H            2.20760023075297       -1.25766826397852       -1.25903009528268
H            0.09370900374115        1.25187394612895        1.25315572362949
H           -1.98579892967682        1.02581979158993        0.78907259967858
H           -1.04544434679054       -1.86851425304868        0.46245013528666
H           -1.18240367564590       -1.00577332264983        2.00969178779670
H           -2.62320294609549       -1.30394916509630        1.02278859561582
H           -1.78184939651494        1.17275234006245       -1.68454398480097
H           -2.98509956165773       -0.00856065431217       -1.14142967545196
H           -1.42930591005970       -0.56293848209774       -1.76057327278236
22
 energy: -292.319807356352 gnorm: 0.000411236766 xtb: 6.7.1 (edcfbbe)
C            2.41560769315663        0.66298904573902        0.57490140945761
C            1.14298492146300       -0.09824902213403        0.21495540163600
C            1.26821385354658       -0.70115467963538       -1.17997492608795
N            0.00762580962250        0.84492635121552        0.32807713965125
C           -1.36973237084596        0.28475244438250        0.26172387947249
C           -1.55791606672855       -1.05565311497800        0.97673667449741
C           -1.91374729431701        0.22261219995219       -1.16632227867660
H            2.33770220572090        1.11904597708190        1.56868906732645
H            3.27499979186284       -0.01481243855839        0.58233110077881
H            2.61289360343433        1.45840366121845       -0.15312592138437
H            1.04182822926051       -0.93133355057480        0.93194170452496
H            1.28321703490582        0.08393111391226       -1.94526721772540
H            0.45236117671438       -1.39105282376325       -1.40829126765620
H            2.20396091616028       -1.26597608324693       -1.25169852056930
H            0.09314070852220        1.24983958254254        1.25631245731648
H           -1.98569739171006        1.02187372999969        0.79346514667479
H           -1.04175416647986       -1.87037831764470        0.45744970984274
H           -1.18721705512731       -1.01241882970271        2.00682811635284
H           -2.62282194987997       -1.30979894578732        1.01243927792190
H           -1.78725397498422        1.18255184235496       -1.67669931235786
H           -2.98445560804584       -0.00789172059000       -1.14128350904458
H           -1.42647340007599       -0.55088197783173       -1.76567882704314
22
 energy: -292.319807356352 gnorm: 0.000411236766 xtb: 6.7.1 (edcfbbe)
C            2.41560769315663        0.66298904573902        0.57490140945761
C            1.14298492146300       -0.09824902213403        0.21495540163600
C            1.26821385354658       -0.70115467963538       -1.17997492608795
N            0.00762580962250        0.84492635121552        0.32807713965125
C           -1.36973237084596        0.28475244438250        0.26172387947249
C           -1.55791606672855       -1.05565311497800        0.97673667449741
C           -1.91374729431701        0.22261219995219       -1.16632227867660
H            2.33770220572090        1.11904597708190        1.56868906732645
H            3.27499979186284       -0.01481243855839        0.58233110077881
H            2.61289360343433        1.45840366121845       -0.15312592138437
H            1.04182822926051       -0.93133355057480        0.93194170452496
H            1.28321703490582        0.08393111391226       -1.94526721772540
H            0.45236117671438       -1.39105282376325       -1.40829126765620
H            2.20396091616028       -1.26597608324693       -1.25169852056930
H            0.09314070852220        1.24983958254254        1.25631245731648
H           -1.98569739171006        1.02187372999969        0.79346514667479
H           -1.04175416647986       -1.87037831764470        0.45744970984274
H           -1.18721705512731       -1.01241882970271        2.00682811635284
H           -2.62282194987997       -1.30979894578732        1.01243927792190
H           -1.78725397498422        1.18255184235496       -1.67669931235786
H           -2.98445560804584       -0.00789172059000       -1.14128350904458
H           -1.42647340007599       -0.55088197783173       -1.76567882704314
