      -----------------------------------------------------------      
     |                   =====================                   |     
     |                           x T B                           |     
     |                   =====================                   |     
     |                         S. Grimme                         |     
     |          Mulliken Center for Theoretical Chemistry        |     
     |                    University of Bonn                     |     
      -----------------------------------------------------------      

   * xtb version 6.7.1 (edcfbbe) compiled by 'albert@albert-system' on 2024-07-22

   xtb is free software: you can redistribute it and/or modify it under
   the terms of the GNU Lesser General Public License as published by
   the Free Software Foundation, either version 3 of the License, or
   (at your option) any later version.
   
   xtb is distributed in the hope that it will be useful,
   but WITHOUT ANY WARRANTY; without even the implied warranty of
   MERCHANTABILITY or FITNESS FOR A PARTICULAR PURPOSE.  See the
   GNU Lesser General Public License for more details.
   
   Cite this work as:
   * C. Bannwarth, E. Caldeweyher, S. Ehlert, A. Hansen, P. Pracht,
     J. Seibert, S. Spicher, S. Grimme, WIREs Comput. Mol. Sci., 2020, 11,
     e01493. DOI: 10.1002/wcms.1493
   
   for GFN2-xTB:
   * C. Bannwarth, S. Ehlert and S. Grimme., J. Chem. Theory Comput., 2019,
     15, 1652-1671. DOI: 10.1021/acs.jctc.8b01176
   for GFN1-xTB:
   * S. Grimme, C. Bannwarth, P. Shushkov, J. Chem. Theory Comput., 2017,
     13, 1989-2009. DOI: 10.1021/acs.jctc.7b00118
   for GFN0-xTB:
   * P. Pracht, E. Caldeweyher, S. Ehlert, S. Grimme, ChemRxiv, 2019, preprint.
     DOI: 10.26434/chemrxiv.8326202.v1
   for GFN-FF:
   * S. Spicher and S. Grimme, Angew. Chem. Int. Ed., 2020, 59, 15665-15673.
     DOI: 10.1002/anie.202004239
   
   for ALPB and GBSA implicit solvation:
   * S. Ehlert, M. Stahn, S. Spicher, S. Grimme, J. Chem. Theory Comput.,
     2021, 17, 4250-4261. DOI: 10.1021/acs.jctc.1c00471
   
   for ddCOSMO and CPCM-X implicit solvation:
   * M. Stahn, S. Ehlert, S. Grimme, J. Phys. Chem. A,
     2023, XX, XXXX-XXXX. DOI: 10.1021/acs.jpca.3c04382
   
   for DFT-D4:
   * E. Caldeweyher, C. Bannwarth and S. Grimme, J. Chem. Phys., 2017,
     147, 034112. DOI: 10.1063/1.4993215
   * E. Caldeweyher, S. Ehlert, A. Hansen, H. Neugebauer, S. Spicher,
     C. Bannwarth and S. Grimme, J. Chem. Phys., 2019, 150, 154122.
     DOI: 10.1063/1.5090222
   * E. Caldeweyher, J.-M. Mewes, S. Ehlert and S. Grimme, Phys. Chem. Chem. Phys.
     2020, 22, 8499-8512. DOI: 10.1039/D0CP00502A
   
   for sTDA-xTB:
   * S. Grimme and C. Bannwarth, J. Chem. Phys., 2016, 145, 054103.
     DOI: 10.1063/1.4959605
   
   in the mass-spec context:
   * V. Asgeirsson, C. Bauer and S. Grimme, Chem. Sci., 2017, 8, 4879.
     DOI: 10.1039/c7sc00601b
   * J. Koopman and S. Grimme, ACS Omega 2019, 4, 12, 15120-15133.
     DOI: 10.1021/acsomega.9b02011
   
   for metadynamics refer to:
   * S. Grimme, J. Chem. Theory Comput., 2019, 155, 2847-2862
     DOI: 10.1021/acs.jctc.9b00143
   
   for SPH calculations refer to:
   * S. Spicher and S. Grimme, J. Chem. Theory Comput., 2021, 17, 1701-1714
     DOI: 10.1021/acs.jctc.0c01306
   
   for ONIOM refer to:
   * C. Plett, A. Katbashev, S. Ehlert, S. Grimme, M. Bursch,
     Phys. Chem. Chem. Phys., 2023, 25, 17860-17868. DOI: 10.1039/D3CP02178E
   
   for DIPRO refer to:
   * J. Kohn, N. Gildemeister, S. Grimme, D. Fazzi, A. Hansen,
     J. Chem. Phys., 2023, just accepted.
   
   for PTB refer to:
   * S. Grimme, M. Mueller, A. Hansen, J. Chem. Phys., 2023, 158, 124111.
     DOI: 10.1063/5.0137838
   
   with help from (in alphabetical order)
   P. Atkinson, C. Bannwarth, F. Bohle, G. Brandenburg, E. Caldeweyher
   M. Checinski, S. Dohm, S. Ehlert, S. Ehrlich, I. Gerasimov, C. Hölzer
   A. Katbashev, J. Kohn, J. Koopman, C. Lavigne, S. Lehtola, F. März, M. Müller,
   F. Musil, H. Neugebauer, J. Pisarek, C. Plett, P. Pracht, F. Pultar,
   J. Seibert, P. Shushkov, S. Spicher, M. Stahn, M. Steiner, T. Strunk,
   J. Stückrath, T. Rose, and J. Unsleber
   
 * started run on 2025/04/11 at 13:50:56.533     
   ID    Z sym.   atoms
    1    6 C      1, 2, 4-9, 11-17
    2    1 H      3, 20-31
    3    9 F      10
    4    8 O      18, 19

           -------------------------------------------------
          |                Calculation Setup                |
           -------------------------------------------------

          program call               : /software/projects/pawsey0265/mwang1/xtb/bin/xtb xtb_rrho.coord --gfn2 --bhess vtight --chrg 0 --enso --norestart -I rrho-xcontrol-inp --parallel 1 --alpb water
          hostname                   : nid002050
          coordinate file            : xtb_rrho.coord
          omp threads                :                     1


           -------------------------------------------------
          |                 G F N 2 - x T B                 |
           -------------------------------------------------

        Reference                      10.1021/acs.jctc.8b01176
      * Hamiltonian:
        H0-scaling (s, p, d)           1.850000    2.230000    2.230000
        zeta-weighting                 0.500000
      * Dispersion:
        s8                             2.700000
        a1                             0.520000
        a2                             5.000000
        s9                             5.000000
      * Repulsion:
        kExp                           1.500000    1.000000
        rExp                           1.000000
      * Coulomb:
        alpha                          2.000000
        third order                    shell-resolved
        anisotropic                    true
        a3                             3.000000
        a5                             4.000000
        cn-shift                       1.200000
        cn-exp                         4.000000
        max-rad                        5.000000

      * Solvation model:               ALPB
        Solvent                        water
        Parameter file                 internal GFN2-xTB/ALPB
        Dielectric constant                8.0200E+01
        Reference state                gsolv [1 M gas/solution]
        Free energy shift                  1.0808E-03 Eh       6.7819E-01 kcal/mol
        Temperature                        2.9815E+02 K
        Density                            1.0000E+00 kg/L
        Solvent mass                       1.8000E+01 g/mol
        Interaction kernel             P16
        Born radius scaling (c1)           1.4744E+00
        Born radii integrator          GBOBC
        Born offset                        0.0000E+00 a0       0.0000E+00 AA
        H-bond correction              true
        Ion screening                  false
        Surface tension                    1.0000E-05 Eh       1.5569E+01 dyn/cm
        Grid points                               974 per atom

          ...................................................
          :                      SETUP                      :
          :.................................................:
          :  # basis functions                  85          :
          :  # atomic orbitals                  85          :
          :  # shells                           49          :
          :  # electrons                        92          :
          :  max. iterations                   250          :
          :  Hamiltonian                  GFN2-xTB          :
          :  restarted?                      false          :
          :  GBSA solvation                   true          :
          :  PC potential                    false          :
          :  electronic temp.          300.0000000     K    :
          :  accuracy                    1.0000000          :
          :  -> integral cutoff          0.2500000E+02      :
          :  -> integral neglect         0.1000000E-07      :
          :  -> SCF convergence          0.1000000E-05 Eh   :
          :  -> wf. convergence          0.1000000E-03 e    :
          :  Broyden damping             0.4000000          :
          :  net charge                          0          :
          :  unpaired electrons                  0          :
          ...................................................

 iter      E             dE          RMSdq      gap      omega  full diag
   1    -52.3000490 -0.523000E+02  0.459E+00    3.62       0.0  T
   2    -52.3523138 -0.522648E-01  0.261E+00    3.35       1.0  T
   3    -52.3472927  0.502112E-02  0.122E+00    3.56       1.0  T
   4    -52.3597689 -0.124762E-01  0.262E-01    3.52       1.0  T
   5    -52.3607863 -0.101737E-02  0.884E-02    3.51       1.0  T
   6    -52.3608564 -0.701227E-04  0.377E-02    3.50       1.0  T
   7    -52.3608614 -0.503337E-05  0.144E-02    3.50       1.2  T
   8    -52.3608630 -0.155462E-05  0.517E-03    3.50       3.5  T
   9    -52.3608632 -0.231368E-06  0.219E-03    3.50       8.2  T
  10    -52.3608633 -0.292899E-07  0.106E-03    3.50      17.0  T
  11    -52.3608633 -0.438477E-08  0.520E-04    3.50      34.5  T
  12    -52.3608633 -0.257101E-08  0.212E-04    3.50      84.7  T

   *** convergence criteria satisfied after 12 iterations ***

         #    Occupation            Energy/Eh            Energy/eV
      -------------------------------------------------------------
         1        2.0000           -0.8243081             -22.4306
       ...           ...                  ...                  ...
        40        2.0000           -0.4338572             -11.8059
        41        2.0000           -0.4241835             -11.5426
        42        2.0000           -0.4234985             -11.5240
        43        2.0000           -0.4165637             -11.3353
        44        2.0000           -0.4133884             -11.2489
        45        2.0000           -0.4045935             -11.0095
        46        2.0000           -0.3906361             -10.6297 (HOMO)
        47                         -0.2621164              -7.1326 (LUMO)
        48                         -0.2461588              -6.6983
        49                         -0.2371152              -6.4522
        50                         -0.2259221              -6.1477
        51                         -0.2090656              -5.6890
       ...                                ...                  ...
        85                          0.6588586              17.9285
      -------------------------------------------------------------
                  HL-Gap            0.1285196 Eh            3.4972 eV
             Fermi-level           -0.3263763 Eh           -8.8811 eV

 SCC (total)                   0 d,  0 h,  0 min,  0.058 sec
 SCC setup                      ...        0 min,  0.005 sec (  7.976%)
 Dispersion                     ...        0 min,  0.000 sec (  0.829%)
 classical contributions        ...        0 min,  0.000 sec (  0.129%)
 integral evaluation            ...        0 min,  0.009 sec ( 15.994%)
 iterations                     ...        0 min,  0.030 sec ( 52.104%)
 molecular gradient             ...        0 min,  0.013 sec ( 22.587%)
 printout                       ...        0 min,  0.000 sec (  0.344%)

         :::::::::::::::::::::::::::::::::::::::::::::::::::::
         ::                     SUMMARY                     ::
         :::::::::::::::::::::::::::::::::::::::::::::::::::::
         :: total energy             -51.632057616595 Eh    ::
         :: total w/o Gsasa/hb       -51.624774255660 Eh    ::
         :: gradient norm              0.039662615125 Eh/a0 ::
         :: HOMO-LUMO gap              3.497197597645 eV    ::
         ::.................................................::
         :: SCC energy               -52.360903352173 Eh    ::
         :: -> isotropic ES            0.080238523851 Eh    ::
         :: -> anisotropic ES          0.000552090098 Eh    ::
         :: -> anisotropic XC          0.017461667647 Eh    ::
         :: -> dispersion             -0.031175610449 Eh    ::
         :: -> Gsolv                  -0.020664578737 Eh    ::
         ::    -> Gelec               -0.013381217802 Eh    ::
         ::    -> Gsasa                0.001636852972 Eh    ::
         ::    -> Ghb                 -0.010000973605 Eh    ::
         ::    -> Gshift               0.001080759698 Eh    ::
         :: repulsion energy           0.728845735578 Eh    ::
         :: add. restraining           0.000000000000 Eh    ::
         :: total charge               0.000000000000 e     ::
         :::::::::::::::::::::::::::::::::::::::::::::::::::::

metadynamics with 1 initial structures loaded
           -------------------------------------------------
          |           Optimal kpush determination           |
           -------------------------------------------------
      ----------------------------------------------------------- 
     |                   =====================                   |
     |                        A N C O P T                        |
     |                   =====================                   |
     |               Approximate Normal Coordinate               |
     |                Rational Function Optimizer                |
      ----------------------------------------------------------- 
target rmsd / Å         0.100000
unbiased initial rmsd   0.078205
 
iter. min.        max.        rmsd       kpush
final kpush:  0.000000
           -------------------------------------------------
          |            Biased Numerical Hessian             |
           -------------------------------------------------
kpush                :   0.00000
alpha                :   1.00000
step length          :   0.00500
SCC accuracy         :   0.30000
Hessian scale factor :   1.00000
frozen atoms in %    :   0.00000    0
RMS gradient         :   0.00004
estimated CPU  time      0.08 min
estimated wall time      0.08 min

writing file <hessian>.

 projected vibrational frequencies (cm⁻¹)
eigval :       -0.00     0.00     0.00     0.00     0.00     0.00
eigval :       25.59    34.62    47.48    60.39    79.59   101.24
eigval :      164.06   186.31   193.46   217.37   240.15   253.44
eigval :      284.13   302.98   370.41   375.50   420.45   453.38
eigval :      481.82   497.78   540.94   551.97   586.33   588.22
eigval :      600.75   633.69   667.16   685.82   691.68   728.58
eigval :      758.71   764.46   834.03   851.40   874.24   878.18
eigval :      903.53   922.66   926.55   929.51   931.51   961.30
eigval :     1021.98  1030.96  1062.38  1084.32  1093.52  1115.87
eigval :     1122.45  1127.76  1166.13  1179.96  1199.11  1206.57
eigval :     1239.80  1252.45  1268.31  1282.09  1287.90  1304.04
eigval :     1316.74  1328.71  1398.36  1404.98  1432.88  1460.23
eigval :     1479.10  1483.62  1498.80  1563.02  1582.17  1595.05
eigval :     1603.37  1703.00  2967.84  3044.23  3051.44  3070.77
eigval :     3075.38  3077.84  3084.37  3088.96  3098.06  3100.37
eigval :     3105.78  3112.30  3333.94
           -------------------------------------------------
          |                Property Printout                |
           -------------------------------------------------

    * Orbital Energies and Occupations

         #    Occupation            Energy/Eh            Energy/eV
      -------------------------------------------------------------
         1        2.0000           -0.8227214             -22.3874
       ...           ...                  ...                  ...
        34        2.0000           -0.4747397             -12.9183
        35        2.0000           -0.4743539             -12.9078
        36        2.0000           -0.4680752             -12.7370
        37        2.0000           -0.4543158             -12.3626
        38        2.0000           -0.4510489             -12.2737
        39        2.0000           -0.4375463             -11.9062
        40        2.0000           -0.4329295             -11.7806
        41        2.0000           -0.4234483             -11.5226
        42        2.0000           -0.4223666             -11.4932
        43        2.0000           -0.4164354             -11.3318
        44        2.0000           -0.4132638             -11.2455
        45        2.0000           -0.4058886             -11.0448
        46        2.0000           -0.3913749             -10.6499 (HOMO)
        47                         -0.2581950              -7.0258 (LUMO)
        48                         -0.2395801              -6.5193
        49                         -0.2355033              -6.4084
        50                         -0.2240239              -6.0960
        51                         -0.2068661              -5.6291
        52                         -0.1133700              -3.0850
        53                         -0.0833110              -2.2670
        54                          0.0262359               0.7139
        55                          0.0580857               1.5806
        56                          0.0824250               2.2429
        57                          0.0978302               2.6621
       ...                                ...                  ...
        85                          0.6821225              18.5615
      -------------------------------------------------------------
                  HL-Gap            0.1331799 Eh            3.6240 eV
             Fermi-level           -0.3247849 Eh           -8.8378 eV

     #   Z          covCN         q      C6AA      α(0)
     1   6 C        3.755    -0.120    22.863     6.818
     2   6 C        3.857    -0.042    21.291     6.562
     3   1 H        0.924     0.067     2.118     2.276
     4   6 C        2.983     0.018    27.607     8.619
     5   6 C        2.920    -0.045    29.111     8.848
     6   6 C        2.931    -0.039    28.979     8.828
     7   6 C        2.972    -0.006    28.171     8.706
     8   6 C        2.791     0.162    24.500     8.108
     9   6 C        2.921    -0.060    29.495     8.906
    10   9 F        0.786    -0.272    12.006     4.093
    11   6 C        2.976     0.014    27.688     8.631
    12   6 C        2.924    -0.032    28.801     8.801
    13   6 C        2.919    -0.034    28.852     8.808
    14   6 C        2.920    -0.035    28.862     8.810
    15   6 C        2.919    -0.034    28.851     8.808
    16   6 C        2.925    -0.038    28.956     8.825
    17   6 C        2.699     0.372    20.699     7.446
    18   8 O        0.856    -0.496    23.692     6.526
    19   8 O        1.659    -0.394    20.741     6.148
    20   1 H        0.925     0.056     2.244     2.343
    21   1 H        0.925     0.071     2.072     2.251
    22   1 H        0.925     0.062     2.178     2.308
    23   1 H        0.926     0.075     2.036     2.231
    24   1 H        0.926     0.068     2.106     2.269
    25   1 H        0.926     0.065     2.145     2.290
    26   1 H        0.926     0.034     2.537     2.491
    27   1 H        0.926     0.038     2.474     2.460
    28   1 H        0.926     0.041     2.436     2.441
    29   1 H        0.926     0.044     2.400     2.422
    30   1 H        0.926     0.045     2.382     2.414
    31   1 H        0.803     0.418     0.452     1.056

 Mol. C6AA /au·bohr⁶  :      11900.359376
 Mol. C8AA /au·bohr⁸  :     290247.125099
 Mol. α(0) /au        :        171.543252


Wiberg/Mayer (AO) data.
largest (>0.10) Wiberg bond orders for each atom

 ---------------------------------------------------------------------------
     #   Z sym  total        # sym  WBO       # sym  WBO       # sym  WBO
 ---------------------------------------------------------------------------
     1   6 C    3.986 --     2 C    0.989    20 H    0.984    22 H    0.984
                            21 H    0.981
     2   6 C    3.990 --     1 C    0.989     4 C    0.972     3 H    0.961
                            17 C    0.951
     3   1 H    0.995 --     2 C    0.961
     4   6 C    3.981 --     9 C    1.407     5 C    1.399     2 C    0.972
                             7 C    0.100
     5   6 C    3.988 --     6 C    1.461     4 C    1.399    23 H    0.962
     6   6 C    3.988 --     5 C    1.461     7 C    1.378    24 H    0.965
                             9 C    0.105
     7   6 C    3.984 --     6 C    1.378     8 C    1.357    11 C    1.043
                             4 C    0.100
     8   6 C    3.864 --     9 C    1.414     7 C    1.357    10 F    0.920
     9   6 C    3.987 --     8 C    1.414     4 C    1.407    25 H    0.963
                             6 C    0.105
    10   9 F    1.040 --     8 C    0.920
    11   6 C    3.989 --    12 C    1.393    16 C    1.387     7 C    1.043
                            14 C    0.106
    12   6 C    3.991 --    13 C    1.448    11 C    1.393    26 H    0.970
                            15 C    0.109
    13   6 C    3.991 --    12 C    1.448    14 C    1.437    27 H    0.970
                            16 C    0.109
    14   6 C    3.987 --    13 C    1.437    15 C    1.433    28 H    0.971
                            11 C    0.106
    15   6 C    3.991 --    16 C    1.453    14 C    1.433    29 H    0.970
                            12 C    0.109
    16   6 C    3.990 --    15 C    1.453    11 C    1.387    30 H    0.968
                            13 C    0.109
    17   6 C    3.906 --    18 O    1.696    19 O    1.198     2 C    0.951
    18   8 O    1.967 --    17 C    1.696    19 O    0.175
    19   8 O    2.207 --    17 C    1.198    31 H    0.799    18 O    0.175
    20   1 H    0.996 --     1 C    0.984
    21   1 H    0.995 --     1 C    0.981
    22   1 H    0.996 --     1 C    0.984
    23   1 H    0.994 --     5 C    0.962
    24   1 H    0.995 --     6 C    0.965
    25   1 H    0.995 --     9 C    0.963
    26   1 H    0.999 --    12 C    0.970
    27   1 H    0.998 --    13 C    0.970
    28   1 H    0.998 --    14 C    0.971
    29   1 H    0.997 --    15 C    0.970
    30   1 H    0.998 --    16 C    0.968
    31   1 H    0.825 --    19 O    0.799
 ---------------------------------------------------------------------------

Topologies differ in total number of bonds
Writing topology from bond orders to xtbtopo.mol

molecular dipole:
                 x           y           z       tot (Debye)
 q only:       -0.266       2.200      -0.124
   full:       -0.308       2.044      -0.027       5.255
molecular quadrupole (traceless):
                xx          xy          yy          xz          yz          zz
 q only:        3.483     -10.132      -3.994       5.764       3.642       0.512
  q+dip:        6.638      -8.980      -3.685       5.826       3.879      -2.954
   full:        4.859      -9.659      -5.313       5.302       4.252       0.454

           -------------------------------------------------
          |                Geometry Summary                 |
           -------------------------------------------------

      molecular mass/u    :      244.2614812
   center of mass at/Å    :        0.0006609       0.0002171      -0.0005468
  moments of inertia/u·Å² :        0.4622783E+03   0.2631829E+04   0.2764473E+04
rotational constants/cm⁻¹ :        0.3646641E-01   0.6405292E-02   0.6097954E-02

 * 28 selected distances

     #   Z          #   Z                                           value/Å
     1   6 C        2   6 C                                       1.5296785 (max)
     2   6 C        3   1 H                                       1.0933265
     4   6 C        5   6 C                                       1.3905474
     5   6 C        6   6 C                                       1.3805796
     6   6 C        7   6 C                                       1.3946087
     7   6 C        8   6 C                                       1.3904572
     4   6 C        9   6 C                                       1.3876832
     8   6 C        9   6 C                                       1.3802457
    11   6 C       12   6 C                                       1.3922688
    12   6 C       13   6 C                                       1.3830332
    13   6 C       14   6 C                                       1.3848117
    14   6 C       15   6 C                                       1.3853502
    11   6 C       16   6 C                                       1.3932650
    15   6 C       16   6 C                                       1.3822904
    17   6 C       18   8 O                                       1.2135243
    17   6 C       19   8 O                                       1.3173128
     1   6 C       20   1 H                                       1.0867768
     1   6 C       21   1 H                                       1.0849901
     1   6 C       22   1 H                                       1.0862678
     5   6 C       23   1 H                                       1.0782349
     6   6 C       24   1 H                                       1.0786037
     9   6 C       25   1 H                                       1.0785985
    12   6 C       26   1 H                                       1.0800201
    13   6 C       27   1 H                                       1.0796248
    14   6 C       28   1 H                                       1.0793277
    15   6 C       29   1 H                                       1.0794991
    16   6 C       30   1 H                                       1.0795503
    19   8 O       31   1 H                                       0.9770885 (min)

 * 4 distinct bonds (by element types)

   Z      Z             #   av. dist./Å        max./Å        min./Å
   1 H    6 C          12     1.0820684     1.0933265     1.0782349
   6 C    6 C          13     1.3980630     1.5296785     1.3802457
   1 H    8 O           1     0.9770885     0.9770885     0.9770885
   6 C    8 O           2     1.2654186     1.3173128     1.2135243

           -------------------------------------------------
          |               Frequency Printout                |
           -------------------------------------------------
 projected vibrational frequencies (cm⁻¹)
eigval :       -0.00     0.00     0.00     0.00     0.00     0.00
eigval :       25.59    34.62    47.48    60.39    79.59   101.24
eigval :      164.06   186.31   193.46   217.37   240.15   253.44
eigval :      284.13   302.98   370.41   375.50   420.45   453.38
eigval :      481.82   497.78   540.94   551.97   586.33   588.22
eigval :      600.75   633.69   667.16   685.82   691.68   728.58
eigval :      758.71   764.46   834.03   851.40   874.24   878.18
eigval :      903.53   922.66   926.55   929.51   931.51   961.30
eigval :     1021.98  1030.96  1062.38  1084.32  1093.52  1115.87
eigval :     1122.45  1127.76  1166.13  1179.96  1199.11  1206.57
eigval :     1239.80  1252.45  1268.31  1282.09  1287.90  1304.04
eigval :     1316.74  1328.71  1398.36  1404.98  1432.88  1460.23
eigval :     1479.10  1483.62  1498.80  1563.02  1582.17  1595.05
eigval :     1603.37  1703.00  2967.84  3044.23  3051.44  3070.77
eigval :     3075.38  3077.84  3084.37  3088.96  3098.06  3100.37
eigval :     3105.78  3112.30  3333.94
 reduced masses (amu)
   1: 12.60   2: 12.91   3: 12.46   4: 11.93   5: 12.47   6: 12.44   7: 12.37   8: 13.81
   9: 13.94  10: 12.08  11: 11.17  12: 12.09  13:  9.22  14:  5.27  15: 10.47  16: 10.95
  17: 11.22  18: 12.94  19: 12.11  20: 11.90  21:  9.68  22: 10.60  23: 10.66  24: 12.01
  25: 11.04  26: 12.20  27: 11.67  28: 10.64  29: 10.19  30: 10.11  31: 10.45  32:  7.29
  33:  9.93  34:  9.89  35: 10.11  36: 11.47  37:  6.49  38:  9.88  39:  5.79  40:  8.14
  41:  3.30  42:  3.28  43:  3.69  44:  4.57  45:  8.87  46:  3.97  47:  3.08  48: 11.23
  49:  5.91  50: 10.88  51:  5.43  52:  6.92  53:  7.32  54:  5.82  55:  5.62  56:  6.84
  57:  3.51  58:  1.32  59:  2.74  60:  4.92  61:  8.85  62:  5.21  63:  7.66  64:  3.65
  65:  5.54  66: 10.07  67: 11.91  68: 10.63  69:  6.05  70:  6.86  71:  9.16  72:  8.77
  73:  1.86  74:  1.61  75: 10.10  76: 11.64  77: 11.51  78: 11.54  79: 11.62  80: 13.30
  81:  1.76  82:  1.87  83:  1.63  84:  1.66  85:  1.75  86:  1.77  87:  1.83  88:  1.88
  89:  1.92  90:  1.79  91:  1.84  92:  1.88  93:  1.85
 IR intensities (km·mol⁻¹)
   1:  0.84   2:  0.46   3:  0.53   4:  0.12   5:  0.22   6:  0.69   7:  0.76   8:  2.18
   9:  2.52  10:  0.52  11:  0.30  12:  0.11  13:  0.15  14:  0.57  15:  0.67  16:  2.25
  17:  0.73  18:  3.99  19:  3.02  20:  4.18  21:  0.24  22:  0.21  23:  0.76  24:  3.51
  25:  4.95  26: 23.66  27:  0.19  28: 30.50  29: 75.53  30: 37.03  31: 10.17  32:118.95
  33:  6.06  34: 46.25  35: 69.98  36: 29.95  37: 18.32  38: 37.95  39: 14.31  40: 25.52
  41:  1.67  42:  1.70  43:  0.78  44: 26.75  45: 78.95  46:  0.76  47:  0.21  48:  6.63
  49: 57.77  50: 16.90  51: 53.77  52:  2.95  53:150.74  54:  5.14  55: 39.77  56:124.40
  57:  2.37  58:  0.10  59: 10.31  60: 37.06  61:119.05  62: 75.93  63:147.37  64:  0.42
  65:  4.53  66:  9.46  67:  0.01  68: 14.24  69: 18.64  70: 14.75  71:  6.68  72: 12.71
  73:  6.43  74: 10.36  75: 36.55  76: 24.63  77:  1.50  78: 10.83  79: 10.94  80:799.62
  81: 35.89  82: 47.43  83: 30.37  84: 17.20  85:  8.15  86:  0.84  87: 96.03  88:208.08
  89: 75.30  90: 17.50  91: 31.15  92: 21.23  93:204.21
 Raman intensities (Ä⁴*amu⁻¹)
   1:  0.00   2:  0.00   3:  0.00   4:  0.00   5:  0.00   6:  0.00   7:  0.00   8:  0.00
   9:  0.00  10:  0.00  11:  0.00  12:  0.00  13:  0.00  14:  0.00  15:  0.00  16:  0.00
  17:  0.00  18:  0.00  19:  0.00  20:  0.00  21:  0.00  22:  0.00  23:  0.00  24:  0.00
  25:  0.00  26:  0.00  27:  0.00  28:  0.00  29:  0.00  30:  0.00  31:  0.00  32:  0.00
  33:  0.00  34:  0.00  35:  0.00  36:  0.00  37:  0.00  38:  0.00  39:  0.00  40:  0.00
  41:  0.00  42:  0.00  43:  0.00  44:  0.00  45:  0.00  46:  0.00  47:  0.00  48:  0.00
  49:  0.00  50:  0.00  51:  0.00  52:  0.00  53:  0.00  54:  0.00  55:  0.00  56:  0.00
  57:  0.00  58:  0.00  59:  0.00  60:  0.00  61:  0.00  62:  0.00  63:  0.00  64:  0.00
  65:  0.00  66:  0.00  67:  0.00  68:  0.00  69:  0.00  70:  0.00  71:  0.00  72:  0.00
  73:  0.00  74:  0.00  75:  0.00  76:  0.00  77:  0.00  78:  0.00  79:  0.00  80:  0.00
  81:  0.00  82:  0.00  83:  0.00  84:  0.00  85:  0.00  86:  0.00  87:  0.00  88:  0.00
  89:  0.00  90:  0.00  91:  0.00  92:  0.00  93:  0.00
 output can be read by thermo (or use thermo option).
 writing <g98.out> molden fake output.
 recommended (thermochemical) frequency scaling factor: 1.0
           -------------------------------------------------
          |             Thermodynamic Functions             |
           -------------------------------------------------

Molecule has no symmetry elements
It seems to be the C1 point group
c1  symmetry found (for desy threshold:  0.10E+00) used in thermo

          ...................................................
          :                      SETUP                      :
          :.................................................:
          :  # frequencies                          87      :
          :  # imaginary freq.                       0      :
          :  linear?                             false      :
          :  only rotor calc.                    false      :
          :  symmetry                               c1      :
          :  rotational number                       1      :
          :  scaling factor                  1.0000000      :
          :  rotor cutoff                    0.0000000 cm⁻¹ :
          :  imag. cutoff                 -100.0000000 cm⁻¹ :
          :.................................................:

    mode    ω/cm⁻¹     T·S(HO)/kcal·mol⁻¹    T·S(FR)/kcal·mol⁻¹   T·S(vib)
   ------------------------------------------------------------------------
       1     25.59    -1.83200 (100.00%)    -1.25483 (  0.00%)    -1.83200
       2     34.62    -1.65333 (100.00%)    -1.16536 (  0.00%)    -1.65333
       3     47.48    -1.46680 (100.00%)    -1.07181 (  0.00%)    -1.46680
       4     60.39    -1.32508 (100.00%)    -1.00057 (  0.00%)    -1.32508
       5     79.59    -1.16309 (100.00%)    -0.91882 (  0.00%)    -1.16309
       6    101.24    -1.02274 (100.00%)    -0.84753 (  0.00%)    -1.02274
       7    164.06    -0.74611 (100.00%)    -0.70454 (  0.00%)    -0.74611
       8    186.31    -0.67507 (100.00%)    -0.66686 (  0.00%)    -0.67507
       9    193.46    -0.65426 (100.00%)    -0.65570 (  0.00%)    -0.65426
      10    217.37    -0.59061 (100.00%)    -0.62119 (  0.00%)    -0.59061
      11    240.15    -0.53719 (100.00%)    -0.59166 (  0.00%)    -0.53719
      12    253.44    -0.50881 (100.00%)    -0.57571 (  0.00%)    -0.50881
      13    284.13    -0.44980 (100.00%)    -0.54184 (  0.00%)    -0.44980
   ------------------------------------------------------------------------

   temp. (K)  partition function   enthalpy   heat capacity  entropy
                                   cal/mol     cal/K/mol   cal/K/mol   J/K/mol
 298.15  VIB  0.123E+07             8405.807     56.102     56.056
         ROT  0.443E+07              888.752      2.981     33.394
         INT  0.544E+13             9294.559     59.083     89.450
         TR   0.369E+28             1481.254      4.968     42.361
         TOT                       10775.8128    64.0510   131.8109   551.4967

       T/K    H(0)-H(T)+PV         H(T)/Eh          T*S/Eh         G(T)/Eh
   ------------------------------------------------------------------------
    298.15    0.171724E-01    0.253437E+00    0.626276E-01    0.190810E+00
   ------------------------------------------------------------------------

         :::::::::::::::::::::::::::::::::::::::::::::::::::::
         ::                  THERMODYNAMIC                  ::
         :::::::::::::::::::::::::::::::::::::::::::::::::::::
         :: total free energy         -51.444025376181 Eh   ::
         ::.................................................::
         :: total energy              -51.634835031342 Eh   ::
         :: zero point energy           0.236264906375 Eh   ::
         :: G(RRHO) w/o ZPVE           -0.045455251214 Eh   ::
         :: G(RRHO) contrib.            0.190809655161 Eh   ::
         :::::::::::::::::::::::::::::::::::::::::::::::::::::

optimized geometry written to: xtbopt.coord


           -------------------------------------------------
          | TOTAL ENERGY              -51.634835031342 Eh   |
          | TOTAL ENTHALPY            -51.381397774164 Eh   |
          | TOTAL FREE ENERGY         -51.444025376181 Eh   |
          | GRADIENT NORM               0.000042227267 Eh/α |
          | HOMO-LUMO GAP               3.624009943083 eV   |
           -------------------------------------------------

------------------------------------------------------------------------
 * finished run on 2025/04/11 at 13:51:01.864     
------------------------------------------------------------------------
 total:
 * wall-time:     0 d,  0 h,  0 min,  5.330 sec
 *  cpu-time:     0 d,  0 h,  0 min,  5.304 sec
 * ratio c/w:     0.995 speedup
 SCF:
 * wall-time:     0 d,  0 h,  0 min,  0.058 sec
 *  cpu-time:     0 d,  0 h,  0 min,  0.058 sec
 * ratio c/w:     0.999 speedup
 analytical hessian:
 * wall-time:     0 d,  0 h,  0 min,  4.683 sec
 *  cpu-time:     0 d,  0 h,  0 min,  4.680 sec
 * ratio c/w:     0.999 speedup

