13
 energy: -20.960219814712 gnorm: 0.040882133153 xtb: 6.7.1 (edcfbbe)
C           -1.95142998911333        0.78685361367765        0.49292412661329
C           -1.51440878544401       -0.53559523478930       -0.12313024678106
C           -0.24477169449478       -0.43144469454977       -0.96551450647410
N            0.89750082161849        0.00465538784899       -0.08932991965496
O            1.22965573548618        1.18569774686804       -0.10972863586873
O            1.40568140489738       -0.83638840873758        0.64554505880827
H           -1.22632383842357        1.15395763740547        1.22668865800995
H           -2.07824834136683        1.55696528570057       -0.27491992433246
H           -2.90704030219557        0.66282582921057        1.01060822314256
H           -2.28410635394448       -0.90878625964407       -0.80725392758292
H           -1.37093508468170       -1.29996121834492        0.64792076863625
H            0.04174673285196       -1.40109767633850       -1.37644868679580
H           -0.33598151267908        0.32033443650208       -1.75057303035040
13
 energy: -20.961868880877 gnorm: 0.017461813516 xtb: 6.7.1 (edcfbbe)
C           -1.94734719451445        0.78110040353629        0.48563291086472
C           -1.51424658539092       -0.54173691566334       -0.12635294066134
C           -0.23656292861945       -0.41882393068007       -0.95699033727811
N            0.87764822658618        0.00598454101813       -0.07924178223526
O            1.22505188031216        1.17098323253699       -0.11275339523289
O            1.39366095009388       -0.83693282102147        0.63067566477319
H           -1.21665839154457        1.14586171173850        1.20757603887203
H           -2.07266705191996        1.54246992564134       -0.28248699716892
H           -2.89625551583049        0.65819375200791        1.00409079067005
H           -2.29500896331930       -0.91007589790688       -0.79593640891769
H           -1.36216771771754       -1.28812898053991        0.65713250789975
H            0.04107291451666       -1.38879434871002       -1.36953912839711
H           -0.33518083014156        0.33791577285178       -1.73501896581854
13
 energy: -20.961962054886 gnorm: 0.017740903351 xtb: 6.7.1 (edcfbbe)
C           -1.94163642098099        0.77984088844253        0.48126947084792
C           -1.50627087941658       -0.54617123980521       -0.12614592750811
C           -0.22480227918966       -0.40964626083538       -0.95623053199958
N            0.88123736943975       -0.00441299131093       -0.09949648006561
O            1.20147534440623        1.16136270697739       -0.09711407783682
O            1.35478874909366       -0.83673189739053        0.64048245180988
H           -1.20650774211849        1.14825176021224        1.19207469685114
H           -2.07106551130618        1.53204501120052       -0.28996204823055
H           -2.88401205010463        0.65700369867817        1.00358952022317
H           -2.29393926921409       -0.91720418542747       -0.78128976072136
H           -1.34106933938284       -1.27889622384150        0.66530689553257
H            0.03439861308278       -1.37997492681422       -1.37951534471775
H           -0.34125779179829        0.35255010472365       -1.72618090681503
13
 energy: -20.962310233309 gnorm: 0.005779880605 xtb: 6.7.1 (edcfbbe)
C           -1.94466397838726        0.78184062321506        0.48113867976098
C           -1.50568143993436       -0.54600354238160       -0.12392726355287
C           -0.22510588735683       -0.40912126849411       -0.95715853462276
N            0.86849902928314       -0.00264167166164       -0.08449816125106
O            1.21328292323267        1.15889247690837       -0.10167693267630
O            1.36149658792552       -0.84528978905931        0.63459682343165
H           -1.20916868438960        1.15522085981487        1.19069871365232
H           -2.07806043701535        1.53215052433884       -0.29330220128020
H           -2.88644038424461        0.65803556035763        1.00648610533357
H           -2.28790121977296       -0.92302144929593       -0.78157934790957
H           -1.33704871387284       -1.27943573350893        0.66657364168184
H            0.03490270060312       -1.37790963135045       -1.38524631339332
H           -0.34277170355999        0.35529948592644       -1.72531725180439
13
 energy: -20.962345404242 gnorm: 0.001983116068 xtb: 6.7.1 (edcfbbe)
C           -1.94656852170647        0.78239033715727        0.47996871239450
C           -1.50477994796883       -0.54586373555382       -0.12181650736948
C           -0.22522663889107       -0.40701792300001       -0.95835901995747
N            0.87041137551302       -0.00523094942694       -0.08497608676768
O            1.22003079386797        1.15693275134076       -0.09861972061165
O            1.35935499933529       -0.85104884490891        0.63627189620202
H           -1.21005229972461        1.16149892857283        1.18631840338279
H           -2.08584660530805        1.52946980927912       -0.29754285437224
H           -2.88664466960265        0.65637129887648        1.00908707157309
H           -2.28617813925804       -0.92795908424682       -0.77797140146196
H           -1.33210914129787       -1.27741190307577        0.66986418027106
H            0.03286220793704       -1.37416019920440       -1.39159639163322
H           -0.34391462038506        0.36004595899946       -1.72384032427987
13
 energy: -20.962377580816 gnorm: 0.003565038945 xtb: 6.7.1 (edcfbbe)
C           -1.95110787648671        0.78308652730103        0.47637812097215
C           -1.50171734975906       -0.54612489780215       -0.11741570072908
C           -0.22380096569729       -0.40079524311492       -0.95976055148055
N            0.87200268333976       -0.01228520438963       -0.08575549425444
O            1.23498754641715        1.14789122241427       -0.09409229766652
O            1.34941796802283       -0.86358893036173        0.63992361408124
H           -1.21118237765788        1.17605352337625        1.17229725698011
H           -2.10551032855575        1.52162538528698       -0.30721128624389
H           -2.88512157312135        0.65265235902765        1.01600761263737
H           -2.28126721201930       -0.94038693235754       -0.76853890968815
H           -1.31777639509974       -1.27119798147886        0.67777307968270
H            0.02836600133977       -1.36362304864135       -1.40649415785335
H           -0.34595132821179        0.37470966554923       -1.71632332906771
13
 energy: -20.962391396892 gnorm: 0.003123709393 xtb: 6.7.1 (edcfbbe)
C           -1.95333590517385        0.78296107842220        0.47505976330685
C           -1.50098135967822       -0.54599232580334       -0.11634708417878
C           -0.22383621199633       -0.39856362729032       -0.95933043665235
N            0.87353673835084       -0.01464657438146       -0.08552552284727
O            1.24212544494599        1.14349350578344       -0.09456740077788
O            1.34752398606420       -0.86724564824542        0.64044293344588
H           -1.21228053613620        1.18096223868024        1.16670419304340
H           -2.11387762161290        1.51847165231744       -0.30989659300411
H           -2.88462055066691        0.65075887691095        1.01878519082211
H           -2.27993446893745       -0.94370048337770       -0.76596367151073
H           -1.31432599464124       -1.26895720156575        0.67995219746391
H            0.02699743289526       -1.35972379445081       -1.41003805602709
H           -0.34565216090256        0.38019874780977       -1.71248755571404
13
 energy: -20.962419462279 gnorm: 0.001479152950 xtb: 6.7.1 (edcfbbe)
C           -1.95853091450486        0.78245986517623        0.47220368767223
C           -1.49935105087066       -0.54571237381464       -0.11452711680720
C           -0.22445507290936       -0.39320662695570       -0.95817189040496
N            0.87755035720807       -0.01965908711490       -0.08422380399225
O            1.26072809137125        1.13288808095251       -0.09778852365872
O            1.34158615536944       -0.87500179236753        0.64348562833791
H           -1.21381866999434        1.19256733516707        1.15245215318539
H           -2.13525540710084        1.51054632406512       -0.31579717228794
H           -2.88232443813249        0.64535246180627        1.02716538882448
H           -2.27707342760239       -0.95070254456018       -0.76095893424167
H           -1.30741778131269       -1.26424217681975        0.68426445808632
H            0.02403706168700       -1.35044026532399       -1.41781398539857
H           -0.34433611069749        0.39316724459874       -1.70350193194513
13
 energy: -20.962444222726 gnorm: 0.001241277899 xtb: 6.7.1 (edcfbbe)
C           -1.96869506437205        0.78180407427944        0.46735176787824
C           -1.49561858847678       -0.54514388756650       -0.11117000787667
C           -0.22503824014461       -0.38239350380488       -0.95656753597981
N            0.88515360894591       -0.02918981060750       -0.08140744076258
O            1.29843506134125        1.11254044142884       -0.10515649721561
O            1.32651857011689       -0.89076937523017        0.65194024897707
H           -1.21641971106103        1.21643922850276        1.12439767850120
H           -2.17857284675407        1.49479959324342       -0.32697894424684
H           -2.87701514632624        0.63415385925789        1.04533653630132
H           -2.27120354461596       -0.96387473234758       -0.75149226581996
H           -1.29316780194952       -1.25579869014871        0.69221231552707
H            0.01909658022139       -1.33221590753757       -1.43386285724484
H           -0.34213408441455        0.41766515533981       -1.68781504066869
13
 energy: -20.962448013369 gnorm: 0.000374643241 xtb: 6.7.1 (edcfbbe)
C           -1.97186215195944        0.78177375426267        0.46670842540805
C           -1.49416156940414       -0.54484430881670       -0.11007137885066
C           -0.22429980345670       -0.37897593399695       -0.95622141022999
N            0.88752447938176       -0.03185558632172       -0.08127985029681
O            1.31012850361942        1.10631915602302       -0.10884452236842
O            1.32005572028162       -0.89513542735528        0.65564126503469
H           -1.21904650940044        1.22340633749261        1.11718381678288
H           -2.19056387732216        1.48972353435719       -0.32872884936668
H           -2.87532908739276        0.63136028541048        1.05040389643038
H           -2.26880304158768       -0.96703731157225       -0.74898097994871
H           -1.28882319355133       -1.25366938743358        0.69431508251205
H            0.01828056605943       -1.32662105741879       -1.43890416805980
H           -0.34176124275696        0.42357239017855       -1.68443336967708
13
 energy: -20.962448595259 gnorm: 0.000258970413 xtb: 6.7.1 (edcfbbe)
C           -1.97251140362064        0.78175384625332        0.46652845878350
C           -1.49414930703722       -0.54473597946627       -0.10994491647378
C           -0.22418321151309       -0.37783951176686       -0.95596702649468
N            0.88796142966857       -0.03237726163591       -0.08090368233643
O            1.31449647304034        1.10424317424266       -0.11041133960447
O            1.31730725697331       -0.89578775797304        0.65776388586987
H           -1.21842733769091        1.22563905052387        1.11410549220229
H           -2.19529138774249        1.48772088291184       -0.32965568873260
H           -2.87397087349527        0.62960209639296        1.05313443182928
H           -2.26851740236798       -0.96754011470211       -0.74875459685066
H           -1.28791429659304       -1.25333896784948        0.69436525072000
H            0.01795748487019       -1.32485056820512       -1.44012239099907
H           -0.34141863198114        0.42552755608341       -1.68334992054334
13
 energy: -20.962449133887 gnorm: 0.000209176293 xtb: 6.7.1 (edcfbbe)
C           -1.97261394235229        0.78155074115290        0.46680928645908
C           -1.49435414682979       -0.54467860676419       -0.11030723619446
C           -0.22405771489714       -0.37764809991522       -0.95595303968460
N            0.88795333683145       -0.03214605917980       -0.08075171825189
O            1.31681478291079        1.10341583419592       -0.11242615881336
O            1.31526947490135       -0.89467353090420        0.66008631171220
H           -1.21776035201360        1.22590724116301        1.11297753792620
H           -2.19729361711646        1.48712145292055       -0.32895933018715
H           -2.87292277193982        0.62888855544677        1.05502450601388
H           -2.26861103690275       -0.96682826340836       -0.74968457710515
H           -1.28837186086622       -1.25388776151229        0.69348091259315
H            0.01827521932882       -1.32462997749678       -1.43996591783371
H           -0.34098857854370        0.42562491911093       -1.68354261926430
13
 energy: -20.962449783556 gnorm: 0.000255857600 xtb: 6.7.1 (edcfbbe)
C           -1.97255731504027        0.78098769520166        0.46724586177918
C           -1.49461976925145       -0.54477517944193       -0.11112395517797
C           -0.22400051466845       -0.37722158866177       -0.95606766048668
N            0.88774808435744       -0.03174447997455       -0.08043759054637
O            1.32086768975956        1.10209046333258       -0.11634685262307
O            1.31115128853160       -0.89253086833331        0.66471849378313
H           -1.21643025426522        1.22614284941897        1.11135345679112
H           -2.20024753256929        1.48642776288937       -0.32771628262307
H           -2.87102124602514        0.62767183538533        1.05801612729403
H           -2.26884705933908       -0.96604930303758       -0.75121168951229
H           -1.28904410894305       -1.25483172251542        0.69205073682829
H            0.01873911048972       -1.32422021494521       -1.43990663912226
H           -0.34039958052575        0.42606919549110       -1.68378604901414
13
 energy: -20.962450393590 gnorm: 0.000281232568 xtb: 6.7.1 (edcfbbe)
C           -1.97251754087551        0.78024737090048        0.46791239841078
C           -1.49492085661028       -0.54492611445563       -0.11214857256957
C           -0.22396018100937       -0.37674150572278       -0.95613414383997
N            0.88749048979162       -0.03114659002185       -0.08011951378522
O            1.32611922248354        1.10043190847831       -0.12222813329288
O            1.30554591473542       -0.88930018403173        0.67104689855933
H           -1.21495101873266        1.22561324390234        1.11013882840570
H           -2.20281484046210        1.48595206861537       -0.32605282824687
H           -2.86915879178231        0.62612805878430        1.06114153063341
H           -2.26918721762316       -0.96500729912472       -0.75296925100423
H           -1.28992093297662       -1.25607323483767        0.69022766740164
H            0.01938003583671       -1.32365793991445       -1.44004633565050
H           -0.33976549026466        0.42649666223728       -1.68398058765173
13
 energy: -20.962451134142 gnorm: 0.000329704198 xtb: 6.7.1 (edcfbbe)
C           -1.97223142635524        0.77943679213747        0.46871138455934
C           -1.49528804060486       -0.54531571281318       -0.11305758412315
C           -0.22411503757179       -0.37628740551884       -0.95619386747685
N            0.88717914180963       -0.03033873438043       -0.07992821761913
O            1.33131307162014        1.09891967944340       -0.12877704109346
O            1.29989817053911       -0.88553700729033        0.67743609051422
H           -1.21398448873278        1.22421848126100        1.11053886361955
H           -2.20335080229222        1.48596845919392       -0.32427681130860
H           -2.86812165076874        0.62490313198184        1.06275476530152
H           -2.26963492230257       -0.96426833336751       -0.75454326324062
H           -1.29078517877097       -1.25746703930024        0.68860644165143
H            0.01994749593791       -1.32304526846031       -1.44022668951200
H           -0.33948753999699        0.42682940192245       -1.68425611390234
13
 energy: -20.962452980074 gnorm: 0.000968406355 xtb: 6.7.1 (edcfbbe)
C           -1.97164833720457        0.77729059159290        0.47096739949782
C           -1.49608424647398       -0.54626243383306       -0.11511122630027
C           -0.22459464334637       -0.37531993393005       -0.95642584063278
N            0.88646891905564       -0.02798309059226       -0.07987337391716
O            1.34469594905010        1.09515898227644       -0.14665271736544
O            1.28548545996967       -0.87514442879779        0.69375205138165
H           -1.21255732334004        1.21866438715227        1.11419176012592
H           -2.20165399530434        1.48698789568189       -0.31959926846368
H           -2.86751728464046        0.62221210705134        1.06467429489022
H           -2.27081230093268       -0.96236387809108       -0.75798387125223
H           -1.29264893632683       -1.26085318504799        0.68471615437499
H            0.02137711601339       -1.32166878889698       -1.44070108453347
H           -0.33917158400892        0.42729822024362       -1.68516632043568
13
 energy: -20.962455447431 gnorm: 0.001505479281 xtb: 6.7.1 (edcfbbe)
C           -1.97006416891563        0.77490498762654        0.47382753948625
C           -1.49717107465982       -0.54777893030408       -0.11714471251995
C           -0.22544369266126       -0.37494222544359       -0.95663556522592
N            0.88529063754682       -0.02454509858893       -0.08036040000938
O            1.35678076856156        1.09207195867611       -0.16660063874255
O            1.27106837355919       -0.86178057223855        0.71047944478567
H           -1.21212509201101        1.20947930698236        1.12326078496986
H           -2.19301991998005        1.49019967572970       -0.31397351106721
H           -2.86928551699298        0.62058767763278        1.06227745181477
H           -2.27252425825497       -0.96023545746554       -0.76160767008528
H           -1.29529286290424       -1.26515996882065        0.68067299763854
H            0.02298152756609       -1.32113049654781       -1.44052514420079
H           -0.33985592834307        0.42634558757091       -1.68688261947411
13
 energy: -20.962458694885 gnorm: 0.001253440001 xtb: 6.7.1 (edcfbbe)
C           -1.96825981716703        0.77353117212608        0.47603711954725
C           -1.49797836601421       -0.54893005613733       -0.11781248158110
C           -0.22635941165291       -0.37592858152081       -0.95683850770991
N            0.88414717709203       -0.02128710041051       -0.08162998713817
O            1.35961894522698        1.09213157335362       -0.17796942364018
O            1.26572519510616       -0.85160854860603        0.71732561946109
H           -1.21401165146006        1.19880143992600        1.13634149314625
H           -2.17748665952377        1.49530737368728       -0.31008264688529
H           -2.87496364574013        0.62191302098840        1.05385627133566
H           -2.27407972811969       -0.95870946064915       -0.76302117582374
H           -1.29746668993476       -1.26791318103090        0.67888094170389
H            0.02403063742345       -1.32254463047574       -1.43905415336015
H           -0.34157719272544        0.42325342355835       -1.68924511168570
13
 energy: -20.962459232940 gnorm: 0.002155333048 xtb: 6.7.1 (edcfbbe)
C           -1.96708543016739        0.77055135821109        0.48002420496727
C           -1.49933858856170       -0.54995655725360       -0.11953042710576
C           -0.22740753501334       -0.37545160918502       -0.95735276826646
N            0.88302577487164       -0.01619165882635       -0.08335523743176
O            1.37664844689474        1.08812379345080       -0.20391555225665
O            1.24854898114953       -0.83450170385158        0.73651775238211
H           -1.21639714643300        1.18421960508023        1.15189944151694
H           -2.16288054177105        1.50012656516414       -0.30243577238158
H           -2.88123616052246        0.62033248596410        1.04723144834345
H           -2.27596406701580       -0.95577400049137       -0.76654150224959
H           -1.29973122719308       -1.27219721005219        0.67414016845666
H            0.02556678939443       -1.32239478072860       -1.43724253329408
H           -0.34241050312188        0.42113015732760       -1.69265126531065
13
 energy: -20.962461699419 gnorm: 0.000771193355 xtb: 6.7.1 (edcfbbe)
C           -1.96793873743026        0.77177400469147        0.47856917025256
C           -1.49873125518458       -0.54918429095093       -0.11834406016961
C           -0.22693943895732       -0.37541754932862       -0.95726451356487
N            0.88371287847032       -0.01796554882434       -0.08325401423307
O            1.37126871321471        1.08921597854955       -0.19414654040467
O            1.25543345186279       -0.84132752664769        0.72823306417494
H           -1.21713617377808        1.18905183763266        1.14746261827865
H           -2.16743890364549        1.49833130691638       -0.30517957988384
H           -2.88044545193784        0.62109522001976        1.04814556131948
H           -2.27492158470223       -0.95708347342937       -0.76453312353041
H           -1.29793147117466       -1.26993853878448        0.67627490272446
H            0.02456728584362       -1.32246035303784       -1.43743613682691
H           -0.34216052007035        0.42192537800270       -1.69173939076682
13
 energy: -20.962462432915 gnorm: 0.000298004420 xtb: 6.7.1 (edcfbbe)
C           -1.96838241660370        0.77172213024426        0.47865539158706
C           -1.49855756694846       -0.54911477578832       -0.11810210740490
C           -0.22678218617113       -0.37492645161915       -0.95730893731236
N            0.88405032565428       -0.01814934265919       -0.08357056510243
O            1.37347111209757        1.08768945471490       -0.19548865494485
O            1.25437310418324       -0.84108973372553        0.72907853813435
H           -1.21817633517673        1.18945182811052        1.14781330841544
H           -2.16825398717001        1.49814690922740       -0.30495704907695
H           -2.88097078618164        0.62076296899369        1.04792799272694
H           -2.27453818216048       -0.95743402722003       -0.76427587803934
H           -1.29706176777633       -1.26974915194356        0.67643293399724
H            0.02441034029192       -1.32194620670873       -1.43783226775292
H           -0.34224286152791        0.42265284318300       -1.69158474785740
13
 energy: -20.962462674583 gnorm: 0.000219868984 xtb: 6.7.1 (edcfbbe)
C           -1.96905611535366        0.77168231005928        0.47861100185315
C           -1.49850794164996       -0.54891269266314       -0.11798553274933
C           -0.22674250039551       -0.37455604042417       -0.95705955427788
N            0.88438096416108       -0.01832740728568       -0.08344331555096
O            1.37521389358155        1.08669481808028       -0.19625487701851
O            1.25480375090979       -0.84145564658823        0.72874323633301
H           -1.21894591050391        1.18999309112721        1.14762865877817
H           -2.16936184220024        1.49795806374139       -0.30515048810806
H           -2.88147791451204        0.62020228612181        1.04801803580685
H           -2.27433573886209       -0.95761551836038       -0.76410467860338
H           -1.29693722419605       -1.26933540959230        0.67674108160022
H            0.02423335317796       -1.32150711382158       -1.43782865198420
H           -0.34192798164630        0.42319570441476       -1.69112695870919
13
 energy: -20.962462898239 gnorm: 0.000414564298 xtb: 6.7.1 (edcfbbe)
C           -1.96990120905961        0.77161114908178        0.47855113126472
C           -1.49830826396169       -0.54866842612274       -0.11780618087054
C           -0.22668885106710       -0.37398428180032       -0.95685482000824
N            0.88547230571864       -0.01901887793604       -0.08396234615388
O            1.37762597430761        1.08527362849056       -0.19720912754362
O            1.25438189817007       -0.84162179579848        0.72918688717844
H           -1.21991689553341        1.19089316866374        1.14723596010900
H           -2.17110779305492        1.49761432994460       -0.30536618092822
H           -2.88197467631473        0.61932922770859        1.04828952737806
H           -2.27395914636951       -0.95802792389591       -0.76374149957702
H           -1.29646769002519       -1.26878065561579        0.67716446640891
H            0.02374578192121       -1.32077432378681       -1.43823699894620
H           -0.34156264222073        0.42417122587607       -1.69046286094151
13
 energy: -20.962463251100 gnorm: 0.000211078323 xtb: 6.7.1 (edcfbbe)
C           -1.97025351750303        0.77159736023027        0.47842481887033
C           -1.49816844742006       -0.54869237315626       -0.11761238477441
C           -0.22675805023920       -0.37354459881670       -0.95678964703341
N            0.88566991378817       -0.01931772000675       -0.08385112400712
O            1.37936002841155        1.08428894154762       -0.19800206588373
O            1.25368920987532       -0.84196080467806        0.72978818306157
H           -1.22031842162167        1.19159208789128        1.14665732432091
H           -2.17231954914598        1.49717236831754       -0.30559370437125
H           -2.88200923910891        0.61900005316256        1.04855491280777
H           -2.27361455583327       -0.95861231967347       -0.76344762552244
H           -1.29585202308682       -1.26856718606474        0.67746357545376
H            0.02352545183261       -1.32004540030684       -1.43889545509251
H           -0.34161200743810        0.42510603636280       -1.68990885045957
13
 energy: -20.962463989378 gnorm: 0.000337006360 xtb: 6.7.1 (edcfbbe)
C           -1.97193191926245        0.77132599918742        0.47795241862313
C           -1.49763317225971       -0.54871862024659       -0.11693493305485
C           -0.22687503552470       -0.37161351584678       -0.95651756777841
N            0.88673250895362       -0.02060005590137       -0.08357784146864
O            1.38718306127786        1.07977271477008       -0.20169019526086
O            1.24999320521435       -0.84289855607458        0.73281101583800
H           -1.22165244393338        1.19414869150422        1.14386776370132
H           -2.17760625959412        1.49488098280127       -0.30685153701385
H           -2.88217427184215        0.61739037595376        1.05019294701007
H           -2.27261326346308       -0.96088403230209       -0.76190128036949
H           -1.29334767142198       -1.26736503951762        0.67873889354416
H            0.02281971389330       -1.31666336165266       -1.44195556898245
H           -0.34155565952694        0.42924086213419       -1.68734615741824
13
 energy: -20.962464224219 gnorm: 0.000241911013 xtb: 6.7.1 (edcfbbe)
C           -1.97250172212041        0.77112864971651        0.47775011622643
C           -1.49745650625403       -0.54887982743060       -0.11672991595175
C           -0.22694692728807       -0.37072082885660       -0.95636497917635
N            0.88715221332239       -0.02107055407358       -0.08348954424860
O            1.39076535963900        1.07759070780621       -0.20361498010435
O            1.24774591467432       -0.84276798843634        0.73461934749233
H           -1.22199141942198        1.19521589033081        1.14260778407493
H           -2.17983871615402        1.49395803339542       -0.30729929143241
H           -2.88194626274051        0.61660967320647        1.05107139289677
H           -2.27221204561871       -0.96189780262037       -0.76138840279484
H           -1.29234585632850       -1.26712595146725        0.67909212554362
H            0.02253020156966       -1.31506611312612       -1.44326166385028
H           -0.34161544076851        0.43104255636469       -1.68620403130562
13
 energy: -20.962464463611 gnorm: 0.000075137178 xtb: 6.7.1 (edcfbbe)
C           -1.97296846563177        0.77077558862828        0.47780696514158
C           -1.49736191884103       -0.54896206342271       -0.11678949893964
C           -0.22691823862412       -0.37004565378238       -0.95632149659109
N            0.88743877992495       -0.02125465182298       -0.08344093641021
O            1.39419386785188        1.07559078626902       -0.20601842825937
O            1.24503793694026       -0.84181513906015        0.73701363846512
H           -1.22197324765606        1.19558195355932        1.14168313206578
H           -2.18156268263585        1.49314275191467       -0.30735602838581
H           -2.88168998689187        0.61586431544953        1.05217613383719
H           -2.27206164034620       -0.96233388589941       -0.76123680310036
H           -1.29180956781162       -1.26703220384298        0.67905583564682
H            0.02257773498383       -1.31381592373372       -1.44429848425923
H           -0.34156377875179        0.43232057055275       -1.68548607184087
13
 energy: -20.962464710649 gnorm: 0.000132531793 xtb: 6.7.1 (edcfbbe)
C           -1.97321860768744        0.77033194257372        0.47801358443513
C           -1.49744654149172       -0.54912983284951       -0.11703940732832
C           -0.22695534220713       -0.36941249722944       -0.95621919570283
N            0.88763419666389       -0.02110684317816       -0.08339366843277
O            1.39804235707100        1.07360401451033       -0.20934748199656
O            1.24184665503151       -0.83992747592217        0.74014944671920
H           -1.22179512883494        1.19540671753424        1.14129817675422