 Entering Gaussian System
 *********************************************
 Gaussian 98:
 frequency output generated by the xtb code
 *********************************************
                         Standard orientation:
 --------------------------------------------------------------------
  Center     Atomic     Atomic              Coordinates (Angstroms)
  Number     Number      Type              X           Y           Z
 --------------------------------------------------------------------
    1          6             0        2.277776    1.081804    0.267469
    2          6             0        1.221750   -0.028472    0.260021
    3          6             0        1.760416   -1.252664   -0.487646
    4          7             0       -0.008569    0.499266   -0.318213
    5          6             0       -1.261546    0.169289    0.336379
    6          6             0       -1.606658   -1.328041    0.355694
    7          6             0       -2.380056    0.952834   -0.349130
    8          1             0        1.901995    1.945848    0.807224
    9          1             0        3.188881    0.733224    0.746488
   10          1             0        2.507909    1.384619   -0.750416
   11          1             0        1.011587   -0.306458    1.300097
   12          1             0        2.017509   -0.977274   -1.508969
   13          1             0        1.021888   -2.049993   -0.519664
   14          1             0        2.654409   -1.630845    0.001699
   15          1             0       -0.058128    0.272718   -1.305386
   16          1             0       -1.170931    0.518439    1.373554
   17          1             0       -2.570422   -1.480316    0.834578
   18          1             0       -1.658966   -1.716258   -0.660070
   19          1             0       -0.859235   -1.891499    0.909497
   20          1             0       -2.503780    0.610585   -1.374318
   21          1             0       -2.137693    2.011117   -0.364038
   22          1             0       -3.318484    0.811525    0.179590
 --------------------------------------------------------------------
     1 basis functions        1 primitive gaussians
     1 alpha electrons        1 beta electrons
 
 Harmonic frequencies (cm**-1), IR intensities (km*mol⁻¹),
 Raman scattering activities (A**4/amu), Raman depolarization ratios,
 reduced masses (AMU), force constants (mDyne/A) and normal coordinates:
                      1                      2                      3
                        a                      a                      a 
 Frequencies --    69.9854                90.1391               183.2745
 Red. masses --     8.3557                 9.1600                 7.3317
 Frc consts  --     0.0000                 0.0000                 0.0000
 IR Inten    --     0.1627                 1.0229                 2.4520
 Raman Activ --     0.0000                 0.0000                 0.0000
 Depolar     --     0.0000                 0.0000                 0.0000
 Atom AN      X      Y      Z        X      Y      Z        X      Y      Z
   1   6     0.06   0.10  -0.37     0.24  -0.17  -0.08     0.03  -0.12   0.16
   2   6     0.04   0.13   0.08    -0.02   0.08   0.07    -0.13   0.05  -0.12
   3   6    -0.04  -0.10   0.39    -0.38  -0.02  -0.03    -0.08  -0.09   0.15
   4   7    -0.01   0.02   0.10     0.01   0.40   0.30    -0.01   0.13  -0.39
   5   6    -0.01  -0.14   0.00    -0.04   0.04   0.03     0.10   0.09  -0.13
   6   6    -0.07  -0.13  -0.44     0.28  -0.04  -0.03     0.31   0.05  -0.07
   7   6     0.02   0.12   0.25    -0.10  -0.25  -0.20    -0.23  -0.04   0.27
   8   1     0.04   0.08  -0.17     0.16  -0.02  -0.00    -0.06   0.04  -0.12
   9   1     0.03   0.06  -0.11     0.07  -0.12  -0.07    -0.11  -0.03   0.27
  10   1    -0.02  -0.06  -0.14     0.04  -0.06  -0.03     0.23  -0.15   0.06
  11   1     0.04   0.13   0.05     0.01   0.04   0.03    -0.11   0.04  -0.04
  12   1    -0.03  -0.12   0.09    -0.14  -0.01  -0.02     0.14  -0.05   0.08
  13   1    -0.01  -0.03   0.20    -0.15   0.03   0.02    -0.07   0.03  -0.06
  14   1     0.00   0.01   0.13    -0.11  -0.06  -0.05    -0.12  -0.09   0.17
  15   1     0.02   0.04   0.02     0.02   0.23   0.05    -0.01  -0.05  -0.08
  16   1     0.00  -0.13   0.03    -0.09   0.01   0.02     0.09   0.03  -0.04
  17   1    -0.04  -0.06  -0.18     0.05  -0.06  -0.09     0.11  -0.03   0.02
  18   1     0.02   0.04  -0.16     0.19  -0.03  -0.01     0.06   0.01  -0.02
  19   1    -0.05  -0.09  -0.13     0.06   0.04   0.07     0.13   0.04  -0.05
  20   1    -0.01   0.12   0.05     0.04  -0.10  -0.06    -0.20  -0.04   0.10
  21   1     0.02   0.03   0.16    -0.10  -0.06  -0.06    -0.09  -0.01   0.02
  22   1     0.01   0.01   0.07    -0.04  -0.12  -0.10     0.01  -0.02   0.21
                      4                      5                      6
                        a                      a                      a 
 Frequencies --   180.8708               196.9226               232.6138
 Red. masses --     1.2980                 1.1321                 3.4780
 Frc consts  --     0.0000                 0.0000                 0.0000
 IR Inten    --     0.0779                 0.0792                 0.7266
 Raman Activ --     0.0000                 0.0000                 0.0000
 Depolar     --     0.0000                 0.0000                 0.0000
 Atom AN      X      Y      Z        X      Y      Z        X      Y      Z
   1   6     0.01  -0.02   0.06     0.02  -0.03  -0.02     0.11   0.04  -0.11
   2   6     0.01  -0.03  -0.01    -0.01   0.00  -0.01     0.08   0.05   0.03
   3   6    -0.01   0.03  -0.11     0.00  -0.01   0.00     0.02   0.11  -0.11
   4   7    -0.00  -0.01   0.06    -0.01  -0.00  -0.02    -0.01   0.00   0.23
   5   6    -0.02  -0.00   0.03    -0.01   0.02  -0.00    -0.05  -0.11   0.09
   6   6    -0.02  -0.00  -0.01    -0.01   0.02   0.08    -0.23  -0.08   0.02
   7   6     0.03   0.02  -0.02    -0.00  -0.00  -0.03     0.09  -0.06  -0.09
   8   1    -0.16   0.12  -0.30    -0.04   0.04  -0.12    -0.07   0.14  -0.31
   9   1    -0.13   0.12   0.36    -0.04   0.03   0.12    -0.07   0.11   0.23
  10   1     0.30  -0.25   0.01     0.11  -0.10  -0.01     0.25  -0.22  -0.05
  11   1     0.01  -0.02  -0.00    -0.00   0.01  -0.00     0.05   0.01   0.01
  12   1    -0.39  -0.06  -0.15     0.01  -0.00   0.00     0.30   0.14   0.07
  13   1     0.14  -0.14   0.30     0.00  -0.00  -0.01    -0.12   0.16  -0.33
  14   1     0.23   0.24  -0.28    -0.01  -0.00   0.01    -0.18  -0.19   0.13
  15   1    -0.01   0.02   0.01    -0.00  -0.01  -0.00     0.00   0.08   0.04
  16   1    -0.01  -0.00   0.01    -0.00   0.01  -0.00    -0.05  -0.04   0.03
  17   1    -0.05   0.00  -0.09     0.10  -0.01   0.23    -0.03   0.01   0.08
  18   1     0.09  -0.01  -0.00    -0.22   0.04   0.02    -0.17   0.01  -0.00
  19   1    -0.05   0.01   0.07     0.11  -0.01  -0.15    -0.05  -0.07  -0.07
  20   1    -0.02  -0.03   0.01     0.35   0.34  -0.16    -0.02  -0.12   0.01
  21   1     0.04  -0.00  -0.05    -0.25   0.06   0.42     0.11  -0.04  -0.15
  22   1     0.01   0.06   0.01    -0.11  -0.41  -0.31     0.03   0.12   0.01
                      7                      8                      9
                        a                      a                      a 
 Frequencies --   246.3249               300.9628               334.9848
 Red. masses --     2.1351                 7.5456                 8.6942
 Frc consts  --     0.0000                 0.0000                 0.0000
 IR Inten    --     0.0928                 0.1141                 1.4981
 Raman Activ --     0.0000                 0.0000                 0.0000
 Depolar     --     0.0000                 0.0000                 0.0000
 Atom AN      X      Y      Z        X      Y      Z        X      Y      Z
   1   6    -0.16   0.06  -0.04     0.39  -0.16   0.00    -0.20  -0.18  -0.18
   2   6    -0.02  -0.06  -0.05     0.08   0.10  -0.04    -0.06  -0.29   0.04
   3   6    -0.01  -0.04  -0.07     0.31   0.15   0.02     0.40  -0.10  -0.00
   4   7    -0.03  -0.08  -0.02    -0.02  -0.01  -0.06    -0.04   0.06   0.27
   5   6     0.01   0.00   0.06    -0.09   0.04  -0.04    -0.17   0.23   0.11
   6   6     0.11  -0.02   0.08    -0.35   0.09   0.02     0.21   0.19  -0.10
   7   6     0.11   0.12   0.04    -0.33  -0.16   0.07    -0.22   0.07  -0.06
   8   1    -0.12   0.03  -0.08     0.23  -0.02   0.04    -0.09  -0.03  -0.11
   9   1    -0.06   0.09   0.06     0.08  -0.17  -0.03    -0.03   0.03  -0.05
  10   1    -0.00  -0.03  -0.01     0.14  -0.04   0.01    -0.10  -0.12  -0.08
  11   1    -0.00  -0.03  -0.02     0.02   0.03  -0.01     0.01  -0.10   0.01
  12   1     0.15   0.03   0.03     0.10   0.05   0.01     0.18   0.03   0.03
  13   1    -0.07   0.05  -0.15     0.13   0.00  -0.00     0.21  -0.11  -0.09
  14   1    -0.10  -0.12   0.07     0.10   0.10   0.03     0.11   0.06   0.07
  15   1    -0.03  -0.05   0.00    -0.00  -0.01  -0.01    -0.03   0.10   0.05
  16   1     0.01   0.01   0.02    -0.02   0.02  -0.02    -0.09   0.07   0.03
  17   1    -0.18   0.01  -0.40    -0.19   0.11  -0.16     0.09  -0.09  -0.01
  18   1     0.50  -0.11   0.04     0.05  -0.02   0.01     0.08   0.12  -0.06
  19   1    -0.19   0.08   0.41    -0.23   0.00   0.16     0.14   0.10  -0.09
  20   1     0.16   0.17  -0.05    -0.08  -0.02   0.01    -0.06  -0.04   0.00
  21   1    -0.01   0.05   0.18    -0.21  -0.02   0.06    -0.09   0.03  -0.07
  22   1    -0.02  -0.08  -0.11    -0.07  -0.17   0.04    -0.06   0.02  -0.00
                     10                     11                     12
                        a                      a                      a 
 Frequencies --   378.6784               433.5841               474.5486
 Red. masses --     7.8555                 7.2365                 8.0282
 Frc consts  --     0.0000                 0.0000                 0.0000
 IR Inten    --     0.5171                 4.5556                 3.4840
 Raman Activ --     0.0000                 0.0000                 0.0000
 Depolar     --     0.0000                 0.0000                 0.0000
 Atom AN      X      Y      Z        X      Y      Z        X      Y      Z
   1   6    -0.15   0.23   0.05     0.08  -0.03  -0.05     0.06   0.12   0.00
   2   6     0.23  -0.13  -0.01     0.03   0.01   0.36     0.23  -0.09   0.22
   3   6    -0.08  -0.26  -0.06    -0.19   0.23  -0.04    -0.04  -0.06  -0.06
   4   7     0.27   0.06   0.07     0.03  -0.43  -0.07     0.21  -0.11   0.12
   5   6     0.22   0.15   0.04    -0.01   0.15   0.11    -0.14  -0.06  -0.44
   6   6    -0.18   0.27  -0.13     0.13   0.17  -0.15     0.04  -0.14   0.10
   7   6    -0.11  -0.31   0.07    -0.08  -0.04  -0.02    -0.33   0.24  -0.02
   8   1    -0.20   0.01  -0.00     0.09   0.05  -0.07    -0.04   0.03  -0.04
   9   1    -0.00   0.21   0.04     0.04   0.00  -0.04     0.06   0.13  -0.01
  10   1    -0.07   0.10   0.02    -0.03  -0.10  -0.06    -0.04  -0.00  -0.02
  11   1     0.07  -0.05  -0.01     0.04   0.02   0.11     0.09  -0.03   0.07
  12   1    -0.03  -0.12  -0.03    -0.12   0.21   0.01    -0.06   0.04  -0.02
  13   1    -0.10  -0.01   0.02    -0.09   0.10  -0.08    -0.07   0.04  -0.03
  14   1    -0.04  -0.15  -0.04    -0.03  -0.05  -0.14    -0.01  -0.12  -0.10
  15   1     0.07   0.05   0.01    -0.00  -0.48   0.06     0.18   0.11  -0.00
  16   1     0.07   0.05   0.01     0.01   0.07   0.02    -0.08  -0.02  -0.12
  17   1    -0.09   0.17  -0.08     0.04  -0.06  -0.08     0.04  -0.02   0.10
  18   1    -0.07   0.13  -0.06     0.07   0.15  -0.08    -0.00  -0.22   0.10
  19   1    -0.14  -0.04  -0.04     0.06   0.04  -0.09     0.07   0.11   0.10
  20   1    -0.02  -0.16   0.04     0.00  -0.06   0.01    -0.26   0.19  -0.03
  21   1    -0.21  -0.05  -0.04    -0.08   0.00  -0.05    -0.07   0.07   0.10
  22   1     0.01  -0.22   0.06    -0.02  -0.04  -0.00    -0.02   0.04   0.12
                     13                     14                     15
                        a                      a                      a 
 Frequencies --   501.5696               733.9093               876.5554
 Red. masses --     8.3536                 7.1418                 6.0240
 Frc consts  --     0.0000                 0.0000                 0.0000
 IR Inten    --     1.7737                95.1851                11.6230
 Raman Activ --     0.0000                 0.0000                 0.0000
 Depolar     --     0.0000                 0.0000                 0.0000
 Atom AN      X      Y      Z        X      Y      Z        X      Y      Z
   1   6     0.26   0.26   0.12    -0.04   0.00  -0.02    -0.09  -0.06  -0.08
   2   6     0.23   0.11  -0.31    -0.13   0.07  -0.10    -0.02   0.05  -0.14
   3   6     0.01  -0.26  -0.04    -0.07   0.13   0.07    -0.05   0.10  -0.04
   4   7    -0.18  -0.24   0.09    -0.04  -0.59   0.12    -0.07  -0.03   0.33
   5   6    -0.28   0.06   0.21     0.08   0.04  -0.08    -0.02  -0.15  -0.23
   6   6     0.08  -0.00  -0.04     0.05   0.19  -0.01     0.09   0.33  -0.12
   7   6    -0.15   0.12  -0.09     0.09  -0.05   0.03     0.16  -0.18  -0.01
   8   1     0.01  -0.00   0.11     0.06   0.01   0.03    -0.03  -0.07   0.06
   9   1     0.02   0.02   0.10    -0.06  -0.11   0.01    -0.10  -0.13   0.05
  10   1     0.19   0.20   0.10     0.07   0.02   0.02     0.11   0.08   0.04
  11   1     0.13   0.03  -0.07    -0.04   0.06  -0.02     0.16  -0.02  -0.01
  12   1     0.03  -0.23  -0.05    -0.03   0.03   0.02     0.07  -0.12  -0.02
  13   1    -0.08  -0.00   0.09    -0.03   0.05   0.02     0.01  -0.00   0.07
  14   1    -0.04  -0.11   0.04    -0.02   0.03   0.02    -0.05   0.12   0.14
  15   1    -0.13  -0.09   0.04     0.07   0.64  -0.13    -0.05  -0.33   0.15
  16   1    -0.10   0.03   0.06     0.06   0.03  -0.03    -0.18  -0.07  -0.03
  17   1     0.05  -0.18  -0.02     0.02   0.00  -0.01     0.05   0.25   0.07
  18   1     0.07   0.08  -0.05     0.05   0.07  -0.01    -0.05  -0.12   0.05
  19   1     0.11   0.05  -0.07     0.05   0.08  -0.02     0.02   0.19   0.07
  20   1     0.01   0.00  -0.02    -0.01  -0.03   0.02    -0.15   0.12  -0.03
  21   1    -0.01   0.03  -0.05    -0.05   0.00   0.00     0.10  -0.06   0.15
  22   1    -0.08   0.08  -0.08     0.06  -0.07   0.05     0.14  -0.07   0.16
                     16                     17                     18
                        a                      a                      a 
 Frequencies --   892.2507               932.9134               935.6881
 Red. masses --     8.2743                 3.4799                 3.2675
 Frc consts  --     0.0000                 0.0000                 0.0000
 IR Inten    --     0.3976                 1.2808                 1.1319
 Raman Activ --     0.0000                 0.0000                 0.0000
 Depolar     --     0.0000                 0.0000                 0.0000
 Atom AN      X      Y      Z        X      Y      Z        X      Y      Z
   1   6    -0.19  -0.28  -0.10     0.11   0.08  -0.09    -0.15   0.08   0.17
   2   6     0.17   0.02  -0.23    -0.13  -0.05   0.01    -0.04   0.15   0.06
   3   6    -0.10   0.36   0.10    -0.11  -0.13   0.03     0.17  -0.02  -0.18
   4   7     0.23  -0.06   0.12    -0.02   0.01   0.06    -0.05  -0.02   0.05
   5   6     0.17   0.14   0.09     0.03   0.16  -0.05     0.03   0.10  -0.04
   6   6    -0.03  -0.30   0.03    -0.15  -0.11  -0.15    -0.06  -0.06  -0.10
   7   6    -0.12   0.22  -0.11     0.17   0.14   0.09     0.10   0.09   0.05
   8   1    -0.18  -0.18   0.05    -0.07  -0.07   0.06     0.31   0.26  -0.10
   9   1    -0.09  -0.08   0.05    -0.02   0.02   0.06    -0.02  -0.13  -0.11
  10   1     0.03   0.06   0.04     0.13   0.18   0.05    -0.15  -0.31  -0.08
  11   1     0.13  -0.05  -0.06     0.02   0.15   0.06    -0.03  -0.22  -0.06
  12   1     0.03  -0.11  -0.01    -0.00   0.20   0.08     0.06  -0.34  -0.13
  13   1    -0.09   0.15   0.17     0.15  -0.19  -0.19    -0.13   0.14   0.20
  14   1    -0.08   0.12   0.15     0.04   0.10  -0.01    -0.05  -0.11   0.04
  15   1     0.02  -0.09   0.05    -0.02  -0.08   0.03    -0.01  -0.04   0.02
  16   1     0.04   0.02   0.03     0.06  -0.17   0.05     0.04  -0.10   0.03
  17   1    -0.02  -0.08  -0.01     0.04  -0.10   0.09     0.03  -0.03   0.06
  18   1    -0.02  -0.03  -0.01     0.00  -0.33   0.08    -0.01  -0.20   0.05
  19   1    -0.04  -0.15  -0.02     0.11   0.27   0.08     0.05   0.15   0.05
  20   1    -0.04  -0.04   0.00     0.14  -0.24   0.10     0.08  -0.14   0.06
  21   1    -0.22   0.10  -0.12    -0.29   0.11  -0.20    -0.17   0.06  -0.12
  22   1     0.00  -0.05   0.01     0.08  -0.18   0.03     0.05  -0.11   0.01
                     19                     20                     21
                        a                      a                      a 
 Frequencies --   948.2549               963.8748               969.7633
 Red. masses --     5.9618                 4.0873                 4.4563
 Frc consts  --     0.0000                 0.0000                 0.0000
 IR Inten    --     2.9952                 0.2491                 1.4524
 Raman Activ --     0.0000                 0.0000                 0.0000
 Depolar     --     0.0000                 0.0000                 0.0000
 Atom AN      X      Y      Z        X      Y      Z        X      Y      Z
   1   6     0.00  -0.23   0.00    -0.30  -0.03  -0.14     0.13   0.08   0.04
   2   6     0.28  -0.07  -0.04     0.06   0.16   0.04    -0.09  -0.08  -0.01
   3   6     0.04   0.22   0.13     0.25  -0.15   0.08    -0.12   0.03  -0.05
   4   7     0.01   0.06  -0.18     0.01   0.03   0.02    -0.03  -0.13   0.05
   5   6    -0.26  -0.10   0.00     0.05  -0.04   0.04     0.13  -0.10   0.06
   6   6    -0.10   0.22  -0.11     0.11   0.01  -0.05     0.28   0.04  -0.13
   7   6    -0.00  -0.12   0.20    -0.13   0.05   0.01    -0.29   0.13   0.04
   8   1    -0.21  -0.14  -0.01     0.09  -0.02   0.10     0.01   0.03  -0.03
   9   1     0.08   0.14   0.00    -0.26  -0.36   0.07     0.09   0.11  -0.02
  10   1    -0.10  -0.01  -0.00     0.19   0.08   0.06    -0.04  -0.01  -0.02
  11   1     0.03  -0.03  -0.02     0.06   0.23   0.07    -0.01  -0.10  -0.02
  12   1    -0.06  -0.00   0.00    -0.14   0.15   0.01     0.07  -0.04   0.00
  13   1    -0.13   0.19   0.12    -0.11   0.12  -0.04     0.08  -0.09  -0.01
  14   1    -0.01  -0.08  -0.03     0.11  -0.34  -0.29    -0.04   0.17   0.13
  15   1     0.02   0.10  -0.07    -0.00  -0.01   0.01    -0.01   0.02   0.00
  16   1     0.04  -0.16   0.03     0.03  -0.09   0.04     0.11  -0.20   0.07
  17   1     0.04  -0.07   0.07     0.01   0.20   0.02     0.04   0.49   0.05
  18   1     0.04  -0.15   0.05    -0.07  -0.08   0.02    -0.15  -0.17   0.05
  19   1     0.13   0.34   0.06    -0.06  -0.06   0.04    -0.14  -0.15   0.09
  20   1     0.23  -0.12   0.05     0.07  -0.03   0.00     0.17  -0.08   0.01
  21   1     0.14  -0.07  -0.03     0.01   0.00  -0.05     0.01   0.01  -0.11
  22   1    -0.14   0.11  -0.17    -0.10   0.08  -0.11    -0.23   0.17  -0.23
                     22                     23                     24
                        a                      a                      a 
 Frequencies --  1023.6016              1116.0673              1123.1082
 Red. masses --     5.1086                 7.4873                 7.6845
 Frc consts  --     0.0000                 0.0000                 0.0000
 IR Inten    --     2.9415                 6.4372                 5.0690
 Raman Activ --     0.0000                 0.0000                 0.0000
 Depolar     --     0.0000                 0.0000                 0.0000
 Atom AN      X      Y      Z        X      Y      Z        X      Y      Z
   1   6    -0.15   0.12  -0.07     0.01  -0.23  -0.01    -0.09  -0.07   0.18
   2   6    -0.10   0.06   0.05     0.04   0.35   0.24     0.06   0.22  -0.25
   3   6    -0.14  -0.05  -0.15     0.06  -0.11  -0.21    -0.08  -0.10   0.06
   4   7     0.39   0.01   0.02    -0.29   0.02   0.02     0.28  -0.02   0.02
   5   6    -0.07  -0.06  -0.05     0.05  -0.29  -0.16     0.14  -0.36   0.27
   6   6    -0.15   0.05   0.08     0.04   0.13   0.16    -0.08   0.19  -0.00
   7   6    -0.15  -0.08   0.13     0.02   0.17  -0.00    -0.13   0.11  -0.22
   8   1     0.15   0.07   0.05    -0.20  -0.15   0.01     0.04   0.08  -0.07
   9   1    -0.16  -0.24   0.02     0.05   0.12   0.04     0.05   0.02  -0.07
  10   1     0.13   0.03   0.02    -0.07   0.04   0.01    -0.19  -0.19  -0.05
  11   1     0.10  -0.01   0.03     0.13   0.16   0.11    -0.15   0.16  -0.07
  12   1     0.12  -0.10  -0.02     0.10  -0.18  -0.07    -0.03   0.15   0.05
  13   1     0.12  -0.16  -0.03     0.04  -0.06   0.02     0.07  -0.10  -0.13
  14   1    -0.05   0.21   0.16    -0.01   0.01   0.04     0.04   0.04  -0.04
  15   1     0.32  -0.07   0.01     0.17  -0.01  -0.00    -0.11  -0.02   0.02
  16   1     0.14   0.02  -0.04     0.20  -0.09  -0.05    -0.03  -0.24   0.12
  17   1    -0.02  -0.24  -0.02    -0.03  -0.02  -0.06     0.02  -0.08   0.03
  18   1     0.09   0.10  -0.02     0.06   0.24  -0.04     0.06   0.01   0.01
  19   1     0.08   0.11  -0.04     0.01  -0.06  -0.06     0.08   0.18   0.01
  20   1     0.16  -0.03   0.01     0.05  -0.11   0.04    -0.18   0.09  -0.06
  21   1     0.17  -0.07   0.00    -0.17   0.08  -0.13    -0.10   0.04   0.00
  22   1    -0.18   0.17  -0.17     0.02  -0.09  -0.01     0.02  -0.02   0.04
                     25                     26                     27
                        a                      a                      a 
 Frequencies --  1135.8687              1176.5039              1181.1176
 Red. masses --     7.7184                 7.1970                 7.8888
 Frc consts  --     0.0000                 0.0000                 0.0000
 IR Inten    --    57.2015                18.8612                87.2629
 Raman Activ --     0.0000                 0.0000                 0.0000
 Depolar     --     0.0000                 0.0000                 0.0000
 Atom AN      X      Y      Z        X      Y      Z        X      Y      Z
   1   6    -0.05  -0.24   0.09     0.10   0.00  -0.09     0.21   0.00  -0.11
   2   6     0.02   0.45   0.04    -0.19  -0.04   0.17    -0.56   0.02  -0.04
   3   6     0.01  -0.15  -0.17     0.10   0.02  -0.07     0.21   0.05  -0.06
   4   7     0.12  -0.15   0.02    -0.20   0.01   0.05     0.37  -0.04   0.08
   5   6    -0.04   0.38   0.07     0.50   0.07   0.14    -0.13  -0.10   0.04
   6   6    -0.00  -0.19  -0.15    -0.19   0.00  -0.10     0.03   0.04   0.03
   7   6     0.00  -0.17   0.07    -0.21  -0.10  -0.20     0.02   0.05   0.03
   8   1    -0.15  -0.08  -0.03    -0.07  -0.07   0.03    -0.14  -0.10   0.00
   9   1     0.06   0.11  -0.01     0.01   0.06   0.04     0.07   0.15   0.04
  10   1    -0.16  -0.07  -0.01     0.07   0.12   0.03     0.04   0.17   0.02
  11   1    -0.06   0.30   0.05     0.02  -0.04   0.05    -0.33   0.05  -0.03
  12   1     0.07  -0.07  -0.04     0.00  -0.11  -0.05    -0.05  -0.14  -0.08
  13   1     0.07  -0.10  -0.05    -0.05   0.07   0.08    -0.13   0.17   0.11
  14   1     0.01   0.05   0.02    -0.02  -0.08  -0.00    -0.01  -0.18  -0.06
  15   1     0.01   0.03  -0.00    -0.09   0.02   0.01     0.15  -0.11   0.04
  16   1    -0.17   0.18   0.00     0.31  -0.03   0.04    -0.14  -0.06   0.03
  17   1     0.01   0.09   0.04     0.03  -0.18   0.06     0.00   0.00  -0.00
  18   1    -0.07  -0.22   0.03     0.07  -0.15   0.03    -0.01   0.04  -0.00
  19   1    -0.03  -0.00   0.05     0.10   0.22   0.01    -0.01  -0.02   0.00
  20   1     0.02   0.07  -0.02    -0.14   0.20  -0.11     0.01  -0.04   0.02
  21   1     0.18  -0.08   0.11     0.15  -0.06   0.11    -0.06   0.02  -0.03
  22   1    -0.03   0.09  -0.01    -0.06   0.14  -0.02     0.00  -0.03  -0.00
                     28                     29                     30
                        a                      a                      a 
 Frequencies --  1206.5089              1270.5432              1305.7378
 Red. masses --     8.2763                 4.1541                 3.9136
 Frc consts  --     0.0000                 0.0000                 0.0000
 IR Inten    --    27.3526                19.5260                32.8046
 Raman Activ --     0.0000                 0.0000                 0.0000
 Depolar     --     0.0000                 0.0000                 0.0000
 Atom AN      X      Y      Z        X      Y      Z        X      Y      Z
   1   6    -0.05   0.04  -0.14    -0.03   0.05  -0.03    -0.03   0.02   0.17
   2   6     0.11  -0.10   0.37     0.16  -0.21   0.14    -0.08  -0.37  -0.18
   3   6    -0.04   0.04  -0.18    -0.00   0.06  -0.16     0.05   0.09  -0.09
   4   7     0.10   0.03  -0.36     0.01  -0.01   0.01    -0.02   0.05   0.06
   5   6    -0.22  -0.09   0.41     0.27  -0.03  -0.22    -0.13  -0.07   0.07
   6   6     0.06   0.03  -0.10    -0.06   0.04   0.10     0.02  -0.05  -0.07
   7   6     0.09   0.02  -0.17    -0.05   0.03   0.14     0.02   0.01  -0.04
   8   1     0.01  -0.05   0.07     0.05   0.01   0.04     0.11   0.12  -0.05
   9   1    -0.09  -0.09   0.05    -0.03  -0.04   0.01     0.08   0.06  -0.07
  10   1     0.13   0.10   0.03     0.05   0.00   0.01    -0.04  -0.08   0.00
  11   1     0.01   0.04   0.10    -0.31   0.36   0.07     0.17   0.64   0.19
  12   1     0.10  -0.17  -0.06     0.05  -0.10  -0.05    -0.01  -0.04  -0.04
  13   1     0.03  -0.03   0.08    -0.01   0.02   0.10    -0.07   0.10   0.10
  14   1    -0.06   0.10   0.13    -0.06   0.07   0.11    -0.04   0.02   0.07
  15   1     0.03   0.19  -0.12    -0.43   0.03   0.02     0.11  -0.03   0.02
  16   1    -0.13  -0.11   0.13    -0.41  -0.07   0.01     0.30   0.21  -0.09
  17   1     0.02   0.12   0.04    -0.02  -0.10  -0.03     0.00   0.08   0.01
  18   1    -0.05  -0.10   0.03     0.06   0.09  -0.01    -0.03  -0.01  -0.01
  19   1    -0.03   0.03   0.06     0.03  -0.01  -0.06     0.01   0.05   0.04
  20   1    -0.18   0.06  -0.03     0.10  -0.04   0.03    -0.02   0.00  -0.00
  21   1    -0.09   0.03   0.06     0.01   0.00  -0.08    -0.02   0.01   0.02
  22   1     0.12  -0.08   0.12    -0.10   0.05  -0.11     0.03  -0.03   0.03
                     31                     32                     33
                        a                      a                      a 
 Frequencies --  1308.8590              1341.6991              1389.8434
 Red. masses --     3.8704                 3.1960                 3.2284
 Frc consts  --     0.0000                 0.0000                 0.0000
 IR Inten    --    16.9193                 1.9258                 4.6574
 Raman Activ --     0.0000                 0.0000                 0.0000
 Depolar     --     0.0000                 0.0000                 0.0000
 Atom AN      X      Y      Z        X      Y      Z        X      Y      Z
   1   6     0.00   0.01  -0.05     0.00   0.06  -0.10     0.20   0.20   0.02
   2   6     0.06   0.05   0.04     0.29   0.01   0.05    -0.04  -0.03   0.01
   3   6    -0.02  -0.01   0.01    -0.03  -0.02  -0.06    -0.05   0.16   0.07
   4   7    -0.05   0.03   0.01    -0.02  -0.01   0.18     0.05  -0.00   0.01
   5   6     0.14  -0.38   0.15    -0.22   0.03  -0.03    -0.06   0.04  -0.03
   6   6    -0.05  -0.01  -0.18     0.04   0.00  -0.03    -0.05  -0.22   0.03
   7   6    -0.00   0.11   0.10    -0.01   0.00  -0.08     0.12  -0.10   0.06
   8   1    -0.02  -0.02   0.01    -0.05  -0.06   0.05    -0.29  -0.13   0.03
   9   1    -0.02  -0.02   0.02    -0.08  -0.10   0.03    -0.13  -0.31   0.04
  10   1     0.02   0.02   0.00     0.02   0.00  -0.02    -0.22  -0.20  -0.11
  11   1    -0.13  -0.13  -0.06    -0.67   0.01  -0.13     0.04   0.04   0.03
  12   1     0.01   0.01   0.01     0.03   0.02   0.00     0.05  -0.21  -0.04
  13   1     0.02  -0.02  -0.01     0.00  -0.01   0.03     0.14  -0.12  -0.10
  14   1     0.01  -0.00  -0.01    -0.01   0.07   0.05    -0.00  -0.16  -0.13
  15   1     0.04   0.01  -0.00    -0.05  -0.07   0.06    -0.11   0.01   0.00
  16   1    -0.15   0.73  -0.22     0.51   0.03  -0.06     0.08  -0.04   0.00
  17   1     0.04   0.08   0.08     0.01   0.02   0.00    -0.04   0.28   0.02
  18   1     0.02  -0.10  -0.00    -0.02  -0.03   0.01     0.07   0.23  -0.10
  19   1     0.05   0.17   0.05    -0.03  -0.03   0.02     0.15   0.20   0.02
  20   1     0.01  -0.03   0.04     0.02  -0.03  -0.01    -0.13   0.12  -0.02
  21   1    -0.12   0.05  -0.10     0.07  -0.02   0.06    -0.17   0.03  -0.06
  22   1    -0.07   0.01  -0.09     0.07  -0.07   0.08    -0.07   0.14  -0.11
                     34                     35                     36
                        a                      a                      a 
 Frequencies --  1393.7688              1404.1661              1407.1149
 Red. masses --     3.2664                 3.5026                 3.2133
 Frc consts  --     0.0000                 0.0000                 0.0000
 IR Inten    --     4.4416                65.8878                 4.7212
 Raman Activ --     0.0000                 0.0000                 0.0000
 Depolar     --     0.0000                 0.0000                 0.0000
 Atom AN      X      Y      Z        X      Y      Z        X      Y      Z
   1   6     0.16   0.17   0.04     0.11   0.06  -0.00     0.08   0.04  -0.01
   2   6    -0.03  -0.07  -0.03    -0.12   0.09   0.08    -0.09   0.05   0.05
   3   6    -0.05   0.14   0.07     0.09  -0.17  -0.10     0.08  -0.14  -0.08
   4   7    -0.03   0.01  -0.02     0.20  -0.00  -0.00     0.10  -0.00  -0.03
   5   6     0.06  -0.05   0.04    -0.14  -0.07  -0.06     0.00  -0.04  -0.01
   6   6     0.04   0.24  -0.02     0.07   0.16  -0.01    -0.06  -0.20  -0.00
   7   6    -0.16   0.14  -0.08     0.13  -0.06   0.07    -0.22   0.17  -0.11
   8   1    -0.23  -0.10   0.02    -0.13  -0.06   0.01    -0.09  -0.05   0.01
   9   1    -0.09  -0.25   0.02    -0.07  -0.13   0.06    -0.05  -0.08   0.04
  10   1    -0.18  -0.18  -0.09    -0.14  -0.06  -0.05    -0.09  -0.04  -0.04
  11   1     0.07   0.09   0.04     0.22  -0.07   0.05     0.14  -0.07   0.02
  12   1     0.06  -0.19  -0.03    -0.10   0.21   0.03    -0.09   0.19   0.03
  13   1     0.13  -0.11  -0.09    -0.15   0.13   0.10    -0.13   0.11   0.09
  14   1     0.00  -0.14  -0.13    -0.02   0.16   0.19    -0.02   0.13   0.15
  15   1     0.06   0.01  -0.01    -0.45   0.06   0.01    -0.21   0.04  -0.01
  16   1    -0.08   0.08  -0.01     0.21   0.10  -0.08    -0.01   0.03  -0.02
  17   1     0.03  -0.28  -0.04     0.01  -0.21  -0.06    -0.02   0.24   0.06
  18   1    -0.06  -0.29   0.12    -0.10  -0.17   0.07     0.07   0.24  -0.10
  19   1    -0.15  -0.23  -0.06    -0.12  -0.17  -0.01     0.13   0.21   0.06
  20   1     0.17  -0.17   0.03    -0.15   0.08  -0.00     0.25  -0.24   0.04
  21   1     0.23  -0.04   0.09    -0.15   0.03  -0.06     0.32  -0.06   0.13
  22   1     0.10  -0.18   0.15    -0.08   0.09  -0.14     0.14  -0.25   0.21
                     37                     38                     39
                        a                      a                      a 
 Frequencies --  1409.4448              1480.6409              1484.6563
 Red. masses --     3.2734                 1.5832                 1.5831
 Frc consts  --     0.0000                 0.0000                 0.0000
 IR Inten    --    25.6453                 0.2248                 0.8955
 Raman Activ --     0.0000                 0.0000                 0.0000
 Depolar     --     0.0000                 0.0000                 0.0000
 Atom AN      X      Y      Z        X      Y      Z        X      Y      Z
   1   6     0.13   0.15   0.02     0.09  -0.06  -0.17     0.01  -0.01  -0.00
   2   6     0.07  -0.08  -0.07     0.01  -0.05  -0.04     0.00  -0.01  -0.02
   3   6     0.08  -0.18  -0.10    -0.05  -0.03   0.05    -0.03   0.00  -0.02
   4   7    -0.24   0.01  -0.01    -0.01   0.00   0.00    -0.02  -0.00   0.00
   5   6     0.15   0.07   0.06     0.01  -0.00   0.00    -0.00   0.06   0.01
   6   6    -0.01   0.01  -0.01     0.02  -0.01  -0.00    -0.05  -0.01  -0.07
   7   6     0.03  -0.05   0.02    -0.01  -0.01  -0.00     0.08   0.14   0.11
   8   1    -0.20  -0.09   0.02     0.35   0.01   0.20     0.02   0.02  -0.02
   9   1    -0.08  -0.23   0.01    -0.24   0.18   0.60    -0.02  -0.00   0.04
  10   1    -0.14  -0.16  -0.08    -0.45   0.06  -0.10    -0.05   0.03  -0.00
  11   1    -0.13   0.05  -0.03     0.01   0.04   0.01    -0.00   0.01  -0.00
  12   1    -0.08   0.29   0.05     0.14  -0.08   0.02     0.09   0.04   0.03
  13   1    -0.20   0.17   0.15    -0.10   0.09  -0.06     0.01  -0.02   0.08
  14   1    -0.00   0.21   0.18     0.13   0.13  -0.14     0.01  -0.03  -0.05
  15   1     0.51  -0.06  -0.02     0.03  -0.00  -0.00     0.04  -0.01   0.00
  16   1    -0.22  -0.10   0.08    -0.01  -0.00   0.00     0.01  -0.04   0.02
  17   1     0.02  -0.04   0.03    -0.01  -0.03  -0.04     0.11  -0.00   0.23
  18   1     0.00   0.01  -0.00    -0.08   0.02  -0.00     0.18   0.06  -0.04
  19   1    -0.02   0.00   0.03    -0.01   0.03   0.05    -0.11  -0.07   0.07
  20   1    -0.03   0.09  -0.03     0.03   0.02  -0.01    -0.48  -0.06   0.09
  21   1    -0.08   0.01  -0.04    -0.01   0.00  -0.02     0.33  -0.06  -0.11
  22   1    -0.03   0.09  -0.02     0.01   0.02   0.03    -0.16  -0.47  -0.42
                     40                     41                     42
                        a                      a                      a 
 Frequencies --  1488.6482              1489.7919              1495.7633
 Red. masses --     1.5643                 1.5840                 1.5503
 Frc consts  --     0.0000                 0.0000                 0.0000
 IR Inten    --     0.6436                 0.9827                 0.2684
 Raman Activ --     0.0000                 0.0000                 0.0000
 Depolar     --     0.0000                 0.0000                 0.0000
 Atom AN      X      Y      Z        X      Y      Z        X      Y      Z
   1   6     0.07  -0.08   0.03    -0.06   0.07  -0.08    -0.00  -0.01  -0.06
   2   6     0.01  -0.01  -0.02     0.01   0.01  -0.02     0.02   0.02  -0.03
   3   6    -0.03   0.04  -0.09     0.11   0.00   0.05     0.10   0.08  -0.06
   4   7    -0.01   0.00   0.01    -0.02  -0.00   0.00     0.01  -0.00  -0.00
   5   6    -0.01   0.00  -0.03     0.01   0.01  -0.00    -0.05  -0.00   0.02
   6   6    -0.10   0.03  -0.01    -0.07   0.02   0.05    -0.06   0.03  -0.01
   7   6     0.05  -0.01  -0.11     0.08   0.05  -0.08    -0.07  -0.05   0.09
   8   1     0.03   0.15  -0.24     0.09  -0.16   0.33     0.11  -0.03   0.12
   9   1    -0.09  -0.09   0.12     0.02   0.17   0.06    -0.05   0.10   0.16
  10   1    -0.22   0.27   0.04     0.10  -0.29  -0.07    -0.08  -0.05  -0.04
  11   1     0.00  -0.00  -0.01    -0.00   0.01  -0.00     0.02  -0.00  -0.01
  12   1     0.08   0.19   0.07    -0.33  -0.11  -0.11    -0.34   0.11  -0.06
  13   1     0.13  -0.13   0.29    -0.02   0.04  -0.28     0.20  -0.18   0.04
  14   1    -0.12  -0.21   0.03    -0.07   0.05   0.19    -0.27  -0.27   0.29
  15   1     0.01  -0.00   0.00     0.04  -0.02   0.00     0.02   0.00  -0.00
  16   1    -0.01   0.00  -0.01    -0.01   0.01  -0.00     0.02  -0.01   0.00
  17   1     0.07   0.09   0.18    -0.04   0.12  -0.02     0.05   0.07   0.14
  18   1     0.32  -0.06   0.01     0.18  -0.12   0.04     0.23  -0.06   0.01
  19   1    -0.00  -0.14  -0.15     0.11  -0.07  -0.22    -0.02  -0.11  -0.10
  20   1    -0.00  -0.26   0.08    -0.18  -0.30   0.12     0.16   0.33  -0.13
  21   1    -0.17   0.04   0.36    -0.05   0.02   0.34     0.06  -0.02  -0.38
  22   1    -0.02   0.24   0.00    -0.08   0.08  -0.14     0.08  -0.11   0.13
                     43                     44                     45
                        a                      a                      a 
 Frequencies --  1498.0776              1502.6125              1510.3066
 Red. masses --     1.5944                 1.5588                 1.5699
 Frc consts  --     0.0000                 0.0000                 0.0000
 IR Inten    --     0.9651                 0.4892                 0.7457
 Raman Activ --     0.0000                 0.0000                 0.0000
 Depolar     --     0.0000                 0.0000                 0.0000
 Atom AN      X      Y      Z        X      Y      Z        X      Y      Z
   1   6     0.06  -0.09   0.04    -0.04   0.05  -0.06     0.01  -0.03   0.01
   2   6     0.06  -0.02   0.01    -0.03   0.03  -0.04     0.04   0.00   0.01
   3   6     0.08   0.04   0.01    -0.04   0.06  -0.13     0.09   0.05   0.04
   4   7    -0.04  -0.00  -0.00    -0.01  -0.00   0.01    -0.02   0.00   0.00
   5   6     0.04   0.01   0.04     0.04   0.00   0.00     0.03   0.01  -0.05
   6   6     0.07  -0.02   0.11     0.11  -0.04   0.02     0.08  -0.03  -0.16
   7   6     0.02   0.05   0.02     0.02   0.03  -0.02     0.02  -0.00  -0.04
   8   1    -0.01   0.18  -0.30     0.07  -0.13   0.26     0.01   0.04  -0.06
   9   1    -0.08  -0.14   0.06     0.02   0.15   0.05    -0.02  -0.03   0.03
  10   1    -0.19   0.32   0.06     0.07  -0.23  -0.06    -0.05   0.08   0.01
  11   1    -0.05  -0.01  -0.01     0.01  -0.02  -0.01    -0.01   0.01  -0.00
  12   1    -0.30  -0.04  -0.09     0.11   0.26   0.09    -0.30  -0.10  -0.10
  13   1     0.06  -0.04  -0.15     0.20  -0.20   0.40     0.07  -0.05  -0.23
  14   1    -0.13  -0.05   0.20    -0.16  -0.32   0.03    -0.11  -0.04   0.17
  15   1     0.07  -0.00  -0.00     0.02  -0.00   0.00     0.00  -0.00   0.00
  16   1    -0.02   0.00   0.01    -0.01   0.00   0.00    -0.02  -0.02  -0.00
  17   1    -0.20   0.03  -0.41    -0.09  -0.11  -0.24     0.18  -0.25   0.26
  18   1    -0.30  -0.09   0.06    -0.38   0.07  -0.01    -0.18   0.29  -0.11
  19   1     0.21   0.15  -0.12     0.02   0.17   0.15    -0.33   0.06   0.50
  20   1    -0.15  -0.04   0.03    -0.08  -0.11   0.05     0.01  -0.12   0.04
  21   1     0.10  -0.02  -0.00     0.01   0.00   0.12    -0.07   0.02   0.15
  22   1    -0.05  -0.14  -0.12    -0.04   0.00  -0.07    -0.02   0.12  -0.00
                     46                     47                     48
                        a                      a                      a 
 Frequencies --  2892.0127              2904.5549              3015.3813
 Red. masses --     1.7276                 1.7324                 1.8227
 Frc consts  --     0.0000                 0.0000                 0.0000
 IR Inten    --    88.1871               124.2007                52.1821
 Raman Activ --     0.0000                 0.0000                 0.0000
 Depolar     --     0.0000                 0.0000                 0.0000
 Atom AN      X      Y      Z        X      Y      Z        X      Y      Z
   1   6     0.00   0.00   0.00    -0.00  -0.00  -0.01    -0.00  -0.00   0.00
   2   6     0.01   0.01  -0.03    -0.05  -0.06   0.24    -0.00  -0.00   0.00
   3   6    -0.00  -0.00  -0.00    -0.00   0.01  -0.00    -0.00  -0.01   0.01
   4   7    -0.01  -0.00   0.01     0.00  -0.00   0.01    -0.00   0.00   0.00
   5   6     0.03   0.08   0.24     0.00   0.01   0.03    -0.00  -0.00  -0.01
   6   6     0.00   0.00  -0.00    -0.00   0.00  -0.00    -0.02  -0.06  -0.26
   7   6     0.00  -0.00  -0.00     0.00  -0.00  -0.00     0.01   0.02   0.04
   8   1     0.00  -0.00  -0.00    -0.01   0.01   0.01    -0.00   0.00   0.00
   9   1    -0.00   0.00  -0.00     0.01  -0.01   0.01     0.00  -0.00   0.00
  10   1     0.00   0.00  -0.00    -0.01  -0.01   0.03     0.00   0.00  -0.01
  11   1    -0.03  -0.03   0.13     0.18   0.24  -0.91     0.00   0.00  -0.00
  12   1     0.00   0.00  -0.00    -0.01  -0.01   0.03     0.00   0.00  -0.02
  13   1     0.00   0.00   0.00    -0.01  -0.01  -0.00     0.02   0.02   0.00
  14   1     0.00  -0.00   0.00     0.02  -0.01   0.01    -0.01   0.00  -0.00
  15   1    -0.00   0.00   0.01     0.00  -0.00   0.02    -0.00  -0.00  -0.00
  16   1    -0.08  -0.30  -0.90    -0.01  -0.04  -0.13     0.00   0.00   0.02
  17   1    -0.01  -0.00   0.00    -0.00   0.00   0.00    -0.09  -0.02   0.00
  18   1     0.00   0.01   0.03    -0.00   0.00   0.00     0.04   0.32   0.87
  19   1     0.01  -0.01   0.01     0.01  -0.00   0.00     0.11  -0.09   0.04
  20   1     0.00   0.01   0.03    -0.00   0.00   0.00    -0.01  -0.05  -0.14
  21   1     0.00   0.01  -0.00     0.00   0.00   0.00    -0.01  -0.03   0.01
  22   1    -0.01  -0.00   0.01    -0.00  -0.00   0.00    -0.01   0.00   0.01
                     49                     50                     51
                        a                      a                      a 
 Frequencies --  3017.9201              3024.1583              3026.5869
 Red. masses --     1.8518                 1.8248                 1.9244
 Frc consts  --     0.0000                 0.0000                 0.0000
 IR Inten    --    63.8009                87.0967                90.5611
 Raman Activ --     0.0000                 0.0000                 0.0000
 Depolar     --     0.0000                 0.0000                 0.0000
 Atom AN      X      Y      Z        X      Y      Z        X      Y      Z
   1   6    -0.01   0.00   0.02     0.00  -0.00  -0.00    -0.02   0.01  -0.00
   2   6     0.00   0.00  -0.02    -0.00   0.00  -0.00     0.00   0.00   0.00
   3   6     0.05   0.11  -0.25    -0.03  -0.01   0.00     0.07   0.01   0.02
   4   7    -0.00   0.00   0.00    -0.00  -0.00  -0.00    -0.00   0.00  -0.00
   5   6    -0.00  -0.00  -0.00    -0.00   0.01   0.02     0.01  -0.00   0.01
   6   6    -0.01   0.00  -0.01    -0.10   0.04   0.03     0.24  -0.07   0.03
   7   6    -0.00   0.00   0.01     0.01   0.10   0.23    -0.03   0.02   0.10
   8   1     0.01  -0.02  -0.01     0.00  -0.00  -0.00     0.00  -0.01  -0.01
   9   1     0.02  -0.01   0.01    -0.01   0.01  -0.01     0.05  -0.02   0.03
  10   1     0.01   0.02  -0.06    -0.00  -0.00   0.02     0.00   0.01  -0.02
  11   1    -0.00  -0.01   0.03    -0.00  -0.00   0.00     0.00   0.00  -0.01
  12   1    -0.22  -0.24   0.87     0.01   0.01  -0.04     0.00  -0.01   0.03
  13   1    -0.11  -0.10  -0.04     0.04   0.04   0.00    -0.09  -0.10   0.00
  14   1     0.15  -0.04   0.05     0.05  -0.02   0.03    -0.15   0.07  -0.09
  15   1     0.00  -0.00  -0.00     0.00   0.00   0.00     0.00  -0.00   0.00
  16   1    -0.00   0.00   0.00     0.00  -0.01  -0.03    -0.00  -0.01  -0.01
  17   1     0.01   0.00  -0.01     0.21   0.04  -0.11    -0.44  -0.08   0.24
  18   1    -0.00   0.01   0.01    -0.02  -0.05  -0.15     0.04  -0.01   0.01
  19   1     0.03  -0.02   0.02     0.16  -0.12   0.13    -0.46   0.34  -0.36
  20   1    -0.00  -0.01  -0.03    -0.09  -0.28  -0.82    -0.04  -0.11  -0.32
  21   1    -0.00  -0.00   0.00    -0.03  -0.08   0.03    -0.00   0.01   0.02
  22   1     0.01   0.00  -0.00     0.09   0.03  -0.02     0.13   0.03  -0.07
                     52                     53                     54
                        a                      a                      a 
 Frequencies --  3029.4523              3034.1265              3036.5970
 Red. masses --     1.8843                 1.8745                 1.4085
 Frc consts  --     0.0000                 0.0000                 0.0000
 IR Inten    --     9.4553               106.3548                53.6585
 Raman Activ --     0.0000                 0.0000                 0.0000
 Depolar     --     0.0000                 0.0000                 0.0000
 Atom AN      X      Y      Z        X      Y      Z        X      Y      Z
   1   6     0.10  -0.05   0.03     0.17  -0.09   0.17    -0.01   0.01  -0.02
   2   6    -0.00  -0.00  -0.00     0.01  -0.00   0.01     0.00   0.00  -0.00
   3   6    -0.23  -0.02  -0.08     0.11   0.04   0.03     0.01   0.06   0.00
   4   7     0.00   0.00   0.00     0.00   0.00  -0.00    -0.00   0.00   0.00
   5   6     0.00  -0.00   0.00    -0.00   0.00   0.00    -0.00   0.00  -0.00
   6   6     0.07  -0.02   0.00    -0.01   0.01  -0.01     0.05   0.11  -0.11
   7   6    -0.01  -0.00   0.01     0.01   0.01  -0.00    -0.06  -0.02   0.03
   8   1    -0.02   0.06   0.05     0.02  -0.01   0.03     0.01  -0.02  -0.02
   9   1    -0.34   0.13  -0.18    -0.69   0.27  -0.36     0.05  -0.02   0.02
  10   1     0.01  -0.02   0.04     0.08   0.06  -0.26    -0.01  -0.01   0.05
  11   1    -0.00  -0.00   0.00     0.00   0.00  -0.02    -0.00  -0.00   0.01
  12   1    -0.03   0.01  -0.05     0.02   0.01   0.00     0.02   0.03  -0.09
  13   1     0.26   0.31  -0.01    -0.20  -0.22  -0.00    -0.20  -0.21  -0.00
  14   1     0.59  -0.25   0.34    -0.20   0.09  -0.12     0.13  -0.04   0.07
  15   1     0.00  -0.00  -0.00    -0.00   0.00   0.00    -0.00   0.00  -0.00
  16   1    -0.00  -0.00   0.00     0.00  -0.00  -0.00     0.00   0.00   0.01
  17   1    -0.15  -0.02   0.08     0.00   0.00  -0.00    -0.59  -0.07   0.28
  18   1     0.01   0.00   0.01    -0.00  -0.00  -0.01    -0.00  -0.04  -0.15
  19   1    -0.11   0.09  -0.09     0.04  -0.03   0.03     0.41  -0.27   0.27
  20   1    -0.00  -0.00  -0.01     0.00  -0.00  -0.01    -0.01   0.01   0.03
  21   1     0.00   0.01   0.00    -0.00  -0.02  -0.00    -0.00   0.02   0.00
  22   1     0.04   0.01  -0.02    -0.05  -0.01   0.03     0.23   0.04  -0.13
                     55                     56                     57
                        a                      a                      a 
 Frequencies --  3039.0141              3040.1191              3041.6790
 Red. masses --     1.3865                 1.7674                 1.7085
 Frc consts  --     0.0000                 0.0000                 0.0000
 IR Inten    --    27.9715                83.0624                72.5684
 Raman Activ --     0.0000                 0.0000                 0.0000
 Depolar     --     0.0000                 0.0000                 0.0000
 Atom AN      X      Y      Z        X      Y      Z        X      Y      Z
   1   6     0.02  -0.02   0.03     0.12  -0.02  -0.23    -0.02   0.01   0.00
   2   6    -0.00  -0.01   0.00     0.01   0.00  -0.01    -0.00   0.00  -0.00
   3   6    -0.02  -0.16   0.00     0.05  -0.00  -0.00    -0.01  -0.01  -0.00
   4   7     0.00   0.00  -0.00     0.00   0.00   0.00     0.00  -0.00   0.00
   5   6    -0.00  -0.00  -0.00     0.00  -0.00  -0.00     0.01   0.00  -0.01
   6   6     0.02   0.04  -0.04     0.00   0.00  -0.00     0.06   0.03  -0.03
   7   6    -0.04  -0.02   0.02     0.01   0.00  -0.01     0.21   0.08  -0.08
   8   1    -0.00   0.01   0.01    -0.10   0.24   0.12     0.01  -0.02  -0.01
   9   1    -0.07   0.03  -0.04    -0.18   0.07  -0.14     0.05  -0.02   0.03
  10   1     0.02   0.03  -0.10    -0.16  -0.25   0.81     0.00   0.01  -0.03
  11   1     0.00   0.00  -0.02    -0.00  -0.00   0.02    -0.00  -0.00   0.00
  12   1    -0.05  -0.08   0.20    -0.01  -0.02   0.09    -0.00  -0.00   0.01
  13   1     0.52   0.52   0.02    -0.02  -0.03  -0.00     0.05   0.05   0.00
  14   1    -0.40   0.14  -0.22    -0.14   0.06  -0.08     0.00  -0.00   0.00
  15   1     0.00  -0.00   0.00     0.00   0.00  -0.00    -0.00  -0.00  -0.00
  16   1     0.00   0.00   0.00    -0.00   0.00   0.00     0.00   0.00   0.01
  17   1    -0.22  -0.03   0.10    -0.01  -0.00   0.01    -0.28  -0.04   0.14
  18   1    -0.00  -0.02  -0.07     0.00   0.00   0.00     0.01  -0.03  -0.08
  19   1     0.14  -0.09   0.09     0.01  -0.01   0.00     0.07  -0.04   0.04
  20   1    -0.00   0.00   0.02     0.00  -0.00  -0.00     0.02  -0.03  -0.14
  21   1     0.00   0.04   0.00     0.00   0.00  -0.00    -0.01  -0.15  -0.01
  22   1     0.13   0.02  -0.08    -0.04  -0.01   0.03    -0.75  -0.11   0.44
                     58                     59                     60
                        a                      a                      a 
 Frequencies --  3051.3817              3053.2803              3384.1610
 Red. masses --     1.5123                 1.5728                 1.8242
 Frc consts  --     0.0000                 0.0000                 0.0000
 IR Inten    --    29.5443                44.4328                13.2675
 Raman Activ --     0.0000                 0.0000                 0.0000
 Depolar     --     0.0000                 0.0000                 0.0000
 Atom AN      X      Y      Z        X      Y      Z        X      Y      Z
   1   6    -0.05   0.20   0.07    -0.00   0.02   0.00     0.00   0.00  -0.00
   2   6    -0.00   0.01   0.00    -0.00   0.00   0.00     0.00  -0.00  -0.01
   3   6    -0.01  -0.01  -0.00    -0.00  -0.00  -0.00    -0.00  -0.00   0.00
   4   7     0.00  -0.00  -0.00    -0.00  -0.00   0.00    -0.01  -0.04  -0.25
   5   6    -0.00  -0.00   0.00     0.00   0.01   0.00    -0.00  -0.01  -0.01
   6   6    -0.00  -0.00   0.00     0.01  -0.00   0.01    -0.00   0.00   0.00
   7   6    -0.00  -0.03  -0.00     0.02   0.22  -0.01     0.00   0.00  -0.00
   8   1     0.33  -0.72  -0.46     0.03  -0.07  -0.05     0.00   0.00  -0.00
   9   1    -0.11   0.07  -0.05    -0.01   0.01  -0.00     0.00  -0.00   0.00
  10   1    -0.07  -0.05   0.28    -0.01  -0.01   0.04    -0.00  -0.00   0.00
  11   1     0.00   0.00  -0.01     0.00   0.00  -0.00    -0.00  -0.00   0.01
  12   1    -0.00  -0.00  -0.00    -0.00  -0.00   0.01    -0.00   0.00   0.00
  13   1     0.03   0.03   0.00     0.01   0.01   0.00     0.00   0.00  -0.00
  14   1    -0.01   0.00  -0.00    -0.01   0.00  -0.00     0.00  -0.00   0.00
  15   1    -0.00   0.00   0.00    -0.00   0.00  -0.00     0.04   0.20   0.95
  16   1     0.00   0.00   0.00    -0.00  -0.00  -0.01     0.00   0.00   0.00
  17   1     0.01   0.00  -0.00     0.00  -0.00   0.00    -0.00  -0.00   0.00
  18   1     0.00   0.00   0.01     0.00  -0.00  -0.00     0.00   0.00   0.00
  19   1    -0.01   0.01  -0.01    -0.02   0.02  -0.02     0.00  -0.00   0.00
  20   1    -0.00  -0.00  -0.00     0.02   0.07   0.11     0.00   0.00   0.00
  21   1     0.03   0.10  -0.00    -0.23  -0.92   0.00    -0.00  -0.00  -0.00
  22   1    -0.02  -0.01   0.01     0.14   0.05  -0.08    -0.00  -0.00   0.00
