      -----------------------------------------------------------      
     |                   =====================                   |     
     |                           x T B                           |     
     |                   =====================                   |     
     |                         S. Grimme                         |     
     |          Mulliken Center for Theoretical Chemistry        |     
     |                    University of Bonn                     |     
      -----------------------------------------------------------      

   * xtb version 6.7.1 (edcfbbe) compiled by 'albert@albert-system' on 2024-07-22

   xtb is free software: you can redistribute it and/or modify it under
   the terms of the GNU Lesser General Public License as published by
   the Free Software Foundation, either version 3 of the License, or
   (at your option) any later version.
   
   xtb is distributed in the hope that it will be useful,
   but WITHOUT ANY WARRANTY; without even the implied warranty of
   MERCHANTABILITY or FITNESS FOR A PARTICULAR PURPOSE.  See the
   GNU Lesser General Public License for more details.
   
   Cite this work as:
   * C. Bannwarth, E. Caldeweyher, S. Ehlert, A. Hansen, P. Pracht,
     J. Seibert, S. Spicher, S. Grimme, WIREs Comput. Mol. Sci., 2020, 11,
     e01493. DOI: 10.1002/wcms.1493
   
   for GFN2-xTB:
   * C. Bannwarth, S. Ehlert and S. Grimme., J. Chem. Theory Comput., 2019,
     15, 1652-1671. DOI: 10.1021/acs.jctc.8b01176
   for GFN1-xTB:
   * S. Grimme, C. Bannwarth, P. Shushkov, J. Chem. Theory Comput., 2017,
     13, 1989-2009. DOI: 10.1021/acs.jctc.7b00118
   for GFN0-xTB:
   * P. Pracht, E. Caldeweyher, S. Ehlert, S. Grimme, ChemRxiv, 2019, preprint.
     DOI: 10.26434/chemrxiv.8326202.v1
   for GFN-FF:
   * S. Spicher and S. Grimme, Angew. Chem. Int. Ed., 2020, 59, 15665-15673.
     DOI: 10.1002/anie.202004239
   
   for ALPB and GBSA implicit solvation:
   * S. Ehlert, M. Stahn, S. Spicher, S. Grimme, J. Chem. Theory Comput.,
     2021, 17, 4250-4261. DOI: 10.1021/acs.jctc.1c00471
   
   for ddCOSMO and CPCM-X implicit solvation:
   * M. Stahn, S. Ehlert, S. Grimme, J. Phys. Chem. A,
     2023, XX, XXXX-XXXX. DOI: 10.1021/acs.jpca.3c04382
   
   for DFT-D4:
   * E. Caldeweyher, C. Bannwarth and S. Grimme, J. Chem. Phys., 2017,
     147, 034112. DOI: 10.1063/1.4993215
   * E. Caldeweyher, S. Ehlert, A. Hansen, H. Neugebauer, S. Spicher,
     C. Bannwarth and S. Grimme, J. Chem. Phys., 2019, 150, 154122.
     DOI: 10.1063/1.5090222
   * E. Caldeweyher, J.-M. Mewes, S. Ehlert and S. Grimme, Phys. Chem. Chem. Phys.
     2020, 22, 8499-8512. DOI: 10.1039/D0CP00502A
   
   for sTDA-xTB:
   * S. Grimme and C. Bannwarth, J. Chem. Phys., 2016, 145, 054103.
     DOI: 10.1063/1.4959605
   
   in the mass-spec context:
   * V. Asgeirsson, C. Bauer and S. Grimme, Chem. Sci., 2017, 8, 4879.
     DOI: 10.1039/c7sc00601b
   * J. Koopman and S. Grimme, ACS Omega 2019, 4, 12, 15120-15133.
     DOI: 10.1021/acsomega.9b02011
   
   for metadynamics refer to:
   * S. Grimme, J. Chem. Theory Comput., 2019, 155, 2847-2862
     DOI: 10.1021/acs.jctc.9b00143
   
   for SPH calculations refer to:
   * S. Spicher and S. Grimme, J. Chem. Theory Comput., 2021, 17, 1701-1714
     DOI: 10.1021/acs.jctc.0c01306
   
   for ONIOM refer to:
   * C. Plett, A. Katbashev, S. Ehlert, S. Grimme, M. Bursch,
     Phys. Chem. Chem. Phys., 2023, 25, 17860-17868. DOI: 10.1039/D3CP02178E
   
   for DIPRO refer to:
   * J. Kohn, N. Gildemeister, S. Grimme, D. Fazzi, A. Hansen,
     J. Chem. Phys., 2023, just accepted.
   
   for PTB refer to:
   * S. Grimme, M. Mueller, A. Hansen, J. Chem. Phys., 2023, 158, 124111.
     DOI: 10.1063/5.0137838
   
   with help from (in alphabetical order)
   P. Atkinson, C. Bannwarth, F. Bohle, G. Brandenburg, E. Caldeweyher
   M. Checinski, S. Dohm, S. Ehlert, S. Ehrlich, I. Gerasimov, C. Hölzer
   A. Katbashev, J. Kohn, J. Koopman, C. Lavigne, S. Lehtola, F. März, M. Müller,
   F. Musil, H. Neugebauer, J. Pisarek, C. Plett, P. Pracht, F. Pultar,
   J. Seibert, P. Shushkov, S. Spicher, M. Stahn, M. Steiner, T. Strunk,
   J. Stückrath, T. Rose, and J. Unsleber
   
 * started run on 2025/04/11 at 12:31:06.881     
   ID    Z sym.   atoms
    1    6 C      1-3, 5-7
    2    7 N      4
    3    1 H      8-22

           -------------------------------------------------
          |                Calculation Setup                |
           -------------------------------------------------

          program call               : /srv/scratch/z5358697/.xtb/bin/xtb xtb_rrho.coord --gfn2 --bhess vtight --chrg 0 --enso --norestart -I rrho-xcontrol-inp --parallel 1 --alpb water
          hostname                   : k062
          coordinate file            : xtb_rrho.coord
          omp threads                :                     1


           -------------------------------------------------
          |                 G F N 2 - x T B                 |
           -------------------------------------------------

        Reference                      10.1021/acs.jctc.8b01176
      * Hamiltonian:
        H0-scaling (s, p, d)           1.850000    2.230000    2.230000
        zeta-weighting                 0.500000
      * Dispersion:
        s8                             2.700000
        a1                             0.520000
        a2                             5.000000
        s9                             5.000000
      * Repulsion:
        kExp                           1.500000    1.000000
        rExp                           1.000000
      * Coulomb:
        alpha                          2.000000
        third order                    shell-resolved
        anisotropic                    true
        a3                             3.000000
        a5                             4.000000
        cn-shift                       1.200000
        cn-exp                         4.000000
        max-rad                        5.000000

      * Solvation model:               ALPB
        Solvent                        water
        Parameter file                 internal GFN2-xTB/ALPB
        Dielectric constant                8.0200E+01
        Reference state                gsolv [1 M gas/solution]
        Free energy shift                  1.0808E-03 Eh       6.7819E-01 kcal/mol
        Temperature                        2.9815E+02 K
        Density                            1.0000E+00 kg/L
        Solvent mass                       1.8000E+01 g/mol
        Interaction kernel             P16
        Born radius scaling (c1)           1.4744E+00
        Born radii integrator          GBOBC
        Born offset                        0.0000E+00 a0       0.0000E+00 AA
        H-bond correction              true
        Ion screening                  false
        Surface tension                    1.0000E-05 Eh       1.5569E+01 dyn/cm
        Grid points                               974 per atom

          ...................................................
          :                      SETUP                      :
          :.................................................:
          :  # basis functions                  43          :
          :  # atomic orbitals                  43          :
          :  # shells                           29          :
          :  # electrons                        44          :
          :  max. iterations                   250          :
          :  Hamiltonian                  GFN2-xTB          :
          :  restarted?                      false          :
          :  GBSA solvation                   true          :
          :  PC potential                    false          :
          :  electronic temp.          300.0000000     K    :
          :  accuracy                    1.0000000          :
          :  -> integral cutoff          0.2500000E+02      :
          :  -> integral neglect         0.1000000E-07      :
          :  -> SCF convergence          0.1000000E-05 Eh   :
          :  -> wf. convergence          0.1000000E-03 e    :
          :  Broyden damping             0.4000000          :
          :  net charge                          0          :
          :  unpaired electrons                  0          :
          ...................................................

 iter      E             dE          RMSdq      gap      omega  full diag
   1    -23.7103479 -0.237103E+02  0.241E+00    9.93       0.0  T
   2    -23.7342262 -0.238783E-01  0.133E+00    9.83       1.0  T
   3    -23.7354144 -0.118823E-02  0.526E-01    9.85       1.0  T
   4    -23.7355379 -0.123433E-03  0.103E-01    9.78       1.0  T
   5    -23.7355677 -0.297851E-04  0.484E-02    9.78       1.0  T
   6    -23.7355707 -0.302591E-05  0.188E-02    9.78       1.1  T
   7    -23.7355711 -0.417454E-06  0.250E-03    9.78       8.5  T
   8    -23.7355711 -0.735085E-08  0.143E-03    9.78      14.9  T
   9    -23.7355711 -0.337882E-08  0.236E-04    9.78      90.4  T
  10    -23.7355711 -0.106553E-09  0.122E-04    9.78     174.9  T

   *** convergence criteria satisfied after 10 iterations ***

         #    Occupation            Energy/Eh            Energy/eV
      -------------------------------------------------------------
         1        2.0000           -0.6307093             -17.1625
       ...           ...                  ...                  ...
        16        2.0000           -0.4576087             -12.4522
        17        2.0000           -0.4443846             -12.0923
        18        2.0000           -0.4402914             -11.9809
        19        2.0000           -0.4304572             -11.7133
        20        2.0000           -0.4266574             -11.6099
        21        2.0000           -0.4229936             -11.5102
        22        2.0000           -0.3508705              -9.5477 (HOMO)
        23                          0.0085493               0.2326 (LUMO)
        24                          0.0776229               2.1122
        25                          0.0908046               2.4709
        26                          0.1069023               2.9090
        27                          0.1142210               3.1081
       ...                                ...                  ...
        43                          0.3041686               8.2769
      -------------------------------------------------------------
                  HL-Gap            0.3594199 Eh            9.7803 eV
             Fermi-level           -0.1711606 Eh           -4.6575 eV

 SCC (total)                   0 d,  0 h,  0 min,  0.027 sec
 SCC setup                      ...        0 min,  0.001 sec (  5.221%)
 Dispersion                     ...        0 min,  0.000 sec (  0.465%)
 classical contributions        ...        0 min,  0.000 sec (  0.119%)
 integral evaluation            ...        0 min,  0.002 sec (  6.177%)
 iterations                     ...        0 min,  0.018 sec ( 67.035%)
 molecular gradient             ...        0 min,  0.005 sec ( 20.429%)
 printout                       ...        0 min,  0.000 sec (  0.491%)

         :::::::::::::::::::::::::::::::::::::::::::::::::::::
         ::                     SUMMARY                     ::
         :::::::::::::::::::::::::::::::::::::::::::::::::::::
         :: total energy             -23.419098739151 Eh    ::
         :: total w/o Gsasa/hb       -23.417849718950 Eh    ::
         :: gradient norm              0.029051856747 Eh/a0 ::
         :: HOMO-LUMO gap              9.780312415286 eV    ::
         ::.................................................::
         :: SCC energy               -23.735499930004 Eh    ::
         :: -> isotropic ES            0.015164172784 Eh    ::
         :: -> anisotropic ES          0.008733227107 Eh    ::
         :: -> anisotropic XC          0.017877778423 Eh    ::
         :: -> dispersion             -0.013712908304 Eh    ::
         :: -> Gsolv                  -0.002184668273 Eh    ::
         ::    -> Gelec               -0.000935648071 Eh    ::
         ::    -> Gsasa               -0.001311931604 Eh    ::
         ::    -> Ghb                 -0.001017848296 Eh    ::
         ::    -> Gshift               0.001080759698 Eh    ::
         :: repulsion energy           0.316401190853 Eh    ::
         :: add. restraining           0.000000000000 Eh    ::
         :: total charge               0.000000000000 e     ::
         :::::::::::::::::::::::::::::::::::::::::::::::::::::

metadynamics with 1 initial structures loaded
           -------------------------------------------------
          |           Optimal kpush determination           |
           -------------------------------------------------
      ----------------------------------------------------------- 
     |                   =====================                   |
     |                        A N C O P T                        |
     |                   =====================                   |
     |               Approximate Normal Coordinate               |
     |                Rational Function Optimizer                |
      ----------------------------------------------------------- 
target rmsd / Å         0.100000
unbiased initial rmsd   0.165358
 
iter. min.        max.        rmsd       kpush
      ----------------------------------------------------------- 
     |                   =====================                   |
     |                        A N C O P T                        |
     |                   =====================                   |
     |               Approximate Normal Coordinate               |
     |                Rational Function Optimizer                |
      ----------------------------------------------------------- 
 1    0.000000    1.000000    0.013034   -0.500000
      ----------------------------------------------------------- 
     |                   =====================                   |
     |                        A N C O P T                        |
     |                   =====================                   |
     |               Approximate Normal Coordinate               |
     |                Rational Function Optimizer                |
      ----------------------------------------------------------- 
 2    0.000000    0.500000    0.018806   -0.250000
      ----------------------------------------------------------- 
     |                   =====================                   |
     |                        A N C O P T                        |
     |                   =====================                   |
     |               Approximate Normal Coordinate               |
     |                Rational Function Optimizer                |
      ----------------------------------------------------------- 
 3    0.000000    0.250000    0.027145   -0.125000
      ----------------------------------------------------------- 
     |                   =====================                   |
     |                        A N C O P T                        |
     |                   =====================                   |
     |               Approximate Normal Coordinate               |
     |                Rational Function Optimizer                |
      ----------------------------------------------------------- 
 4    0.000000    0.125000    0.038307   -0.062500
      ----------------------------------------------------------- 
     |                   =====================                   |
     |                        A N C O P T                        |
     |                   =====================                   |
     |               Approximate Normal Coordinate               |
     |                Rational Function Optimizer                |
      ----------------------------------------------------------- 
 5    0.000000    0.062500    0.052170   -0.031250
      ----------------------------------------------------------- 
     |                   =====================                   |
     |                        A N C O P T                        |
     |                   =====================                   |
     |               Approximate Normal Coordinate               |
     |                Rational Function Optimizer                |
      ----------------------------------------------------------- 
 6    0.000000    0.031250    0.068603   -0.015625
      ----------------------------------------------------------- 
     |                   =====================                   |
     |                        A N C O P T                        |
     |                   =====================                   |
     |               Approximate Normal Coordinate               |
     |                Rational Function Optimizer                |
      ----------------------------------------------------------- 
 7    0.000000    0.015625    0.086704   -0.007812
      ----------------------------------------------------------- 
     |                   =====================                   |
     |                        A N C O P T                        |
     |                   =====================                   |
     |               Approximate Normal Coordinate               |
     |                Rational Function Optimizer                |
      ----------------------------------------------------------- 
 8    0.000000    0.007812    0.105727   -0.003906
      ----------------------------------------------------------- 
     |                   =====================                   |
     |                        A N C O P T                        |
     |                   =====================                   |
     |               Approximate Normal Coordinate               |
     |                Rational Function Optimizer                |
      ----------------------------------------------------------- 
 9    0.003906    0.007812    0.094519   -0.005859
      ----------------------------------------------------------- 
     |                   =====================                   |
     |                        A N C O P T                        |
     |                   =====================                   |
     |               Approximate Normal Coordinate               |
     |                Rational Function Optimizer                |
      ----------------------------------------------------------- 
10    0.003906    0.005859    0.099401   -0.004883
final kpush: -0.004883
           -------------------------------------------------
          |            Biased Numerical Hessian             |
           -------------------------------------------------
kpush                :  -0.00488
alpha                :   1.00000
step length          :   0.00500
SCC accuracy         :   0.30000
Hessian scale factor :   1.00000
frozen atoms in %    :   0.00000    0
RMS gradient         :   0.00003
estimated CPU  time      0.02 min
estimated wall time      0.02 min

writing file <hessian>.

 projected vibrational frequencies (cm⁻¹)
eigval :       -0.00    -0.00    -0.00    -0.00     0.00     0.00
eigval :       69.99    90.14   183.27   180.87   196.92   232.61
eigval :      246.32   300.96   334.98   378.68   433.58   474.55
eigval :      501.57   733.91   876.56   892.25   932.91   935.69
eigval :      948.25   963.87   969.76  1023.60  1116.07  1123.11
eigval :     1135.87  1176.50  1181.12  1206.51  1270.54  1305.74
eigval :     1308.86  1341.70  1389.84  1393.77  1404.17  1407.11
eigval :     1409.44  1480.64  1484.66  1488.65  1489.79  1495.76
eigval :     1498.08  1502.61  1510.31  2892.01  2904.55  3015.38
eigval :     3017.92  3024.16  3026.59  3029.45  3034.13  3036.60
eigval :     3039.01  3040.12  3041.68  3051.38  3053.28  3384.16
           -------------------------------------------------
          |                Property Printout                |
           -------------------------------------------------

    * Orbital Energies and Occupations

         #    Occupation            Energy/Eh            Energy/eV
      -------------------------------------------------------------
         1        2.0000           -0.6308063             -17.1651
       ...           ...                  ...                  ...
        10        2.0000           -0.4935761             -13.4309
        11        2.0000           -0.4863447             -13.2341
        12        2.0000           -0.4800505             -13.0628
        13        2.0000           -0.4722381             -12.8503
        14        2.0000           -0.4630029             -12.5989
        15        2.0000           -0.4589364             -12.4883
        16        2.0000           -0.4581606             -12.4672
        17        2.0000           -0.4433960             -12.0654
        18        2.0000           -0.4402892             -11.9809
        19        2.0000           -0.4300066             -11.7011
        20        2.0000           -0.4254167             -11.5762
        21        2.0000           -0.4240690             -11.5395
        22        2.0000           -0.3433452              -9.3429 (HOMO)
        23                          0.0249364               0.6786 (LUMO)
        24                          0.0907804               2.4703
        25                          0.0987621               2.6875
        26                          0.1109569               3.0193
        27                          0.1179888               3.2106
        28                          0.1409174               3.8346
        29                          0.1453451               3.9550
        30                          0.1608650               4.3774
        31                          0.1739647               4.7338
        32                          0.1831383               4.9834
        33                          0.1995727               5.4306
       ...                                ...                  ...
        43                          0.3182037               8.6588
      -------------------------------------------------------------
                  HL-Gap            0.3682815 Eh           10.0215 eV
             Fermi-level           -0.1592044 Eh           -4.3322 eV

     #   Z          covCN         q      C6AA      α(0)
     1   6 C        3.757    -0.125    22.948     6.830
     2   6 C        3.784     0.053    19.703     6.323
     3   6 C        3.754    -0.118    22.814     6.811
     4   7 N        2.685    -0.291    27.494     7.788
     5   6 C        3.784     0.052    19.716     6.325
     6   6 C        3.753    -0.117    22.798     6.809
     7   6 C        3.758    -0.123    22.910     6.824
     8   1 H        0.925     0.047     2.356     2.401
     9   1 H        0.925     0.041     2.438     2.442
    10   1 H        0.925     0.044     2.392     2.418
    11   1 H        0.924     0.020     2.740     2.589
    12   1 H        0.925     0.037     2.493     2.469
    13   1 H        0.925     0.036     2.509     2.477
    14   1 H        0.925     0.037     2.486     2.466
    15   1 H        0.860     0.147     1.418     1.866
    16   1 H        0.923     0.024     2.677     2.559
    17   1 H        0.925     0.037     2.495     2.470
    18   1 H        0.925     0.033     2.548     2.496
    19   1 H        0.925     0.030     2.584     2.514
    20   1 H        0.925     0.041     2.436     2.441
    21   1 H        0.925     0.051     2.306     2.375
    22   1 H        0.925     0.044     2.397     2.421

 Mol. C6AA /au·bohr⁶  :       3185.221986
 Mol. C8AA /au·bohr⁸  :      65440.563340
 Mol. α(0) /au        :         84.111756


Wiberg/Mayer (AO) data.
largest (>0.10) Wiberg bond orders for each atom

 ---------------------------------------------------------------------------
     #   Z sym  total        # sym  WBO       # sym  WBO       # sym  WBO
 ---------------------------------------------------------------------------
     1   6 C    3.995 --     2 C    1.000    10 H    0.987     8 H    0.987
                             9 H    0.986
     2   6 C    3.986 --     4 N    1.001     3 C    1.001     1 C    1.000
                            11 H    0.966
     3   6 C    3.996 --     2 C    1.001    12 H    0.986    14 H    0.986
                            13 H    0.984
     4   7 N    3.073 --     5 C    1.008     2 C    1.001    15 H    0.950
     5   6 C    3.986 --     4 N    1.008     7 C    1.004     6 C    0.992
                            16 H    0.965
     6   6 C    3.997 --     5 C    0.992    18 H    0.987    17 H    0.986
                            19 H    0.985
     7   6 C    3.995 --     5 C    1.004    21 H    0.986    20 H    0.986
                            22 H    0.986
     8   1 H    0.998 --     1 C    0.987
     9   1 H    0.998 --     1 C    0.986
    10   1 H    0.998 --     1 C    0.987
    11   1 H    1.000 --     2 C    0.966
    12   1 H    0.999 --     3 C    0.986
    13   1 H    0.999 --     3 C    0.984
    14   1 H    0.998 --     3 C    0.986
    15   1 H    0.978 --     4 N    0.950
    16   1 H    0.999 --     5 C    0.965
    17   1 H    0.998 --     6 C    0.986
    18   1 H    0.999 --     6 C    0.987
    19   1 H    0.999 --     6 C    0.985
    20   1 H    0.998 --     7 C    0.986
    21   1 H    0.997 --     7 C    0.986
    22   1 H    0.998 --     7 C    0.986
 ---------------------------------------------------------------------------

Topologies differ in total number of bonds
Writing topology from bond orders to xtbtopo.mol

molecular dipole:
                 x           y           z       tot (Debye)
 q only:       -0.034      -0.059      -0.103
   full:       -0.056      -0.397      -0.154       1.093
molecular quadrupole (traceless):
                xx          xy          yy          xz          yz          zz
 q only:        1.289      -0.301      -1.076       0.138       0.054      -0.213
  q+dip:        0.605      -0.231      -2.465      -0.019       0.406       1.861
   full:        1.065      -0.311      -2.415       0.042       0.323       1.350

           -------------------------------------------------
          |                Geometry Summary                 |
           -------------------------------------------------

      molecular mass/u    :      101.1902299
   center of mass at/Å    :        0.0004648       0.0034305      -0.0019005
  moments of inertia/u·Å² :        0.1213377E+03   0.3267546E+03   0.4000835E+03
rotational constants/cm⁻¹ :        0.1389315E+00   0.5159111E-01   0.4213529E-01

 * 21 selected distances

     #   Z          #   Z                                           value/Å
     1   6 C        2   6 C                                       1.5323047
     2   6 C        3   6 C                                       1.5322574
     2   6 C        4   7 N                                       1.4582686
     4   7 N        5   6 C                                       1.4516639
     5   6 C        6   6 C                                       1.5367080 (max)
     5   6 C        7   6 C                                       1.5280476
     1   6 C        8   1 H                                       1.0858722
     1   6 C        9   1 H                                       1.0867751
     1   6 C       10   1 H                                       1.0866224
     2   6 C       11   1 H                                       1.0969059
     3   6 C       12   1 H                                       1.0885933
     3   6 C       13   1 H                                       1.0872821
     3   6 C       14   1 H                                       1.0870616
     4   7 N       15   1 H                                       1.0140470 (min)
     5   6 C       16   1 H                                       1.0981110
     6   6 C       17   1 H                                       1.0869033
     6   6 C       18   1 H                                       1.0886804
     6   6 C       19   1 H                                       1.0875773
     7   6 C       20   1 H                                       1.0878662
     7   6 C       21   1 H                                       1.0857829
     7   6 C       22   1 H                                       1.0863519

 * 4 distinct bonds (by element types)

   Z      Z             #   av. dist./Å        max./Å        min./Å
   1 H    6 C          14     1.0885990     1.0981110     1.0857829
   6 C    6 C           4     1.5323294     1.5367080     1.5280476
   1 H    7 N           1     1.0140470     1.0140470     1.0140470
   6 C    7 N           2     1.4549663     1.4582686     1.4516639

           -------------------------------------------------
          |               Frequency Printout                |
           -------------------------------------------------
 projected vibrational frequencies (cm⁻¹)
eigval :       -0.00    -0.00    -0.00    -0.00     0.00     0.00
eigval :       69.99    90.14   183.27   180.87   196.92   232.61
eigval :      246.32   300.96   334.98   378.68   433.58   474.55
eigval :      501.57   733.91   876.56   892.25   932.91   935.69
eigval :      948.25   963.87   969.76  1023.60  1116.07  1123.11
eigval :     1135.87  1176.50  1181.12  1206.51  1270.54  1305.74
eigval :     1308.86  1341.70  1389.84  1393.77  1404.17  1407.11
eigval :     1409.44  1480.64  1484.66  1488.65  1489.79  1495.76
eigval :     1498.08  1502.61  1510.31  2892.01  2904.55  3015.38
eigval :     3017.92  3024.16  3026.59  3029.45  3034.13  3036.60
eigval :     3039.01  3040.12  3041.68  3051.38  3053.28  3384.16
 reduced masses (amu)
   1:  9.50   2: 10.38   3: 10.21   4:  9.28   5:  9.69   6:  9.83   7:  8.36   8:  9.16
   9:  7.33  10:  1.30  11:  1.13  12:  3.48  13:  2.14  14:  7.55  15:  8.69  16:  7.86
  17:  7.24  18:  8.03  19:  8.35  20:  7.14  21:  6.02  22:  8.27  23:  3.48  24:  3.27
  25:  5.96  26:  4.09  27:  4.46  28:  5.11  29:  7.49  30:  7.68  31:  7.72  32:  7.20
  33:  7.89  34:  8.28  35:  4.15  36:  3.91  37:  3.87  38:  3.20  39:  3.23  40:  3.27
  41:  3.50  42:  3.21  43:  3.27  44:  1.58  45:  1.58  46:  1.56  47:  1.58  48:  1.55
  49:  1.59  50:  1.56  51:  1.57  52:  1.73  53:  1.73  54:  1.82  55:  1.85  56:  1.82
  57:  1.92  58:  1.88  59:  1.87  60:  1.41  61:  1.39  62:  1.77  63:  1.71  64:  1.51
  65:  1.57  66:  1.82
 IR intensities (km·mol⁻¹)
   1:  0.05   2:  0.03   3:  0.01   4:  0.19   5:  0.14   6:  0.12   7:  0.16   8:  1.02
   9:  2.45  10:  0.08  11:  0.08  12:  0.73  13:  0.09  14:  0.11  15:  1.50  16:  0.52
  17:  4.56  18:  3.48  19:  1.77  20: 95.19  21: 11.62  22:  0.40  23:  1.28  24:  1.13
  25:  3.00  26:  0.25  27:  1.45  28:  2.94  29:  6.44  30:  5.07  31: 57.20  32: 18.86
  33: 87.26  34: 27.35  35: 19.53  36: 32.80  37: 16.92  38:  1.93  39:  4.66  40:  4.44
  41: 65.89  42:  4.72  43: 25.65  44:  0.22  45:  0.90  46:  0.64  47:  0.98  48:  0.27
  49:  0.97  50:  0.49  51:  0.75  52: 88.19  53:124.20  54: 52.18  55: 63.80  56: 87.10
  57: 90.56  58:  9.46  59:106.35  60: 53.66  61: 27.97  62: 83.06  63: 72.57  64: 29.54
  65: 44.43  66: 13.27
 Raman intensities (Ä⁴*amu⁻¹)
   1:  0.00   2:  0.00   3:  0.00   4:  0.00   5:  0.00   6:  0.00   7:  0.00   8:  0.00
   9:  0.00  10:  0.00  11:  0.00  12:  0.00  13:  0.00  14:  0.00  15:  0.00  16:  0.00
  17:  0.00  18:  0.00  19:  0.00  20:  0.00  21:  0.00  22:  0.00  23:  0.00  24:  0.00
  25:  0.00  26:  0.00  27:  0.00  28:  0.00  29:  0.00  30:  0.00  31:  0.00  32:  0.00
  33:  0.00  34:  0.00  35:  0.00  36:  0.00  37:  0.00  38:  0.00  39:  0.00  40:  0.00
  41:  0.00  42:  0.00  43:  0.00  44:  0.00  45:  0.00  46:  0.00  47:  0.00  48:  0.00
  49:  0.00  50:  0.00  51:  0.00  52:  0.00  53:  0.00  54:  0.00  55:  0.00  56:  0.00
  57:  0.00  58:  0.00  59:  0.00  60:  0.00  61:  0.00  62:  0.00  63:  0.00  64:  0.00
  65:  0.00  66:  0.00
 output can be read by thermo (or use thermo option).
 writing <g98.out> molden fake output.
 recommended (thermochemical) frequency scaling factor: 1.0
           -------------------------------------------------
          |             Thermodynamic Functions             |
           -------------------------------------------------

Molecule has no symmetry elements
It seems to be the C1 point group
c1  symmetry found (for desy threshold:  0.10E+00) used in thermo

          ...................................................
          :                      SETUP                      :
          :.................................................:
          :  # frequencies                          60      :
          :  # imaginary freq.                       0      :
          :  linear?                             false      :
          :  only rotor calc.                    false      :
          :  symmetry                               c1      :
          :  rotational number                       1      :
          :  scaling factor                  1.0000000      :
          :  rotor cutoff                    0.0000000 cm⁻¹ :
          :  imag. cutoff                 -100.0000000 cm⁻¹ :
          :.................................................:

    mode    ω/cm⁻¹     T·S(HO)/kcal·mol⁻¹    T·S(FR)/kcal·mol⁻¹   T·S(vib)
   ------------------------------------------------------------------------
       1     69.99    -1.23844 (100.00%)    -0.95668 (  0.00%)    -1.23844
       2     90.14    -1.09035 (100.00%)    -0.88177 (  0.00%)    -1.09035
       3    183.27    -0.68419 (100.00%)    -0.67165 (  0.00%)    -0.68419
       4    180.87    -0.69153 (100.00%)    -0.67556 (  0.00%)    -0.69153
       5    196.92    -0.64450 (100.00%)    -0.65038 (  0.00%)    -0.64450
       6    232.61    -0.55417 (100.00%)    -0.60104 (  0.00%)    -0.55417
       7    246.32    -0.52377 (100.00%)    -0.58408 (  0.00%)    -0.52377
   ------------------------------------------------------------------------

   temp. (K)  partition function   enthalpy   heat capacity  entropy
                                   cal/mol     cal/K/mol   cal/K/mol   J/K/mol
 298.15  VIB   319.                 4317.746     29.281     25.937
         ROT  0.304E+06              888.752      2.981     28.071
         INT  0.970E+08             5206.498     32.261     54.008
         TR   0.985E+27             1481.254      4.968     39.735
         TOT                        6687.7520    37.2296    93.7432   392.2217

       T/K    H(0)-H(T)+PV         H(T)/Eh          T*S/Eh         G(T)/Eh
   ------------------------------------------------------------------------
    298.15    0.106576E-01    0.212532E+00    0.445404E-01    0.167991E+00
   ------------------------------------------------------------------------

         :::::::::::::::::::::::::::::::::::::::::::::::::::::
         ::                  THERMODYNAMIC                  ::
         :::::::::::::::::::::::::::::::::::::::::::::::::::::
         :: total free energy         -23.258470705584 Eh   ::
         ::.................................................::
         :: total energy              -23.426462111478 Eh   ::
         :: zero point energy           0.201874231811 Eh   ::
         :: G(RRHO) w/o ZPVE           -0.033882825916 Eh   ::
         :: G(RRHO) contrib.            0.167991405895 Eh   ::
         :::::::::::::::::::::::::::::::::::::::::::::::::::::

optimized geometry written to: xtbopt.coord


           -------------------------------------------------
          | TOTAL ENERGY              -23.426462111478 Eh   |
          | TOTAL ENTHALPY            -23.213930268452 Eh   |
          | TOTAL FREE ENERGY         -23.258470705584 Eh   |
          | GRADIENT NORM               0.000031515598 Eh/α |
          | HOMO-LUMO GAP              10.021450146547 eV   |
           -------------------------------------------------

------------------------------------------------------------------------
 * finished run on 2025/04/11 at 12:31:10.280     
------------------------------------------------------------------------
 total:
 * wall-time:     0 d,  0 h,  0 min,  3.398 sec
 *  cpu-time:     0 d,  0 h,  0 min,  3.123 sec
 * ratio c/w:     0.919 speedup
 SCF:
 * wall-time:     0 d,  0 h,  0 min,  0.027 sec
 *  cpu-time:     0 d,  0 h,  0 min,  0.016 sec
 * ratio c/w:     0.587 speedup
 analytical hessian:
 * wall-time:     0 d,  0 h,  0 min,  1.223 sec
 *  cpu-time:     0 d,  0 h,  0 min,  1.213 sec
 * ratio c/w:     0.992 speedup

