22
 energy: -23.423981551677 gnorm: 0.029051808178 xtb: 6.7.1 (edcfbbe)
C            2.31372557804931        1.04551792268911        0.33071060565067
C            1.21178411453336       -0.01010303579403        0.23750850094716
C            1.72376443715949       -1.23453593396176       -0.52352818022121
N           -0.00924225027529        0.56492644385814       -0.38079593812932
C           -1.26585572450025        0.22015135133326        0.31453681429752
C           -1.54623963477231       -1.28483117650733        0.40265654242472
C           -2.42281006860279        0.92813895730953       -0.38296525198824
H            1.97821648958655        1.91585618917889        0.90207687513388
H            3.19905152435874        0.63319151649399        0.82471594368002
H            2.60958360807245        1.38299261617959       -0.66934403473870
H            0.95476156290893       -0.31480058455592        1.26123622805778
H            1.99467673928731       -0.95075689427159       -1.54852060548459
H            0.96733494904482       -2.02294791204213       -0.57798769656725
H            2.61629993891132       -1.64981160407246       -0.04370027821004
H           -0.08687715625997        0.18941982482025       -1.32230865008538
H           -1.18144871490978        0.61426477700051        1.33745091507584
H           -2.49387313039411       -1.47147382033260        0.91900506409653
H           -1.61387302782883       -1.71663213903805       -0.60412235947497
H           -0.76074515171896       -1.81174686938800        0.95152669252193
H           -2.47961906038644        0.61819804744569       -1.43362717947541
H           -2.30633836459493        2.01417150201257       -0.35246130872315
H           -3.37261623637541        0.67025731637956        0.09237462550567
22
 energy: -23.425489224410 gnorm: 0.013664987523 xtb: 6.7.1 (edcfbbe)
C            2.29737783432782        1.05073304507861        0.31916792426517
C            1.21270024769387       -0.02405154863157        0.24640275317814
C            1.73423601457803       -1.23569985026180       -0.52686699083984
N           -0.00716809853202        0.53993180362607       -0.35964090041558
C           -1.26316701641446        0.21334970436035        0.32369986643887
C           -1.55877885228932       -1.28890772202459        0.39914962891084
C           -2.40980518487396        0.92884760493029       -0.38431323481262
H            1.94737260527981        1.91172143487304        0.88444824713551
H            3.18187382448129        0.64763628008833        0.81094069776589
H            2.57751072075774        1.38497659306336       -0.67900270146928
H            0.96840667902786       -0.32628699958421        1.27277064460757
H            2.00095164300458       -0.94519481768730       -1.54435730816072
H            0.98442418546287       -2.02338299440367       -0.57952635453929
H            2.62226370151430       -1.64148275572774       -0.04453218810827
H           -0.07831985146589        0.20814604051267       -1.31910685661047
H           -1.17322319940274        0.60862521189380        1.34425108540968
H           -2.50502385659067       -1.45949510480410        0.91016597810633
H           -1.62704819634518       -1.71557083741860       -0.60307697318177
H           -0.78168701463058       -1.81578923768102        0.95054507696494
H           -2.46833221178765        0.61695998574391       -1.42768592466033
H           -2.26889167718543        2.00668017603300       -0.35641539307472
H           -3.35601187531705        0.68770048275842        0.09742024738342
22
 energy: -23.426130102607 gnorm: 0.006820922561 xtb: 6.7.1 (edcfbbe)
C            2.28262697204884        1.05999911509709        0.30789594894262
C            1.21378261491599       -0.03475173470290        0.24857889894078
C            1.74789585477775       -1.24132637707486       -0.52602764422311
N           -0.00708141277192        0.51629227334936       -0.34031993685688
C           -1.26021066725509        0.19915228789390        0.32875715252507
C           -1.57868680894105       -1.30077643367776        0.40045914001743
C           -2.39370289182547        0.93576427473708       -0.38263716594092
H            1.91249772670852        1.91332875887050        0.86572998120913
H            3.17409953963271        0.67619286795998        0.79615425487717
H            2.54097979692990        1.38840674455057       -0.69324623181809
H            0.98579186077997       -0.33782765057789        1.27760501527170
H            2.01110224087823       -0.94081267624439       -1.53668703342225
H            1.00381252081073       -2.03062786279445       -0.58073693210992
H            2.63493551034989       -1.63814389670282       -0.04197453541791
H           -0.06923481018615        0.23908296200408       -1.31936106106144
H           -1.16926788436707        0.59052932143458        1.34958101533787
H           -2.52736761825480       -1.45631723990127        0.90464556106423
H           -1.64593968500328       -1.71663326270028       -0.60157832554091
H           -0.80975224279480       -1.83405917026126        0.95225168778575
H           -2.45631610364716        0.61506049029805       -1.41845800287041
H           -2.22066616116049        2.00702920189706       -0.36223652271160
H           -3.33963793033206        0.71988450128291        0.10604206029515
22
 energy: -23.426300841624 gnorm: 0.005088801138 xtb: 6.7.1 (edcfbbe)
C            2.27646721565907        1.06690117474213        0.30013394075716
C            1.21568717632778       -0.03874583350178        0.25097764562027
C            1.75620375891393       -1.24434793643032       -0.52368052033523
N           -0.00703007226197        0.50383626913195       -0.33111349042375
C           -1.25910018651618        0.19022394241235        0.33281053731479
C           -1.59207168947835       -1.30896936784642        0.39794278762153
C           -2.38468118187331        0.94060835900531       -0.37908674364524
H            1.89565734469620        1.91806148100415        0.85473695351070
H            3.17593399352585        0.69866539604403        0.78581354456313
H            2.52308949179382        1.39247804319024       -0.70538713959193
H            0.99580325663970       -0.34162602847260        1.28208304705327
H            2.01927678002813       -0.94211712987253       -1.53421405841930
H            1.01483929202580       -2.03675393674658       -0.57932709301888
H            2.64465295004965       -1.63705114981489       -0.03823628878896
H           -0.06429093885510        0.25237915760974       -1.31542616490440
H           -1.16990595779965        0.57518114875408        1.35685269589358
H           -2.54390778215565       -1.45624947306815        0.89922872919540
H           -1.65990296278220       -1.72110496267996       -0.60598465802371
H           -0.82885107758733       -1.85038640934399        0.95056330659597
H           -2.45579982434831        0.61290474670727       -1.41258560989904
H           -2.18933813211231        2.00876567152506       -0.36629864423673
H           -3.33307103259636        0.74679333238816        0.11463454745484
22
 energy: -23.426381799879 gnorm: 0.002558652403 xtb: 6.7.1 (edcfbbe)
C            2.27312377811899        1.07321911324504        0.29296037117163
C            1.21878632146675       -0.03973296178524        0.25276371235379
C            1.76317962555771       -1.24660576946542       -0.51892034860837
N           -0.00737545269880        0.49526191888325       -0.32532401663685
C           -1.25977512175845        0.18216768151130        0.33517608258412
C           -1.60306562546763       -1.31604641586440        0.39285393382852
C           -2.37874162249508        0.94542218329152       -0.37374910532434
H            1.88717215687708        1.92455707505910        0.84517409523313
H            3.17971100566159        0.71774853881864        0.77557516958796
H            2.51186437010825        1.39600406676677       -0.71650059127920
H            1.00461579510340       -0.34111977157871        1.28566006875827
H            2.02651956474979       -0.94665595975952       -1.53131222152948
H            1.02347854835721       -2.04179225221642       -0.57392719682103
H            2.65342775197203       -1.63664301345824       -0.03256965962956
H           -0.06141688103377        0.26067698862995       -1.31061997821202
H           -1.17210639586706        0.55822405239422        1.36336397508905
H           -2.55790499932612       -1.45849869891604        0.89158514556830
H           -1.67168347401166       -1.72517753674663       -0.61339305222979
H           -0.84490605353159       -1.86627878370956        0.94543869887060
H           -2.46292462087812        0.61033006203021       -1.40525256066541
H           -2.16378300318218        2.01052493383285       -0.37111278677891
H           -3.32853524642914        0.77386104377461        0.12656758896305
22
 energy: -23.426407794717 gnorm: 0.001774376789 xtb: 6.7.1 (edcfbbe)
C            2.27261226213199        1.07587856176723        0.28856699430637
C            1.22054443154866       -0.03867940179817        0.25400965674411
C            1.76547049170809       -1.24740150241412       -0.51428903278038
N           -0.00760181633893        0.49333505896550       -0.32334122042081
C           -1.26063638908053        0.17829668801490        0.33580721346129
C           -1.60715169361228       -1.31912960061037        0.38744318372201
C           -2.37712950196341        0.94731264249171       -0.36960563994341
H            1.88725652527480        1.92866151855251        0.83949295682474
H            3.18165307933696        0.72443746535096        0.76944106000950
H            2.50893934059018        1.39656619245033       -0.72259534574239
H            1.00786509203585       -0.33752383750828        1.28791547082590
H            2.02902768001064       -0.95124331900232       -1.52833216645871
H            1.02615568005807       -2.04348773580602       -0.56708392061707
H            2.65636846629840       -1.63610648399298       -0.02717387107829
H           -0.06060593928185        0.26498055285782       -1.30906972713231
H           -1.17293947390656        0.54862970249480        1.36626340554245
H           -2.56316170200340       -1.46135531285449        0.88474406229392
H           -1.67577122749135       -1.72603986847338       -0.62020086695535
H           -0.85110727180154       -1.87339497525116        0.93934153617943
H           -2.47136699952556        0.60812855443702       -1.39951030583669
H           -2.15307018980644        2.01035317225356       -0.37391004038214
H           -3.32569042288860        0.78722842281226        0.13652392173128
22
 energy: -23.426436030192 gnorm: 0.002109245751 xtb: 6.7.1 (edcfbbe)
C            2.27362255698403        1.07839135854884        0.28201884066728
C            1.22231379848439       -0.03528598860371        0.25610143965514
C            1.76577950368231       -1.24835253315275       -0.50538945299537
N           -0.00798747728557        0.49432254752580       -0.32151378533341
C           -1.26207043248278        0.17371071011206        0.33576038081315
C           -1.60917754116114       -1.32276087415811        0.37656220032827
C           -2.37730958525897        0.94902542702923       -0.36254563669768
H            1.89239959130499        1.93461019334040        0.83087617357498
H            3.18440234015592        0.72861296670587        0.76060061673036
H            2.50777056746019        1.39511888078995       -0.73116525286279
H            1.00965553325822       -0.32790279185505        1.29162426867806
H            2.02937811202285       -0.95944813437841       -1.52189587642559
H            1.02647223182044       -2.04482345951632       -0.55306990302426
H            2.65707261319920       -1.63481319219718       -0.01672265512392
H           -0.05989681730698        0.27058045001271       -1.30794709615746
H           -1.17310600195663        0.53579554600327        1.36895832174840
H           -2.56661315269434       -1.46760833730878        0.87086931589851
H           -1.67633296602956       -1.72454660710886       -0.63348690188490
H           -0.85533709313034       -1.88146489771928        0.92697223766268
H           -2.48874262897660        0.60287913395217       -1.38884287080717
H           -2.14120747445558        2.00886875633799       -0.37898274946650
H           -3.32142525634085        0.80453734037747        0.15565570931565
22
 energy: -23.426447402933 gnorm: 0.001510514558 xtb: 6.7.1 (edcfbbe)
C            2.27456324039785        1.07892277983667        0.27930685731653
C            1.22200502311775       -0.03360132042427        0.25705730787793
C            1.76431954001754       -1.24907850093357       -0.50129573234733
N           -0.00809342168908        0.49607836489542       -0.32098519314745
C           -1.26201387033448        0.17271827391196        0.33564573421330
C           -1.60800478910271       -1.32391735011571        0.37143644387315
C           -2.37825117898983        0.94944800788339       -0.35970497367772
H            1.89525018523623        1.93664548677753        0.82697986974431
H            3.18540275446956        0.72840795118642        0.75742003226946
H            2.50759317330379        1.39341031649678       -0.73468391170526
H            1.00914332466685       -0.32282557827141        1.29350463753698
H            2.02736812932771       -0.96280292277031       -1.51841527904382
H            1.02491442363427       -2.04534103853648       -0.54635362048642
H            2.65558310031813       -1.63417826681565       -0.01185175683809
H           -0.05947561397408        0.27163244562904       -1.30772835213225
H           -1.17237305093999        0.53219863114950        1.36955380145280
H           -2.56614304197121       -1.47092041832129        0.86353773865942
H           -1.67319800398260       -1.72216159200351       -0.63994895928072
H           -0.85470822979067       -1.88364200612323        0.92130573206230
H           -2.49583726201804        0.60088973952175       -1.38409675389520
H           -2.13857458368638        2.00825846776117       -0.38018137575581
H           -3.31980942671742        0.80930502400311        0.16393507759735
22
 energy: -23.426457639872 gnorm: 0.000463873041 xtb: 6.7.1 (edcfbbe)
C            2.27693512469635        1.08004155209631        0.27387299499714
C            1.22095948007704       -0.02997314339606        0.25893589942739
C            1.76088664429081       -1.25074812830471       -0.49305096525491
N           -0.00833331159869        0.49989900823862       -0.32016430258409
C           -1.26157977381433        0.17131726573736        0.33531637151382
C           -1.60498557285254       -1.32606524460219        0.36087667409668
C           -2.38074160572441        0.95056228574976       -0.35390254725670
H            1.90126242512153        1.94070475087425        0.81905038499320
H            3.18762400417908        0.72781977553813        0.75119783584784
H            2.50762198781716        1.38940854864806       -0.74181745789671
H            1.00826326733595       -0.31217186951443        1.29743293987169
H            2.02235631917673       -0.96993800773431       -1.51161234971306
H            1.02132830698167       -2.04671546100090       -0.53230571084928
H            2.65226040164347       -1.63279799240308       -0.00214440287329
H           -0.05851168102426        0.27171165862625       -1.30702096825470
H           -1.17106821177420        0.52543561447837        1.37077060029493
H           -2.56522220415317       -1.47785776625882        0.84699770426134
H           -1.66418035718368       -1.71675058445022       -0.65347483689196
H           -0.85325512828932       -1.88748479523672        0.91075413168031
H           -2.51011957224974        0.59747574537332       -1.37456759729927
H           -2.13482654645147        2.00764550421308       -0.38141035856289
H           -3.31701357491082        0.81792777806526        0.18070328474595
22
 energy: -23.426458802876 gnorm: 0.000269338088 xtb: 6.7.1 (edcfbbe)
C            2.27698743521733        1.08047821435304        0.27315907655843
C            1.22110009575207       -0.02990583783154        0.25904502317246
C            1.76110451928656       -1.25099480997741       -0.49257256945526
N           -0.00837797141097        0.49945528446144       -0.31984911009245
C           -1.26148438135170        0.17111915715828        0.33553674003709
C           -1.60549844516252       -1.32634012776133        0.36039231362855
C           -2.38052194471078        0.95104140191373       -0.35331214925556
H            1.90105338646851        1.94135655128133        0.81783118439734
H            3.18792094918804        0.72907636938320        0.75051646210563
H            2.50734611389872        1.38917186252517       -0.74287944851284
H            1.00920722486687       -0.31205234350907        1.29768594470065
H            2.02214374280312       -0.97081411476978       -1.51154469419703
H            1.02159088771054       -2.04714489863683       -0.53113580662278
H            2.65280224461763       -1.63275142638459       -0.00185895875364
H           -0.05844553629506        0.27143638717109       -1.30672001808458
H           -1.17131452671799        0.52439122570286        1.37138135484270
H           -2.56651445144255       -1.47800751581019        0.84500572802854
H           -1.66318986582408       -1.71699680790855       -0.65411575934646
H           -0.85467136929683       -1.88805099708633        0.91136689875514
H           -2.50955758767785        0.59896832725940       -1.37437398891921
H           -2.13502859155752        2.00822563707919       -0.37968722259482
H           -3.31699150706838        0.81778495612421        0.18056632390150
22
 energy: -23.426460266186 gnorm: 0.000317908131 xtb: 6.7.1 (edcfbbe)
C            2.27689391595901        1.08110433916497        0.27191993144487
C            1.22140911035379       -0.02986590525404        0.25907985688287
C            1.76144897041412       -1.25136082903704       -0.49203241613656
N           -0.00841686827645        0.49859367728438       -0.31952155624286
C           -1.26134159134380        0.17075075105010        0.33580913523781
C           -1.60639255791461       -1.32671830911140        0.35991215173791
C           -2.38010644097007        0.95175082836607       -0.35230990483350
H            1.90029292602000        1.94250317488652        0.81536906055164
H            3.18797526173099        0.73103037774305        0.74977756108364
H            2.50722298570601        1.38850411980327       -0.74455694721192
H            1.01053997058984       -0.31169141006190        1.29795587791390
H            2.02153099126242       -0.97221326677802       -1.51166511758318
H            1.02216525374228       -2.04791145478237       -0.52918673498970
H            2.65383127450668       -1.63241268105540       -0.00185751646591
H           -0.05849485822556        0.27045527998766       -1.30624711028324
H           -1.17127740824173        0.52297081568510        1.37204188167926
H           -2.56907735770578       -1.47785758493745        0.84135684916678
H           -1.66080500110255       -1.71773994358383       -0.65472013884126
H           -0.85754331114479       -1.88863218288861        0.91349420436795
H           -2.50695301943541        0.60279782917267       -1.37484384332070
H           -2.13576456704609        2.00947048393403       -0.37491198985875
H           -3.31747725758513        0.81591838514958        0.17957408999435
22
 energy: -23.426461026201 gnorm: 0.000294347876 xtb: 6.7.1 (edcfbbe)
C            2.27698044114756        1.08133838748024        0.27062474009998
C            1.22151890456093       -0.02962230880659        0.25913584448630
C            1.76132418513865       -1.25174807621895       -0.49109476235310
N           -0.00851534049170        0.49846900244519       -0.31943283228821
C           -1.26128998642116        0.17045817381415        0.33611914522423
C           -1.60652052740587       -1.32700444772291        0.35907236766189
C           -2.37990997543672        0.95228791677382       -0.35127207109152
H            1.90024865041134        1.94343523484588        0.81286532593821
H            3.18802500887336        0.73197212902259        0.74910996805853
H            2.50744865328605        1.38743483894186       -0.74623326079192
H            1.01097095664067       -0.31059524485341        1.29831460067088
H            2.02041920317252       -0.97355309362702       -1.51123439164490
H            1.02228113347803       -2.04857793123552       -0.52675192056460
H            2.65426690751753       -1.63196849024993       -0.00128854890200
H           -0.05868650267418        0.27000377266589       -1.30615700447816
H           -1.17089994570858        0.52185753518009        1.37259608107001
H           -2.57045583164562       -1.47805959008703        0.83796948298236
H           -1.65842353179537       -1.71788538092775       -0.65575315260194
H           -0.85920296284111       -1.88911503280528        0.91451085516584
H           -2.50503261676281        0.60631462993675       -1.37502346762667
H           -2.13708097970758        2.01034356149420       -0.37044343831249
H           -3.31780542204276        0.81366090867105        0.17880376359072
22
 energy: -23.426461459359 gnorm: 0.000140729381 xtb: 6.7.1 (edcfbbe)
C            2.27710709976636        1.08148692588188        0.26964331764329
C            1.22162829643834       -0.02935046338114        0.25927426957249
C            1.76111201166732       -1.25202659251917       -0.49022803155038
N           -0.00851311629809        0.49854726766883       -0.31930894386482
C           -1.26134442609580        0.17010690644686        0.33617348920951
C           -1.60659644574547       -1.32726140251131        0.35822128554029
C           -2.37997604555064        0.95251150067757       -0.35044127642934
H            1.90047078597685        1.94418646314061        0.81095819780952
H            3.18810661681891        0.73249717743939        0.74852782418780
H            2.50766519876291        1.38651741244282       -0.74749908163678
H            1.01106480578970       -0.30944175679323        1.29870355727138
H            2.01950714096518       -0.97461699314336       -1.51071349333477
H            1.02230718282248       -2.04906769909141       -0.52472392412054
H            2.65442120882799       -1.63152556866644       -0.00061043478947
H           -0.05863909904384        0.27017347009905       -1.30607269606067
H           -1.17058880425169        0.52098161710023        1.37276697251403
H           -2.57110777401956       -1.47853790712489        0.83584425573076
H           -1.65723467683332       -1.71770269247611       -0.65679527433070
H           -0.85998568789791       -1.88954363795935        0.91434267554883
H           -2.50408269578911        0.60823188646069       -1.37493114131286
H           -2.13735211844075        2.01076390481326       -0.36753522960224
H           -3.31830903657667        0.81251667623253        0.17884100629807
22
 energy: -23.426461727834 gnorm: 0.000078792924 xtb: 6.7.1 (edcfbbe)
C            2.27724268302550        1.08151692320855        0.26891222223899
C            1.22161126793874       -0.02906795840336        0.25943784304065
C            1.76085601877869       -1.25222782418620       -0.48941116098827
N           -0.00858267939230        0.49884455864941       -0.31908636399600
C           -1.26143017687117        0.16983498864216        0.33629161390940
C           -1.60647730135861       -1.32748987617223        0.35741520662373
C           -2.37998174160811        0.95263003775880       -0.34995805179317
H            1.90086748383665        1.94468758184460        0.80964641418382
H            3.18820611384375        0.73259147652265        0.74794711098582
H            2.50779674954173        1.38579213234986       -0.74842985442137
H            1.01098810664627       -0.30836811574536        1.29908252957168
H            2.01880703902096       -0.97545344646888       -1.51013286466345
H            1.02219769248325       -2.04938477745252       -0.52305885913903
H            2.65439314628761       -1.63121200124302        0.00012716848168
H           -0.05861798898379        0.27082112486378       -1.30592356435460
H           -1.17044747529558        0.52028413673902        1.37298909462648
H           -2.57099193991231       -1.47906278187489        0.83493821478442
H           -1.65712266570514       -1.71727882443772       -0.65782843420278
H           -0.85989940923422       -1.89007080919650        0.91322615822803
H           -2.50386250601666        0.60920593074250       -1.37475396055664
H           -2.13754587525525        2.01088270363970       -0.36610039356979
H           -3.31834612047683        0.81197131495699        0.17910725530381
22
 energy: -23.426461911998 gnorm: 0.000120351534 xtb: 6.7.1 (edcfbbe)
C            2.27746435259141        1.08158238718511        0.26834570682147
C            1.22167162902862       -0.02883106255812        0.25967551986726
C            1.76062291601081       -1.25239245416010       -0.48871241004315
N           -0.00855384026311        0.49906496011396       -0.31876794620149
C           -1.26149614470962        0.16962012454145        0.33630490577432
C           -1.60647648603482       -1.32767433268885        0.35672539188583
C           -2.38006867393546        0.95265717618571       -0.34960542088903
H            1.90134983062520        1.94511244391894        0.80867068313732
H            3.18844299346453        0.73273268474854        0.74742140715948
H            2.50789076937619        1.38528154690028       -0.74919453006955
H            1.01113752952485       -0.30757688743806        1.29948473139346
H            2.01819822362496       -0.97614415931928       -1.50965518593936
H            1.02204345922483       -2.04962401395864       -0.52167934484361
H            2.65434507199123       -1.63100455835758        0.00075006741188
H           -0.05841757208567        0.27165497967305       -1.30578050269875
H           -1.17058848807585        0.51961508052990        1.37314844367489
H           -2.57073261768568       -1.47956655081024        0.83468133481724
H           -1.65764520320705       -1.71685468376768       -0.65870913897932
H           -0.85960843626213       -1.89053644530093        0.91183535213499
H           -2.50382188146261        0.60973352094062       -1.37455666155586
H           -2.13762849753823        2.01091150529078       -0.36523758411089
H           -3.31846851290921        0.81168523306848        0.17929250554628
22
 energy: -23.426462052121 gnorm: 0.000082246930 xtb: 6.7.1 (edcfbbe)
C            2.27765318161694        1.08169786302443        0.26783025748207
C            1.22169247458687       -0.02858254323449        0.25987518421948
C            1.76047214970435       -1.25254138490529       -0.48804944972774
N           -0.00858893432446        0.49924809788134       -0.31842813695684
C           -1.26153941828567        0.16941797782927        0.33636419575481
C           -1.60653971228120       -1.32790245292839        0.35607651424000
C           -2.38006113670324        0.95273361630409       -0.34934674918395
H            1.90177228804848        1.94554892509182        0.80781169247244
H            3.18869146859820        0.73297096499046        0.74687409457969
H            2.50792651611606        1.38485210151309       -0.74990667229361
H            1.01135397480531       -0.30682988574150        1.29985002748322
H            2.01771454368822       -0.97683234568306       -1.50923004670781
H            1.02193217357760       -2.04983070474391       -0.52040446495680
H            2.65437241686978       -1.63088384033993        0.00131407016986
H           -0.05826960208687        0.27236049310158       -1.30551305115618
H           -1.17078480441429        0.51893170317155        1.37339365899322
H           -2.57046888777371       -1.48006360773901        0.83463455871812
H           -1.65844431150015       -1.71647770897668       -0.65956079271793
H           -0.85930242893214       -1.89112610950226        0.91034484402505
H           -2.50380684167391        0.61017404794798       -1.37444502096516
H           -2.13764440544970        2.01101435945095       -0.36455366595624
H           -3.31847028289330        0.81156692822527        0.17950627677772
22
 energy: -23.426462111476 gnorm: 0.000031450021 xtb: 6.7.1 (edcfbbe)
C            2.27776873577816        1.08181526649152        0.26747868508812
C            1.22174956704876       -0.02846632165767        0.26002521913319
C            1.76042433697487       -1.25265377214418       -0.48764246170522
N           -0.00857026994060        0.49926607752658       -0.31821220473257
C           -1.26154824415182        0.16928199442298        0.33637504175818
C           -1.60665202576510       -1.32804948705564        0.35568648744968
C           -2.38005964644463        0.95282203463441       -0.34913654281963
H            1.90198212860405        1.94585605718084        0.80723436050990
H            3.18887419036554        0.73323891124734        0.74649986226649
H            2.50790371738665        1.38463343588734       -0.75040497219768
H            1.01158354315855       -0.30645540718350        1.30009957114028
H            2.01751877219163       -0.97726081836164       -1.50896337005944
H            1.02190090426685       -2.04998674043136       -0.51966401577005
H            2.65441687923382       -1.63083143687477        0.00170568953114
H           -0.05812514290746        0.27271999466446       -1.30538608613289
H           -1.17093835816707        0.51843021878502        1.37355047013339