 Entering Gaussian System
 *********************************************
 Gaussian 98:
 frequency output generated by the xtb code
 *********************************************
                         Standard orientation:
 --------------------------------------------------------------------
  Center     Atomic     Atomic              Coordinates (Angstroms)
  Number     Number      Type              X           Y           Z
 --------------------------------------------------------------------
    1          6             0        3.628431   -0.513131    0.147509
    2          6             0        2.160516   -0.514526   -0.265034
    3          6             0        1.419006    0.689845    0.313022
    4          6             0       -0.024803    0.815238   -0.180723
    5          6             0       -0.903858   -0.308322    0.340699
    6         17             0       -2.615177   -0.047472   -0.150785
    7          1             0        3.718925   -0.544341    1.230796
    8          1             0        4.125350    0.385229   -0.211376
    9          1             0        4.142142   -1.377725   -0.265083
   10          1             0        2.091236   -0.491569   -1.354458
   11          1             0        1.695237   -1.438310    0.081255
   12          1             0        1.953760    1.597762    0.028026
   13          1             0        1.425290    0.630251    1.402975
   14          1             0       -0.041765    0.812674   -1.271943
   15          1             0       -0.434958    1.768084    0.158842
   16          1             0       -0.621284   -1.274947   -0.069811
   17          1             0       -0.902577   -0.344763    1.428812
 --------------------------------------------------------------------
     1 basis functions        1 primitive gaussians
     1 alpha electrons        1 beta electrons
 
 Harmonic frequencies (cm**-1), IR intensities (km*mol⁻¹),
 Raman scattering activities (A**4/amu), Raman depolarization ratios,
 reduced masses (AMU), force constants (mDyne/A) and normal coordinates:
                      1                      2                      3
                        a                      a                      a 
 Frequencies --    61.0492                69.2684               105.7982
 Red. masses --    13.2184                 7.5441                12.1935
 Frc consts  --     0.0000                 0.0000                 0.0000
 IR Inten    --     2.2183                 1.1467                 0.5029
 Raman Activ --     0.0000                 0.0000                 0.0000
 Depolar     --     0.0000                 0.0000                 0.0000
 Atom AN      X      Y      Z        X      Y      Z        X      Y      Z
   1   6    -0.01  -0.01   0.38     0.09   0.21  -0.20     0.26   0.32  -0.05
   2   6     0.13   0.11  -0.15    -0.08  -0.20   0.38     0.26  -0.05  -0.06
   3   6    -0.03   0.01  -0.16    -0.02  -0.02   0.09    -0.04  -0.31   0.09
   4   6    -0.00  -0.08  -0.26     0.01  -0.02   0.02     0.02  -0.37  -0.10
   5   6     0.07  -0.22  -0.41     0.05  -0.23  -0.36    -0.20  -0.07   0.17
   6  17    -0.11   0.14   0.40    -0.04   0.17   0.07    -0.21   0.30  -0.05
   7   1    -0.12  -0.08   0.12     0.15   0.26  -0.06     0.08   0.06  -0.01
   8   1     0.04   0.02   0.23    -0.05   0.01  -0.27    -0.00   0.15   0.02
   9   1     0.04   0.02   0.10     0.01   0.01   0.04     0.15   0.16  -0.05
  10   1     0.15   0.09  -0.05    -0.14  -0.21   0.12     0.08   0.02  -0.02
  11   1    -0.00   0.02  -0.14     0.05  -0.03   0.29     0.14  -0.06  -0.06
  12   1    -0.02   0.02  -0.02     0.01  -0.03  -0.03    -0.04  -0.05   0.10
  13   1    -0.04  -0.02  -0.05    -0.01   0.06   0.03    -0.05  -0.15   0.02
  14   1     0.02   0.01  -0.08     0.03   0.08   0.00     0.04  -0.21  -0.03
  15   1    -0.03  -0.05  -0.05    -0.02  -0.04   0.07     0.02  -0.06  -0.13
  16   1    -0.04  -0.03  -0.24    -0.02  -0.01  -0.25    -0.10  -0.07   0.14
  17   1     0.12  -0.18  -0.12     0.06  -0.21  -0.11    -0.09   0.07   0.05
                      4                      5                      6
                        a                      a                      a 
 Frequencies --   225.2716               236.4031               265.6238
 Red. masses --     6.3195                10.2879                11.7401
 Frc consts  --     0.0000                 0.0000                 0.0000
 IR Inten    --     0.9752                 1.5069                 0.8728
 Raman Activ --     0.0000                 0.0000                 0.0000
 Depolar     --     0.0000                 0.0000                 0.0000
 Atom AN      X      Y      Z        X      Y      Z        X      Y      Z
   1   6     0.04  -0.06  -0.12    -0.13   0.06   0.01     0.19   0.07   0.12
   2   6    -0.06  -0.05   0.24    -0.14  -0.03   0.07     0.20  -0.25  -0.03
   3   6    -0.03  -0.00   0.20    -0.04   0.15  -0.22     0.22  -0.09  -0.30
   4   6     0.13   0.13  -0.28    -0.15  -0.21   0.14     0.00   0.24   0.26
   5   6     0.06   0.24  -0.17     0.01  -0.32   0.16    -0.09   0.16  -0.02
   6  17    -0.11  -0.16   0.11     0.32   0.23  -0.09    -0.38  -0.12  -0.04
   7   1     0.11  -0.41  -0.06    -0.02  -0.30  -0.01     0.02  -0.08   0.03
   8   1    -0.11   0.17   0.25    -0.14   0.18   0.27    -0.03   0.11   0.15
   9   1     0.06   0.19  -0.40     0.05   0.20  -0.27     0.16   0.12  -0.04
  10   1    -0.08  -0.03   0.07    -0.06  -0.08   0.02     0.08  -0.16  -0.01
  11   1     0.01  -0.01   0.11    -0.04   0.02   0.10     0.08  -0.06   0.06
  12   1     0.05  -0.01   0.12    -0.06   0.02  -0.23     0.06  -0.06  -0.21
  13   1    -0.11  -0.02   0.06     0.09   0.19  -0.06     0.17   0.07  -0.08
  14   1     0.13  -0.03  -0.08    -0.11  -0.06   0.04    -0.11   0.22   0.08
  15   1     0.03   0.07  -0.17    -0.08  -0.09   0.06     0.10   0.05   0.25
  16   1     0.03   0.06  -0.01    -0.02  -0.09   0.02     0.00   0.08  -0.06
  17   1     0.05   0.11  -0.05    -0.01  -0.11   0.05    -0.05  -0.02  -0.01
                      7                      8                      9
                        a                      a                      a 
 Frequencies --   288.3944               485.5764               716.3301
 Red. masses --    11.7315                11.2228                13.1223
 Frc consts  --     0.0000                 0.0000                 0.0000
 IR Inten    --     1.4020                 0.5018                 1.1216
 Raman Activ --     0.0000                 0.0000                 0.0000
 Depolar     --     0.0000                 0.0000                 0.0000
 Atom AN      X      Y      Z        X      Y      Z        X      Y      Z
   1   6     0.31  -0.32  -0.11    -0.33   0.14  -0.01    -0.00   0.01  -0.01
   2   6     0.21   0.32   0.18    -0.19  -0.00  -0.11     0.00  -0.01   0.00
   3   6     0.12   0.36   0.03     0.42   0.13   0.14     0.06  -0.02   0.08
   4   6    -0.00  -0.16   0.05     0.45  -0.20   0.10     0.01  -0.08   0.12
   5   6    -0.11  -0.15   0.01     0.11  -0.06  -0.01    -0.68   0.23  -0.26
   6  17    -0.34   0.01  -0.07    -0.29  -0.02  -0.04     0.36  -0.11   0.13
   7   1     0.17  -0.14  -0.04    -0.16   0.07   0.00     0.01   0.02  -0.00
   8   1     0.20  -0.16  -0.04    -0.14   0.07   0.01    -0.02   0.01  -0.02
   9   1    -0.08  -0.16  -0.10     0.00   0.07   0.05     0.01   0.01   0.00
  10   1     0.04   0.08   0.05    -0.09   0.03  -0.03     0.02   0.10  -0.00
  11   1     0.00   0.12   0.06    -0.10   0.03  -0.03    -0.02  -0.03  -0.09
  12   1    -0.05   0.12  -0.09     0.11   0.01  -0.07    -0.04  -0.03  -0.19
  13   1     0.08   0.20   0.01     0.22   0.09   0.04     0.16   0.16   0.03
  14   1     0.02  -0.08   0.01     0.23  -0.15   0.02     0.12  -0.11   0.03
  15   1    -0.05  -0.05  -0.03     0.08  -0.03  -0.10     0.05   0.05  -0.11
  16   1    -0.07  -0.05  -0.01    -0.03  -0.03  -0.00    -0.14   0.09  -0.11
  17   1    -0.05  -0.06   0.00    -0.01  -0.02  -0.00    -0.16  -0.04  -0.07
                     10                     11                     12
                        a                      a                      a 
 Frequencies --   777.3741               791.3596               881.3803
 Red. masses --     3.8285                 2.3967                 3.6561
 Frc consts  --     0.0000                 0.0000                 0.0000
 IR Inten    --    12.0210                 5.7297                 1.8273
 Raman Activ --     0.0000                 0.0000                 0.0000
 Depolar     --     0.0000                 0.0000                 0.0000
 Atom AN      X      Y      Z        X      Y      Z        X      Y      Z
   1   6    -0.06   0.02  -0.02     0.05  -0.00  -0.03     0.07   0.08  -0.11
   2   6     0.03   0.15  -0.08     0.05   0.02  -0.19     0.02   0.05  -0.12
   3   6     0.15   0.08  -0.08     0.04   0.09  -0.05    -0.22  -0.18   0.20
   4   6     0.12  -0.14  -0.07    -0.07   0.10   0.10    -0.06  -0.04   0.08
   5   6    -0.25  -0.06  -0.20    -0.09   0.06   0.18     0.19   0.06  -0.13
   6  17     0.10  -0.02   0.07     0.02  -0.02  -0.03    -0.04   0.03   0.01
   7   1    -0.16  -0.05   0.01    -0.19  -0.05   0.01    -0.33  -0.09   0.00
   8   1     0.09  -0.02   0.10     0.13  -0.02   0.13     0.33  -0.06   0.20
   9   1    -0.03  -0.02   0.03     0.03  -0.03   0.07    -0.05  -0.09   0.11
  10   1    -0.15  -0.27  -0.01    -0.15  -0.33  -0.04    -0.27  -0.04  -0.01
  11   1     0.01   0.16   0.31     0.07   0.10   0.31     0.29  -0.08   0.12
  12   1     0.00   0.12   0.24     0.01   0.09   0.22    -0.15  -0.10  -0.31
  13   1    -0.06  -0.23  -0.03    -0.02  -0.23  -0.03     0.17   0.24   0.06
  14   1    -0.03   0.28  -0.01     0.01  -0.31   0.02     0.16  -0.00   0.02
  15   1     0.03  -0.14   0.27    -0.01   0.14  -0.29    -0.06  -0.01  -0.03
  16   1    -0.12  -0.16   0.25     0.03   0.17  -0.29     0.12  -0.01   0.09
  17   1    -0.11   0.29  -0.04     0.00  -0.36   0.03     0.03   0.16  -0.03
                     13                     14                     15
                        a                      a                      a 
 Frequencies --   900.1480               983.0471              1005.3606
 Red. masses --     6.8514                 3.6881                 6.4082
 Frc consts  --     0.0000                 0.0000                 0.0000
 IR Inten    --     1.0664                 5.2733                 3.5730
 Raman Activ --     0.0000                 0.0000                 0.0000
 Depolar     --     0.0000                 0.0000                 0.0000
 Atom AN      X      Y      Z        X      Y      Z        X      Y      Z
   1   6     0.22  -0.17  -0.04    -0.08   0.05   0.16    -0.13   0.20  -0.01
   2   6    -0.01  -0.31  -0.19     0.02   0.02  -0.09     0.03  -0.04   0.08
   3   6     0.07   0.33   0.24    -0.09  -0.05  -0.09     0.26  -0.05   0.00
   4   6    -0.23   0.20  -0.02    -0.09   0.06   0.29    -0.07   0.38  -0.15
   5   6    -0.03  -0.19  -0.09     0.13  -0.02  -0.24    -0.19  -0.37   0.06
   6  17     0.01   0.03   0.02    -0.02   0.03   0.04     0.01   0.02   0.02
   7   1    -0.10   0.10   0.01     0.31  -0.03   0.01    -0.01  -0.10  -0.01
   8   1    -0.15   0.09   0.02    -0.05  -0.04  -0.12     0.22  -0.08   0.04
   9   1     0.41   0.08   0.15    -0.22  -0.01  -0.16    -0.31  -0.08  -0.08
  10   1    -0.05  -0.03  -0.05     0.26  -0.22  -0.04     0.01   0.08   0.02
  11   1    -0.08  -0.05  -0.07    -0.05   0.06   0.06     0.21  -0.14  -0.06
  12   1     0.06   0.07   0.07    -0.14   0.06   0.01     0.36  -0.18   0.01
  13   1     0.04   0.06   0.06     0.26  -0.22  -0.04    -0.00   0.02   0.00
  14   1     0.09  -0.00  -0.01     0.28  -0.16   0.07    -0.02  -0.01  -0.04
  15   1    -0.30  -0.00  -0.12    -0.18   0.04  -0.19    -0.10   0.10  -0.13
  16   1     0.03  -0.12   0.17     0.19  -0.05   0.15     0.05  -0.11   0.12
  17   1    -0.07   0.15  -0.02    -0.14   0.20  -0.06    -0.17  -0.03   0.02
                     16                     17                     18
                        a                      a                      a 
 Frequencies --  1079.7410              1080.8937              1117.7477
 Red. masses --     3.8083                 8.9361                 7.8760
 Frc consts  --     0.0000                 0.0000                 0.0000
 IR Inten    --     0.8825                 0.8084                 0.8554
 Raman Activ --     0.0000                 0.0000                 0.0000
 Depolar     --     0.0000                 0.0000                 0.0000
 Atom AN      X      Y      Z        X      Y      Z        X      Y      Z
   1   6    -0.10   0.08   0.06    -0.44  -0.11  -0.19     0.21   0.10   0.10
   2   6     0.09  -0.07  -0.09     0.53   0.01   0.17    -0.33   0.03   0.00
   3   6     0.16   0.00   0.21     0.21  -0.00   0.09     0.38  -0.07   0.03
   4   6    -0.25  -0.03  -0.16    -0.28  -0.12  -0.01    -0.36  -0.26   0.01
   5   6    -0.03   0.12   0.15     0.08   0.12  -0.10     0.14   0.23  -0.17
   6  17     0.02  -0.03  -0.07    -0.00   0.02   0.01     0.00   0.01   0.01
   7   1     0.09  -0.04   0.00    -0.22   0.04  -0.04     0.09  -0.03   0.02
   8   1     0.03  -0.03  -0.04    -0.22   0.04  -0.03     0.15  -0.02   0.03
   9   1    -0.16  -0.02  -0.07     0.00   0.02   0.01    -0.03  -0.01  -0.00
  10   1     0.10  -0.12  -0.03     0.14   0.02   0.05    -0.19   0.13   0.01
  11   1     0.02   0.00   0.03     0.16  -0.01   0.04    -0.12   0.02  -0.03
  12   1    -0.02   0.01  -0.03    -0.05   0.07   0.04     0.19  -0.06   0.05
  13   1     0.28  -0.04   0.05    -0.00   0.04   0.03     0.10  -0.11   0.00
  14   1     0.09   0.16  -0.04    -0.21  -0.08  -0.00    -0.36  -0.15   0.00
  15   1    -0.25  -0.11   0.04    -0.03  -0.01   0.01    -0.10  -0.08   0.02
  16   1    -0.41  -0.02  -0.12     0.23   0.08  -0.01     0.16   0.09  -0.03
  17   1     0.55   0.02   0.04    -0.08   0.04  -0.03    -0.07   0.07  -0.05
                     19                     20                     21
                        a                      a                      a 
 Frequencies --  1130.4399              1178.1881              1225.1805
 Red. masses --     7.0443                 5.8596                 3.3242
 Frc consts  --     0.0000                 0.0000                 0.0000
 IR Inten    --     0.9482                 0.5659                 7.4979
 Raman Activ --     0.0000                 0.0000                 0.0000
 Depolar     --     0.0000                 0.0000                 0.0000
 Atom AN      X      Y      Z        X      Y      Z        X      Y      Z
   1   6    -0.04   0.17  -0.01    -0.02   0.03   0.20     0.04   0.05  -0.07
   2   6     0.03  -0.40  -0.07    -0.01  -0.10  -0.35    -0.10  -0.10   0.12
   3   6    -0.14   0.42  -0.03     0.00   0.10   0.36     0.02   0.13  -0.11
   4   6     0.15  -0.22   0.18     0.02  -0.07  -0.31    -0.03  -0.11   0.05
   5   6     0.07   0.21  -0.08    -0.08  -0.05   0.11    -0.30  -0.12   0.01
   6  17     0.00  -0.02   0.01    -0.01   0.02   0.01    -0.04   0.04  -0.03
   7   1     0.00  -0.10  -0.01     0.25  -0.02   0.02    -0.07  -0.02  -0.01
   8   1     0.20  -0.07   0.02    -0.03  -0.04  -0.10     0.09  -0.01   0.05
   9   1    -0.21  -0.06  -0.05    -0.12   0.01  -0.11    -0.01  -0.02   0.04
  10   1     0.14  -0.04  -0.03    -0.01  -0.20  -0.09     0.05   0.08   0.03
  11   1     0.19  -0.24  -0.15     0.06   0.00   0.08     0.01  -0.09  -0.09
  12   1     0.08   0.08   0.14    -0.16   0.08  -0.07    -0.04   0.10   0.10
  13   1    -0.32   0.08  -0.00     0.06   0.18   0.10     0.03  -0.11  -0.03
  14   1    -0.06  -0.06   0.05    -0.15   0.16  -0.07     0.16   0.07   0.01
  15   1    -0.14  -0.14   0.07     0.23   0.01   0.12     0.16   0.05  -0.00
  16   1    -0.10   0.03  -0.04     0.35   0.12  -0.03     0.57   0.14   0.04
  17   1    -0.06   0.00  -0.02    -0.20  -0.13   0.02     0.55   0.12   0.01
                     22                     23                     24
                        a                      a                      a 
 Frequencies --  1241.1843              1256.5998              1283.9550
 Red. masses --     3.7041                 2.6872                 1.8781
 Frc consts  --     0.0000                 0.0000                 0.0000
 IR Inten    --     1.2690                 1.4655                 1.2473
 Raman Activ --     0.0000                 0.0000                 0.0000
 Depolar     --     0.0000                 0.0000                 0.0000
 Atom AN      X      Y      Z        X      Y      Z        X      Y      Z
   1   6    -0.07  -0.15   0.22    -0.02  -0.13   0.05     0.03   0.05  -0.12
   2   6     0.10   0.17  -0.24    -0.03   0.18   0.02    -0.00   0.11  -0.08
   3   6    -0.02  -0.01  -0.01    -0.04  -0.02  -0.13    -0.06  -0.10   0.14
   4   6     0.04   0.01   0.21     0.06  -0.14  -0.09    -0.00  -0.06   0.05
   5   6    -0.08  -0.04  -0.13    -0.06   0.15   0.15    -0.05   0.02  -0.01
   6  17    -0.01   0.00  -0.02    -0.00   0.01   0.01    -0.01   0.01  -0.00
   7   1     0.23   0.06   0.03     0.06   0.06   0.01    -0.11  -0.01  -0.02
   8   1    -0.22   0.00  -0.14    -0.12   0.02  -0.04     0.08   0.01   0.05
   9   1     0.03   0.06  -0.10     0.09   0.04  -0.01     0.02  -0.00   0.03
  10   1    -0.31  -0.02  -0.04    -0.12   0.04   0.01     0.45  -0.29  -0.05
  11   1     0.29  -0.03   0.12     0.24  -0.07   0.03    -0.37   0.26   0.09
  12   1     0.24  -0.15  -0.01     0.24  -0.15  -0.02     0.36  -0.29  -0.09
  13   1    -0.28   0.18   0.01     0.01  -0.08  -0.04    -0.25   0.26   0.05
  14   1    -0.16  -0.18   0.06     0.35   0.24  -0.03     0.01  -0.02   0.02
  15   1     0.04   0.06  -0.07    -0.47  -0.28   0.09    -0.08  -0.06   0.03
  16   1    -0.02  -0.06   0.07     0.25   0.17  -0.09     0.14   0.05   0.00
  17   1     0.36   0.15  -0.02    -0.17  -0.17   0.03     0.09   0.03  -0.00
                     25                     26                     27
                        a                      a                      a 
 Frequencies --  1304.4921              1334.5801              1367.8788
 Red. masses --     3.5207                 4.3988                 5.1178
 Frc consts  --     0.0000                 0.0000                 0.0000
 IR Inten    --     3.2734                 2.3831                 0.4409
 Raman Activ --     0.0000                 0.0000                 0.0000
 Depolar     --     0.0000                 0.0000                 0.0000
 Atom AN      X      Y      Z        X      Y      Z        X      Y      Z
   1   6     0.02   0.13   0.09     0.01   0.01  -0.02     0.01  -0.07  -0.04
   2   6     0.24  -0.20  -0.07     0.01  -0.01   0.04    -0.36   0.17   0.00
   3   6     0.21  -0.20  -0.09    -0.07  -0.10   0.05     0.39  -0.20  -0.01
   4   6    -0.04   0.05   0.06     0.47   0.20  -0.03    -0.05   0.08   0.02
   5   6    -0.02   0.00   0.04    -0.15   0.00  -0.03    -0.00  -0.00   0.01
   6  17    -0.00   0.01  -0.00    -0.02   0.00  -0.01     0.00  -0.00  -0.00
   7   1     0.00  -0.05   0.01    -0.03  -0.01  -0.00     0.04   0.05  -0.01
   8   1     0.02  -0.01  -0.05     0.01   0.01   0.01     0.02   0.01   0.06
   9   1    -0.18  -0.03  -0.07    -0.01  -0.01   0.02     0.11   0.02   0.04
  10   1    -0.35   0.19   0.01     0.02   0.01   0.01     0.32  -0.14  -0.03
  11   1    -0.39   0.20   0.03    -0.06   0.02   0.00     0.32  -0.16   0.01
  12   1    -0.25   0.14   0.02    -0.21   0.06  -0.05    -0.36   0.21  -0.02
  13   1    -0.37   0.20  -0.01     0.15  -0.05   0.01    -0.37   0.17   0.01
  14   1     0.23   0.08   0.01    -0.52  -0.16  -0.00     0.07  -0.00   0.01
  15   1    -0.21  -0.05  -0.05    -0.48  -0.19  -0.03    -0.10  -0.01  -0.03
  16   1     0.08   0.03  -0.01     0.15   0.01   0.09    -0.04  -0.02   0.01
  17   1     0.00  -0.02   0.01     0.15  -0.06  -0.01     0.02  -0.01   0.00
                     28                     29                     30
                        a                      a                      a 
 Frequencies --  1412.4505              1428.7485              1480.3075
 Red. masses --     3.1755                 2.0375                 1.9069
 Frc consts  --     0.0000                 0.0000                 0.0000
 IR Inten    --     0.2084                 0.4825                 0.6492
 Raman Activ --     0.0000                 0.0000                 0.0000
 Depolar     --     0.0000                 0.0000                 0.0000
 Atom AN      X      Y      Z        X      Y      Z        X      Y      Z
   1   6     0.42  -0.02   0.10     0.02  -0.01   0.01     0.00   0.02   0.00
   2   6    -0.07   0.05   0.01    -0.02  -0.01  -0.01    -0.03  -0.03  -0.03
   3   6     0.02   0.01   0.01    -0.01  -0.01   0.00    -0.06  -0.11  -0.11
   4   6    -0.01  -0.00  -0.01     0.09   0.01   0.02    -0.05   0.17  -0.14
   5   6     0.00   0.01  -0.01    -0.01  -0.25   0.15    -0.02  -0.00   0.00
   6  17    -0.00  -0.00  -0.00     0.02  -0.01   0.01     0.00   0.00   0.00
   7   1    -0.51   0.03   0.05    -0.02   0.00   0.00     0.00  -0.06  -0.00
   8   1    -0.44   0.18  -0.19    -0.02   0.01  -0.01    -0.01  -0.01  -0.04
   9   1    -0.42  -0.16  -0.23    -0.01  -0.01  -0.01     0.02  -0.01   0.04
  10   1     0.05  -0.10  -0.01     0.03   0.04  -0.00     0.03   0.07  -0.00
  11   1     0.06  -0.06  -0.06     0.02   0.00   0.05     0.03   0.01   0.07
  12   1     0.00   0.00   0.00    -0.02   0.01  -0.00     0.04   0.09   0.39
  13   1     0.01   0.00   0.00    -0.00   0.01   0.00     0.21   0.34   0.01
  14   1    -0.00  -0.01  -0.00    -0.08   0.02   0.00     0.19  -0.50  -0.01
  15   1     0.01  -0.00   0.01    -0.07  -0.01  -0.05     0.03  -0.16   0.51
  16   1    -0.01  -0.01   0.02    -0.03   0.24  -0.62     0.01   0.02  -0.03
  17   1     0.00  -0.02  -0.00    -0.14   0.65   0.03     0.00   0.03  -0.00
                     31                     32                     33
                        a                      a                      a 
 Frequencies --  1485.7183              1493.1745              1500.0721
 Red. masses --     1.9875                 1.8561                 1.5278
 Frc consts  --     0.0000                 0.0000                 0.0000
 IR Inten    --     0.0827                 1.4717                 1.3958
 Raman Activ --     0.0000                 0.0000                 0.0000
 Depolar     --     0.0000                 0.0000                 0.0000
 Atom AN      X      Y      Z        X      Y      Z        X      Y      Z
   1   6    -0.01  -0.01   0.00     0.03   0.01   0.03    -0.05  -0.12   0.17
   2   6     0.05   0.01   0.02    -0.11  -0.19  -0.15    -0.01  -0.02   0.04
   3   6     0.08   0.16   0.14    -0.01   0.04   0.02    -0.01  -0.01  -0.01
   4   6    -0.04   0.15  -0.10     0.00  -0.01   0.00     0.00   0.01  -0.01
   5   6    -0.02  -0.02   0.01     0.00   0.02  -0.01    -0.00  -0.00  -0.00
   6  17     0.00   0.00  -0.00    -0.00  -0.00  -0.00     0.00   0.00   0.00
   7   1     0.01   0.05   0.00    -0.09  -0.07   0.01    -0.29   0.38   0.05
   8   1     0.02   0.00   0.03    -0.03  -0.03  -0.11     0.35  -0.26  -0.14
   9   1    -0.01   0.01  -0.03     0.01   0.02  -0.03     0.16   0.37  -0.59
  10   1    -0.07  -0.06   0.00     0.30   0.58  -0.01     0.01  -0.01   0.01
  11   1    -0.04  -0.01  -0.08     0.14   0.16   0.62    -0.03  -0.01  -0.03
  12   1    -0.08  -0.10  -0.51     0.00  -0.04  -0.12    -0.01   0.02   0.04
  13   1    -0.27  -0.45  -0.02    -0.04  -0.12  -0.01     0.04   0.03   0.00
  14   1     0.14  -0.38  -0.01     0.01   0.01   0.00    -0.00  -0.01  -0.00
  15   1     0.04  -0.11   0.39     0.01   0.01  -0.01    -0.00  -0.00   0.01
  16   1     0.02   0.02  -0.04    -0.01  -0.02   0.05     0.00   0.00  -0.00
  17   1     0.02   0.05   0.00     0.01  -0.05  -0.00    -0.00   0.00  -0.00
                     34                     35                     36
                        a                      a                      a 
 Frequencies --  1502.2860              2967.3119              2975.3168
 Red. masses --     1.6125                 1.9067                 1.9416
 Frc consts  --     0.0000                 0.0000                 0.0000
 IR Inten    --     0.6245                 4.8137                46.5755
 Raman Activ --     0.0000                 0.0000                 0.0000
 Depolar     --     0.0000                 0.0000                 0.0000
 Atom AN      X      Y      Z        X      Y      Z        X      Y      Z
   1   6     0.02  -0.17  -0.12     0.00   0.01  -0.01     0.00   0.00  -0.01
   2   6     0.01  -0.08  -0.05    -0.03  -0.09   0.19    -0.01  -0.04   0.15
   3   6    -0.02   0.00  -0.01     0.05   0.10  -0.15    -0.03  -0.07   0.14
   4   6    -0.00  -0.00  -0.01     0.00   0.00   0.02     0.04  -0.09  -0.15
   5   6    -0.00   0.00  -0.00    -0.00   0.00   0.00    -0.01   0.02   0.03
   6  17    -0.00  -0.00   0.00    -0.00   0.00  -0.00    -0.00   0.00   0.00
   7   1     0.19   0.60  -0.01     0.01   0.00   0.05     0.01  -0.00   0.05
   8   1    -0.01   0.24   0.60    -0.02  -0.04   0.01    -0.01  -0.02   0.01
   9   1    -0.28  -0.13  -0.12    -0.00   0.01   0.00    -0.01   0.01   0.00
  10   1     0.01   0.10  -0.01    -0.04   0.01  -0.62    -0.03   0.02  -0.50
  11   1    -0.01   0.03   0.09     0.16   0.31  -0.10     0.06   0.12  -0.03
  12   1     0.02   0.01   0.05    -0.20  -0.34   0.09     0.13   0.21  -0.05
  13   1     0.03   0.04   0.00     0.01  -0.02   0.47    -0.01   0.03  -0.47
  14   1     0.00  -0.01  -0.00    -0.00  -0.00  -0.10     0.01  -0.01   0.45
  15   1     0.01  -0.00   0.01    -0.00   0.00   0.01    -0.14   0.33   0.11
  16   1     0.00  -0.00   0.00     0.00  -0.01  -0.00     0.03  -0.10  -0.04
  17   1    -0.00  -0.00  -0.00    -0.00  -0.00   0.00     0.00   0.01  -0.10
                     37                     38                     39
                        a                      a                      a 
 Frequencies --  2977.6868              2986.0919              2989.6630
 Red. masses --     1.9083                 1.5522                 1.5484
 Frc consts  --     0.0000                 0.0000                 0.0000
 IR Inten    --    69.1233                23.8753                17.1887
 Raman Activ --     0.0000                 0.0000                 0.0000
 Depolar     --     0.0000                 0.0000                 0.0000
 Atom AN      X      Y      Z        X      Y      Z        X      Y      Z
   1   6    -0.00  -0.00   0.01    -0.00   0.00  -0.01    -0.00   0.01  -0.01
   2   6     0.00   0.02  -0.10    -0.03  -0.06   0.01    -0.05  -0.09  -0.01
   3   6     0.07   0.11  -0.09     0.05   0.07   0.11     0.04   0.06   0.07
   4   6     0.06  -0.14  -0.14     0.02  -0.04   0.09    -0.04   0.11  -0.00
   5   6    -0.01   0.02   0.06    -0.00   0.02  -0.13     0.00  -0.03   0.12
   6  17     0.00   0.00   0.00    -0.00   0.00  -0.00     0.00  -0.00   0.00
   7   1    -0.00   0.00  -0.03     0.00   0.00   0.02     0.00   0.00   0.03
   8   1     0.01   0.02  -0.01    -0.01  -0.01   0.00    -0.01  -0.02   0.01
   9   1     0.00  -0.01  -0.00     0.00  -0.00  -0.00     0.01  -0.02  -0.01
  10   1     0.02  -0.01   0.36    -0.00  -0.01   0.08     0.00  -0.02   0.18
  11   1    -0.03  -0.06   0.01     0.12   0.23  -0.09     0.19   0.37  -0.15
  12   1    -0.25  -0.42   0.14    -0.17  -0.30   0.12    -0.15  -0.26   0.10
  13   1     0.01   0.00   0.15     0.01   0.05  -0.51     0.01   0.03  -0.34
  14   1     0.01  -0.02   0.31     0.00  -0.01  -0.39    -0.00   0.02   0.19
  15   1    -0.22   0.52   0.18    -0.06   0.15   0.07     0.17  -0.40  -0.16
  16   1     0.03  -0.10  -0.03     0.03  -0.09  -0.06    -0.03   0.10   0.06
  17   1     0.00   0.01  -0.20    -0.01  -0.01   0.53     0.01   0.01  -0.49
                     40                     41                     42
                        a                      a                      a 
 Frequencies --  2991.0255              2995.2986              3005.7319
 Red. masses --     1.5573                 1.6716                 1.8246
 Frc consts  --     0.0000                 0.0000                 0.0000
 IR Inten    --    97.8932                55.7089                24.1158
 Raman Activ --     0.0000                 0.0000                 0.0000
 Depolar     --     0.0000                 0.0000                 0.0000
 Atom AN      X      Y      Z        X      Y      Z        X      Y      Z
   1   6     0.00  -0.03  -0.01     0.00   0.00  -0.00    -0.00  -0.01   0.00
   2   6     0.08   0.15   0.03    -0.00  -0.01   0.01     0.02   0.03  -0.00
   3   6     0.06   0.09   0.05    -0.02  -0.04   0.04     0.01   0.02  -0.00
   4   6    -0.01   0.03   0.03     0.03  -0.08   0.15    -0.02   0.06   0.03
   5   6     0.01  -0.05   0.01    -0.01  -0.00   0.16    -0.06   0.22   0.13
   6  17     0.00  -0.00   0.00     0.00  -0.00   0.00    -0.00   0.00  -0.00
   7   1     0.00  -0.01   0.02     0.00   0.00   0.00    -0.00  -0.00  -0.01
   8   1     0.04   0.06  -0.03    -0.01  -0.01   0.01     0.01   0.02  -0.01
   9   1    -0.03   0.06   0.03    -0.00   0.00   0.00    -0.01   0.01   0.01
  10   1    -0.01   0.04  -0.34    -0.00  -0.00  -0.04     0.00   0.01  -0.04
  11   1    -0.29  -0.57   0.24     0.02   0.04  -0.01    -0.06  -0.12   0.05
  12   1    -0.21  -0.35   0.13     0.08   0.13  -0.04    -0.03  -0.05   0.02
  13   1     0.01   0.03  -0.29    -0.00   0.00  -0.08     0.00   0.00  -0.02
  14   1    -0.00   0.00  -0.06     0.00  -0.02  -0.66    -0.00   0.01  -0.02
  15   1     0.05  -0.12  -0.04    -0.12   0.29   0.13     0.08  -0.20  -0.07
  16   1    -0.05   0.18   0.09     0.00  -0.02   0.01     0.23  -0.81  -0.36
  17   1     0.00  -0.00  -0.12     0.01   0.01  -0.59    -0.01   0.03  -0.08
                     43                     44                     45
                        a                      a                      a 
 Frequencies --  3028.1871              3031.3782              3040.9961
 Red. masses --     1.9539                 1.9060                 1.2849
 Frc consts  --     0.0000                 0.0000                 0.0000
 IR Inten    --    89.3334                85.5828                44.1005
 Raman Activ --     0.0000                 0.0000                 0.0000
 Depolar     --     0.0000                 0.0000                 0.0000
 Atom AN      X      Y      Z        X      Y      Z        X      Y      Z
   1   6     0.07   0.17  -0.23     0.01  -0.23  -0.17    -0.15   0.06  -0.01
   2   6     0.01   0.03  -0.03    -0.01  -0.02  -0.02    -0.00   0.01   0.00
   3   6     0.00   0.00  -0.00    -0.00  -0.01  -0.00    -0.00  -0.00  -0.00
   4   6    -0.00   0.00  -0.00     0.00  -0.00  -0.00     0.00  -0.00   0.00
   5   6    -0.00   0.00   0.00     0.00  -0.00  -0.00    -0.00   0.00  -0.00
   6  17    -0.00   0.00  -0.00     0.00   0.00   0.00    -0.00  -0.00   0.00
   7   1     0.05   0.01   0.62     0.04  -0.05   0.56     0.01  -0.00   0.48
   8   1    -0.32  -0.60   0.22     0.21   0.36  -0.19     0.18   0.38  -0.15
   9   1     0.02   0.00  -0.05    -0.30   0.49   0.23     0.33  -0.59  -0.29
  10   1     0.00  -0.00   0.06     0.00  -0.01   0.06    -0.00   0.00  -0.01
  11   1    -0.04  -0.08   0.03     0.03   0.06  -0.03    -0.01  -0.02   0.01
  12   1    -0.00  -0.01   0.00     0.02   0.03  -0.01     0.00   0.01  -0.00
  13   1    -0.00   0.00   0.01    -0.00  -0.00   0.03    -0.00  -0.00   0.01
  14   1     0.00   0.00   0.00     0.00  -0.00  -0.00     0.00  -0.00  -0.01
  15   1     0.00  -0.00  -0.00    -0.00   0.01   0.00    -0.00   0.01   0.00
  16   1     0.00  -0.01  -0.01    -0.00   0.00   0.00     0.00  -0.00  -0.00
  17   1    -0.00   0.00   0.01    -0.00  -0.00   0.00    -0.00   0.00   0.00
