      -----------------------------------------------------------      
     |                   =====================                   |     
     |                           x T B                           |     
     |                   =====================                   |     
     |                         S. Grimme                         |     
     |          Mulliken Center for Theoretical Chemistry        |     
     |                    University of Bonn                     |     
      -----------------------------------------------------------      

   * xtb version 6.7.1 (edcfbbe) compiled by 'albert@albert-system' on 2024-07-22

   xtb is free software: you can redistribute it and/or modify it under
   the terms of the GNU Lesser General Public License as published by
   the Free Software Foundation, either version 3 of the License, or
   (at your option) any later version.
   
   xtb is distributed in the hope that it will be useful,
   but WITHOUT ANY WARRANTY; without even the implied warranty of
   MERCHANTABILITY or FITNESS FOR A PARTICULAR PURPOSE.  See the
   GNU Lesser General Public License for more details.
   
   Cite this work as:
   * C. Bannwarth, E. Caldeweyher, S. Ehlert, A. Hansen, P. Pracht,
     J. Seibert, S. Spicher, S. Grimme, WIREs Comput. Mol. Sci., 2020, 11,
     e01493. DOI: 10.1002/wcms.1493
   
   for GFN2-xTB:
   * C. Bannwarth, S. Ehlert and S. Grimme., J. Chem. Theory Comput., 2019,
     15, 1652-1671. DOI: 10.1021/acs.jctc.8b01176
   for GFN1-xTB:
   * S. Grimme, C. Bannwarth, P. Shushkov, J. Chem. Theory Comput., 2017,
     13, 1989-2009. DOI: 10.1021/acs.jctc.7b00118
   for GFN0-xTB:
   * P. Pracht, E. Caldeweyher, S. Ehlert, S. Grimme, ChemRxiv, 2019, preprint.
     DOI: 10.26434/chemrxiv.8326202.v1
   for GFN-FF:
   * S. Spicher and S. Grimme, Angew. Chem. Int. Ed., 2020, 59, 15665-15673.
     DOI: 10.1002/anie.202004239
   
   for ALPB and GBSA implicit solvation:
   * S. Ehlert, M. Stahn, S. Spicher, S. Grimme, J. Chem. Theory Comput.,
     2021, 17, 4250-4261. DOI: 10.1021/acs.jctc.1c00471
   
   for ddCOSMO and CPCM-X implicit solvation:
   * M. Stahn, S. Ehlert, S. Grimme, J. Phys. Chem. A,
     2023, XX, XXXX-XXXX. DOI: 10.1021/acs.jpca.3c04382
   
   for DFT-D4:
   * E. Caldeweyher, C. Bannwarth and S. Grimme, J. Chem. Phys., 2017,
     147, 034112. DOI: 10.1063/1.4993215
   * E. Caldeweyher, S. Ehlert, A. Hansen, H. Neugebauer, S. Spicher,
     C. Bannwarth and S. Grimme, J. Chem. Phys., 2019, 150, 154122.
     DOI: 10.1063/1.5090222
   * E. Caldeweyher, J.-M. Mewes, S. Ehlert and S. Grimme, Phys. Chem. Chem. Phys.
     2020, 22, 8499-8512. DOI: 10.1039/D0CP00502A
   
   for sTDA-xTB:
   * S. Grimme and C. Bannwarth, J. Chem. Phys., 2016, 145, 054103.
     DOI: 10.1063/1.4959605
   
   in the mass-spec context:
   * V. Asgeirsson, C. Bauer and S. Grimme, Chem. Sci., 2017, 8, 4879.
     DOI: 10.1039/c7sc00601b
   * J. Koopman and S. Grimme, ACS Omega 2019, 4, 12, 15120-15133.
     DOI: 10.1021/acsomega.9b02011
   
   for metadynamics refer to:
   * S. Grimme, J. Chem. Theory Comput., 2019, 155, 2847-2862
     DOI: 10.1021/acs.jctc.9b00143
   
   for SPH calculations refer to:
   * S. Spicher and S. Grimme, J. Chem. Theory Comput., 2021, 17, 1701-1714
     DOI: 10.1021/acs.jctc.0c01306
   
   for ONIOM refer to:
   * C. Plett, A. Katbashev, S. Ehlert, S. Grimme, M. Bursch,
     Phys. Chem. Chem. Phys., 2023, 25, 17860-17868. DOI: 10.1039/D3CP02178E
   
   for DIPRO refer to:
   * J. Kohn, N. Gildemeister, S. Grimme, D. Fazzi, A. Hansen,
     J. Chem. Phys., 2023, just accepted.
   
   for PTB refer to:
   * S. Grimme, M. Mueller, A. Hansen, J. Chem. Phys., 2023, 158, 124111.
     DOI: 10.1063/5.0137838
   
   with help from (in alphabetical order)
   P. Atkinson, C. Bannwarth, F. Bohle, G. Brandenburg, E. Caldeweyher
   M. Checinski, S. Dohm, S. Ehlert, S. Ehrlich, I. Gerasimov, C. Hölzer
   A. Katbashev, J. Kohn, J. Koopman, C. Lavigne, S. Lehtola, F. März, M. Müller,
   F. Musil, H. Neugebauer, J. Pisarek, C. Plett, P. Pracht, F. Pultar,
   J. Seibert, P. Shushkov, S. Spicher, M. Stahn, M. Steiner, T. Strunk,
   J. Stückrath, T. Rose, and J. Unsleber
   
 * started run on 2025/04/11 at 16:00:44.575     
   ID    Z sym.   atoms
    1    6 C      1-5
    2   17 Cl     6
    3    1 H      7-17

           -------------------------------------------------
          |                Calculation Setup                |
           -------------------------------------------------

          program call               : /srv/scratch/z5358697/.xtb/bin/xtb xtb_rrho.coord --gfn2 --ohess vtight --chrg 0 --enso --norestart -I rrho-xcontrol-inp --parallel 1 --alpb water
          hostname                   : k124
          coordinate file            : xtb_rrho.coord
          omp threads                :                     1


           -------------------------------------------------
          |                 G F N 2 - x T B                 |
           -------------------------------------------------

        Reference                      10.1021/acs.jctc.8b01176
      * Hamiltonian:
        H0-scaling (s, p, d)           1.850000    2.230000    2.230000
        zeta-weighting                 0.500000
      * Dispersion:
        s8                             2.700000
        a1                             0.520000
        a2                             5.000000
        s9                             5.000000
      * Repulsion:
        kExp                           1.500000    1.000000
        rExp                           1.000000
      * Coulomb:
        alpha                          2.000000
        third order                    shell-resolved
        anisotropic                    true
        a3                             3.000000
        a5                             4.000000
        cn-shift                       1.200000
        cn-exp                         4.000000
        max-rad                        5.000000

      * Solvation model:               ALPB
        Solvent                        water
        Parameter file                 internal GFN2-xTB/ALPB
        Dielectric constant                8.0200E+01
        Reference state                gsolv [1 M gas/solution]
        Free energy shift                  1.0808E-03 Eh       6.7819E-01 kcal/mol
        Temperature                        2.9815E+02 K
        Density                            1.0000E+00 kg/L
        Solvent mass                       1.8000E+01 g/mol
        Interaction kernel             P16
        Born radius scaling (c1)           1.4744E+00
        Born radii integrator          GBOBC
        Born offset                        0.0000E+00 a0       0.0000E+00 AA
        H-bond correction              true
        Ion screening                  false
        Surface tension                    1.0000E-05 Eh       1.5569E+01 dyn/cm
        Grid points                               974 per atom

          ...................................................
          :                      SETUP                      :
          :.................................................:
          :  # basis functions                  41          :
          :  # atomic orbitals                  40          :
          :  # shells                           24          :
          :  # electrons                        38          :
          :  max. iterations                   250          :
          :  Hamiltonian                  GFN2-xTB          :
          :  restarted?                      false          :
          :  GBSA solvation                   true          :
          :  PC potential                    false          :
          :  electronic temp.          300.0000000     K    :
          :  accuracy                    1.0000000          :
          :  -> integral cutoff          0.2500000E+02      :
          :  -> integral neglect         0.1000000E-07      :
          :  -> SCF convergence          0.1000000E-05 Eh   :
          :  -> wf. convergence          0.1000000E-03 e    :
          :  Broyden damping             0.4000000          :
          :  net charge                          0          :
          :  unpaired electrons                  0          :
          ...................................................

 iter      E             dE          RMSdq      gap      omega  full diag
   1    -21.0588576 -0.210589E+02  0.337E+00    6.77       0.0  T
   2    -21.1067133 -0.478557E-01  0.188E+00    6.37       1.0  T
   3    -21.1078268 -0.111348E-02  0.908E-01    6.50       1.0  T
   4    -21.1081202 -0.293387E-03  0.135E-01    6.42       1.0  T
   5    -21.1081928 -0.725895E-04  0.588E-02    6.44       1.0  T
   6    -21.1081951 -0.228063E-05  0.197E-02    6.45       1.2  T
   7    -21.1081960 -0.977133E-06  0.116E-02    6.45       2.1  T
   8    -21.1081970 -0.924902E-06  0.671E-03    6.45       3.6  T
   9    -21.1081974 -0.443373E-06  0.252E-03    6.46       9.6  T
  10    -21.1081974 -0.319039E-07  0.506E-04    6.46      48.0  T
  11    -21.1081974 -0.104081E-08  0.306E-04    6.46      79.4  T

   *** convergence criteria satisfied after 11 iterations ***

         #    Occupation            Energy/Eh            Energy/eV
      -------------------------------------------------------------
         1        2.0000           -1.0552861             -28.7158
       ...           ...                  ...                  ...
        13        2.0000           -0.4556758             -12.3996
        14        2.0000           -0.4452948             -12.1171
        15        2.0000           -0.4398820             -11.9698
        16        2.0000           -0.4274890             -11.6326
        17        2.0000           -0.4227125             -11.5026
        18        2.0000           -0.4159104             -11.3175
        19        2.0000           -0.4133747             -11.2485 (HOMO)
        20                         -0.1760984              -4.7919 (LUMO)
        21                          0.0185985               0.5061
        22                          0.0227081               0.6179
        23                          0.0262582               0.7145
        24                          0.0264819               0.7206
       ...                                ...                  ...
        40                          0.2969732               8.0811
      -------------------------------------------------------------
                  HL-Gap            0.2372763 Eh            6.4566 eV
             Fermi-level           -0.2947366 Eh           -8.0202 eV

 SCC (total)                   0 d,  0 h,  0 min,  0.028 sec
 SCC setup                      ...        0 min,  0.001 sec (  3.627%)
 Dispersion                     ...        0 min,  0.000 sec (  0.310%)
 classical contributions        ...        0 min,  0.000 sec (  0.076%)
 integral evaluation            ...        0 min,  0.017 sec ( 62.497%)
 iterations                     ...        0 min,  0.005 sec ( 18.811%)
 molecular gradient             ...        0 min,  0.004 sec ( 14.052%)
 printout                       ...        0 min,  0.000 sec (  0.556%)

         :::::::::::::::::::::::::::::::::::::::::::::::::::::
         ::                     SUMMARY                     ::
         :::::::::::::::::::::::::::::::::::::::::::::::::::::
         :: total energy             -20.872770826195 Eh    ::
         :: total w/o Gsasa/hb       -20.872155409846 Eh    ::
         :: gradient norm              0.024759720795 Eh/a0 ::
         :: HOMO-LUMO gap              6.456616090162 eV    ::
         ::.................................................::
         :: SCC energy               -21.108196830715 Eh    ::
         :: -> isotropic ES            0.011941649902 Eh    ::
         :: -> anisotropic ES          0.001836221517 Eh    ::
         :: -> anisotropic XC          0.011559000480 Eh    ::
         :: -> dispersion             -0.009593948873 Eh    ::
         :: -> Gsolv                  -0.004365369820 Eh    ::
         ::    -> Gelec               -0.003749953471 Eh    ::
         ::    -> Gsasa               -0.000789259988 Eh    ::
         ::    -> Ghb                 -0.000906916059 Eh    ::
         ::    -> Gshift               0.001080759698 Eh    ::
         :: repulsion energy           0.235426004520 Eh    ::
         :: add. restraining           0.000000000000 Eh    ::
         :: total charge              -0.000000000000 e     ::
         :::::::::::::::::::::::::::::::::::::::::::::::::::::

      ----------------------------------------------------------- 
     |                   =====================                   |
     |                        A N C O P T                        |
     |                   =====================                   |
     |               Approximate Normal Coordinate               |
     |                Rational Function Optimizer                |
      ----------------------------------------------------------- 
      ----------------------------------------------------------- 
     |                   =====================                   |
     |                        A N C O P T                        |
     |                   =====================                   |
     |               Approximate Normal Coordinate               |
     |                Rational Function Optimizer                |
      ----------------------------------------------------------- 

          ...................................................
          :                      SETUP                      :
          :.................................................:
          :   optimization level         verytight          :
          :   max. optcycles                   340          :
          :   ANC micro-cycles                  20          :
          :   degrees of freedom                45          :
          :.................................................:
          :   RF solver                   davidson          :
          :   write xtbopt.log                true          :
          :   linear?                        false          :
          :   energy convergence         0.1000000E-06 Eh   :
          :   grad. convergence          0.2000000E-03 Eh/α :
          :   maxmium RF displ.          1.0000000          :
          :   Hlow (freq-cutoff)         0.1000000E-01      :
          :   Hmax (freq-cutoff)         5.0000000          :
          :   S6 in model hess.         20.0000000          :
          ...................................................

generating ANC from exact Hessian ...
Using Lindh-Hessian (1995)
 Shifting diagonal of input Hessian by   7.437801754477679E-003
 Lowest  eigenvalues of input Hessian
    0.000000    0.000000    0.000000    0.000000    0.000000    0.000000
    0.010000    0.010679    0.011388    0.016754    0.017952    0.018822
    0.024559    0.034831    0.046312    0.050752    0.055326    0.058266
 Highest eigenvalues
    1.136455    1.148508    1.174086    1.205837    1.244051    1.279430
 

........................................................................
.............................. CYCLE    1 ..............................
........................................................................

 iter      E             dE          RMSdq      gap      omega  full diag
   1    -21.1081974 -0.211082E+02  0.148E-04    6.46       0.0  T
   2    -21.1081974 -0.844835E-10  0.104E-04    6.46     234.0  T
   3    -21.1081974 -0.258709E-10  0.835E-05    6.46     290.5  T
     SCC iter.                  ...        0 min,  0.001 sec
     gradient                   ...        0 min,  0.004 sec
 * total energy  :   -20.8727708 Eh     change       -0.3541913E-09 Eh
   gradient norm :     0.0247589 Eh/α   predicted     0.0000000E+00 (-100.00%)
   displ. norm   :     0.1032979 α      lambda       -0.1297312E-02
   maximum displ.:     0.0641357 α      in ANC's #7, #12, #30, ...

........................................................................
.............................. CYCLE    2 ..............................
........................................................................

 iter      E             dE          RMSdq      gap      omega  full diag
   1    -21.1158979 -0.211159E+02  0.115E-01    6.69       0.0  T
   2    -21.1159063 -0.843100E-05  0.701E-02    6.68       1.0  T
   3    -21.1159103 -0.400821E-05  0.223E-02    6.68       1.1  T
   4    -21.1159120 -0.166396E-05  0.170E-02    6.67       1.4  T
   5    -21.1159135 -0.151772E-05  0.119E-02    6.67       2.0  T
   6    -21.1159150 -0.144634E-05  0.297E-03    6.66       8.2  T
   7    -21.1159150 -0.352200E-07  0.692E-04    6.66      35.0  T
   8    -21.1159150 -0.151491E-08  0.349E-04    6.66      69.5  T
     SCC iter.                  ...        0 min,  0.003 sec
     gradient                   ...        0 min,  0.004 sec
 * total energy  :   -20.8736278 Eh     change       -0.8569497E-03 Eh
   gradient norm :     0.0128709 Eh/α   predicted    -0.6555787E-03 ( -23.50%)
   displ. norm   :     0.0478110 α      lambda       -0.3700783E-03
   maximum displ.:     0.0207938 α      in ANC's #7, #35, #19, ...

........................................................................
.............................. CYCLE    3 ..............................
........................................................................

 iter      E             dE          RMSdq      gap      omega  full diag
   1    -21.1196277 -0.211196E+02  0.591E-02    6.86       0.0  T
   2    -21.1196320 -0.428910E-05  0.385E-02    6.85       1.0  T
   3    -21.1196343 -0.230349E-05  0.169E-02    6.85       1.4  T
   4    -21.1196354 -0.107908E-05  0.126E-02    6.84       1.9  T
   5    -21.1196364 -0.100206E-05  0.828E-03    6.84       2.9  T
   6    -21.1196371 -0.673709E-06  0.210E-03    6.83      11.5  T
   7    -21.1196371 -0.160814E-07  0.754E-04    6.83      32.2  T
   8    -21.1196371 -0.136838E-08  0.147E-04    6.83     165.5  T
     SCC iter.                  ...        0 min,  0.003 sec
     gradient                   ...        0 min,  0.004 sec
 * total energy  :   -20.8738427 Eh     change       -0.2149287E-03 Eh
   gradient norm :     0.0049322 Eh/α   predicted    -0.1854621E-03 ( -13.71%)
   displ. norm   :     0.0203126 α      lambda       -0.4982876E-04
   maximum displ.:     0.0110452 α      in ANC's #6, #2, #35, ...

........................................................................
.............................. CYCLE    4 ..............................
........................................................................

 iter      E             dE          RMSdq      gap      omega  full diag
   1    -21.1190994 -0.211191E+02  0.193E-02    6.89       0.0  T
   2    -21.1190996 -0.243507E-06  0.125E-02    6.89       1.9  T
   3    -21.1190999 -0.243475E-06  0.482E-03    6.89       5.0  T
   4    -21.1190999 -0.749905E-07  0.395E-03    6.89       6.1  T
   5    -21.1191001 -0.123163E-06  0.193E-03    6.89      12.6  T
   6    -21.1191001 -0.362172E-07  0.715E-04    6.89      33.9  T
   7    -21.1191001 -0.241444E-08  0.131E-04    6.89     184.8  T
     SCC iter.                  ...        0 min,  0.003 sec
     gradient                   ...        0 min,  0.004 sec
 * total energy  :   -20.8738754 Eh     change       -0.3270089E-04 Eh
   gradient norm :     0.0021226 Eh/α   predicted    -0.2492523E-04 ( -23.78%)
   displ. norm   :     0.0181004 α      lambda       -0.1331007E-04
   maximum displ.:     0.0110931 α      in ANC's #2, #6, #4, ...

........................................................................
.............................. CYCLE    5 ..............................
........................................................................

 iter      E             dE          RMSdq      gap      omega  full diag
   1    -21.1182872 -0.211183E+02  0.123E-02    6.91       0.0  T
   2    -21.1182872 -0.388774E-07  0.735E-03    6.91       3.3  T
   3    -21.1182873 -0.320996E-07  0.173E-03    6.91      14.1  T
   4    -21.1182873 -0.913960E-08  0.139E-03    6.91      17.5  T
   5    -21.1182873 -0.167464E-07  0.571E-04    6.91      42.4  T
   6    -21.1182873 -0.231237E-08  0.313E-04    6.91      77.5  T
     SCC iter.                  ...        0 min,  0.002 sec
     gradient                   ...        0 min,  0.004 sec
 * total energy  :   -20.8738829 Eh     change       -0.7531344E-05 Eh
   gradient norm :     0.0005573 Eh/α   predicted    -0.6657758E-05 ( -11.60%)
   displ. norm   :     0.0140127 α      lambda       -0.1305085E-05
   maximum displ.:     0.0103541 α      in ANC's #2, #6, #4, ...

........................................................................
.............................. CYCLE    6 ..............................
........................................................................

 iter      E             dE          RMSdq      gap      omega  full diag
   1    -21.1180352 -0.211180E+02  0.520E-03    6.91       0.0  T
   2    -21.1180353 -0.922935E-08  0.302E-03    6.91       8.0  T
   3    -21.1180353 -0.372811E-09  0.310E-04    6.91      78.1  T
   4    -21.1180353 -0.200686E-09  0.103E-04    6.91     236.5  T
     SCC iter.                  ...        0 min,  0.002 sec
     gradient                   ...        0 min,  0.004 sec
 * total energy  :   -20.8738842 Eh     change       -0.1235884E-05 Eh
   gradient norm :     0.0003484 Eh/α   predicted    -0.6536052E-06 ( -47.11%)
   displ. norm   :     0.0133004 α      lambda       -0.7363884E-06
   maximum displ.:     0.0101538 α      in ANC's #2, #6, #4, ...

........................................................................
.............................. CYCLE    7 ..............................
........................................................................

 iter      E             dE          RMSdq      gap      omega  full diag
   1    -21.1181190 -0.211181E+02  0.442E-03    6.90       0.0  T
   2    -21.1181190 -0.117649E-08  0.261E-03    6.90       9.3  T
   3    -21.1181190 -0.291166E-09  0.166E-04    6.91     146.3  T
   4    -21.1181190 -0.110013E-09  0.107E-04    6.91     227.0  T
     SCC iter.                  ...        0 min,  0.002 sec
     gradient                   ...        0 min,  0.004 sec
 * total energy  :   -20.8738850 Eh     change       -0.7931792E-06 Eh
   gradient norm :     0.0003184 Eh/α   predicted    -0.3668581E-06 ( -53.75%)
   displ. norm   :     0.0125126 α      lambda       -0.4281003E-06
   maximum displ.:     0.0099758 α      in ANC's #2, #6, #4, ...

........................................................................
.............................. CYCLE    8 ..............................
........................................................................

 iter      E             dE          RMSdq      gap      omega  full diag
   1    -21.1182024 -0.211182E+02  0.375E-03    6.90       0.0  T
   2    -21.1182024 -0.121767E-08  0.223E-03    6.90      10.9  T
   3    -21.1182024 -0.608040E-09  0.219E-04    6.90     110.9  T
   4    -21.1182024 -0.120682E-09  0.176E-04    6.90     137.6  T
     SCC iter.                  ...        0 min,  0.002 sec
     gradient                   ...        0 min,  0.004 sec
 * total energy  :   -20.8738854 Eh     change       -0.4235911E-06 Eh
   gradient norm :     0.0001285 Eh/α   predicted    -0.2140180E-06 ( -49.48%)
   displ. norm   :     0.0068825 α      lambda       -0.1479750E-06
   maximum displ.:     0.0060479 α      in ANC's #2, #3, #6, ...

........................................................................
.............................. CYCLE    9 ..............................
........................................................................

 iter      E             dE          RMSdq      gap      omega  full diag
   1    -21.1182082 -0.211182E+02  0.249E-03    6.90       0.0  T
   2    -21.1182082 -0.573245E-09  0.147E-03    6.90      16.5  T
   3    -21.1182082 -0.681162E-10  0.967E-05    6.90     250.7  T
   4    -21.1182082 -0.400355E-10  0.556E-05    6.90     436.0  T
     SCC iter.                  ...        0 min,  0.002 sec
     gradient                   ...        0 min,  0.004 sec
 * total energy  :   -20.8738855 Eh     change       -0.1369573E-06 Eh
   gradient norm :     0.0000653 Eh/α   predicted    -0.7353201E-07 ( -46.31%)
   displ. norm   :     0.0038106 α      lambda       -0.6089585E-07
   maximum displ.:     0.0031717 α      in ANC's #2, #3, #4, ...

........................................................................
.............................. CYCLE   10 ..............................
........................................................................

 iter      E             dE          RMSdq      gap      omega  full diag
   1    -21.1182110 -0.211182E+02  0.175E-03    6.90       0.0  T
   2    -21.1182110 -0.169109E-09  0.103E-03    6.90      23.4  T
   3    -21.1182110 -0.892051E-10  0.864E-05    6.90     280.8  T
   4    -21.1182110 -0.219700E-10  0.707E-05    6.90     342.9  T
     SCC iter.                  ...        0 min,  0.002 sec
     gradient                   ...        0 min,  0.004 sec
 * total energy  :   -20.8738856 Eh     change       -0.7774630E-07 Eh
   gradient norm :     0.0000627 Eh/α   predicted    -0.3104165E-07 ( -60.07%)
   displ. norm   :     0.0061888 α      lambda       -0.8549745E-07
   maximum displ.:     0.0042159 α      in ANC's #2, #3, #4, ...

   *** GEOMETRY OPTIMIZATION CONVERGED AFTER 10 ITERATIONS ***

------------------------------------------------------------------------
 total energy gain   :        -0.0011148 Eh       -0.6995 kcal/mol
 total RMSD          :         0.0430882 a0        0.0228 Å
 total power (kW/mol):        -0.2926850 (step)  -31.3092 (real)
------------------------------------------------------------------------

 ANCopt (total)                0 d,  0 h,  0 min,  0.094 sec
 optimizer setup                ...        0 min,  0.000 sec (  0.303%)
 model hessian                  ...        0 min,  0.004 sec (  4.401%)
 ANC generation                 ...        0 min,  0.000 sec (  0.418%)
 coordinate transformation      ...        0 min,  0.000 sec (  0.065%)
 single point calculation       ...        0 min,  0.082 sec ( 87.449%)
 optimization log               ...        0 min,  0.005 sec (  5.467%)
 hessian update                 ...        0 min,  0.000 sec (  0.072%)
 rational function              ...        0 min,  0.001 sec (  1.295%)

================
 final structure:
================
$coord
        6.85674511385271       -0.96964164712611        0.27877352533492      C
        4.08279042245503       -0.97229127402931       -0.50082913625154      C
        2.68152429262430        1.30363133724997        0.59153811917118      C
       -0.04687787711382        1.54057737436962       -0.34151444384984      C
       -1.70804352673301       -0.58265331321370        0.64381988539278      C
       -4.94196706338390       -0.08973481914763       -0.28495921945304      Cl
        7.02774597663620       -1.02862190853607        2.32588991452400      H
        7.79577842796018        0.72801879717505       -0.39941402358614      H
        7.82752883636519       -2.60348034664346       -0.50091221694914      H
        3.95187743944544       -0.92890467775397       -2.55954208407588      H
        3.20354793977766       -2.71799548488371        0.15355672028694      H
        3.69205574627208        3.01935205686400        0.05297934750474      H
        2.69339249044013        1.19101044444910        2.65125021764176      H
       -0.07892428043672        1.53573568635961       -2.40362118246361      H
       -0.82196997270717        3.34118967292043        0.30017049066213      H
       -1.17404350703557       -2.40930627340859       -0.13193106345809      H
       -1.70562914562106       -0.65152069489912        2.70005562249558      H
$end
 
 Bond Distances (Angstroems)
 ---------------------------
C1-C2=1.5248         C1-H7=1.0875         C1-H8=1.0876         C1-H9=1.0870         C2-C1=1.5248         C2-C3=1.5279         
C2-H10=1.0919        C2-H11=1.0908        C3-C2=1.5279         C3-C4=1.5310         C3-H12=1.0916        C3-H13=1.0916        
C4-C3=1.5310         C4-C5=1.5189         C4-H14=1.0914        C4-H15=1.0915        C5-C4=1.5189         C5-Cl6=1.7995        
C5-H16=1.0875        C5-H17=1.0887        Cl6-C5=1.7995        H7-C1=1.0875         H8-C1=1.0876         H9-C1=1.0870         
H10-C2=1.0919        H11-C2=1.0908        H12-C3=1.0916        H13-C3=1.0916        H14-C4=1.0914        H15-C4=1.0915        
H16-C5=1.0875        H17-C5=1.0887        
 C  H  Rav=1.0897 sigma=0.0019  Rmin=1.0870  Rmax=1.0919    11
 C  C  Rav=1.5257 sigma=0.0045  Rmin=1.5189  Rmax=1.5310     4
 Cl C  Rav=1.7995 sigma=0.0000  Rmin=1.7995  Rmax=1.7995     1
 
 selected bond angles (degree)
 --------------------
H7-C1-C2=110.46                H8-C1-C2=110.57                H8-C1-H7=108.32                H9-C1-C2=110.58                
H9-C1-H7=108.42                H9-C1-H8=108.41                C3-C2-C1=111.35                H10-C2-C1=109.33               
H10-C2-C3=109.28               H11-C2-C1=109.00               H11-C2-C3=109.90               H11-C2-H10=107.91              
C4-C3-C2=113.59                H12-C3-C2=108.61               H12-C3-C4=108.04               H13-C3-C2=109.39               
H13-C3-C4=109.38               H13-C3-H12=107.66              C5-C4-C3=111.99                H14-C4-C3=109.69               
H14-C4-C5=109.42               H15-C4-C3=109.00               H15-C4-C5=108.75               H15-C4-H14=107.89              
Cl6-C5-C4=110.45               H16-C5-C4=112.18               H16-C5-Cl6=105.83              H17-C5-C4=111.54               
H17-C5-Cl6=106.20              H17-C5-H16=110.32              
 
 selected dihedral angles (degree)
 ---------------------------------
C3-C2-C1-H7= 59.63            C3-C2-C1-H8=299.73            C3-C2-C1-H9=179.65            H10-C2-C1-H7=180.48           
H10-C2-C1-H8= 60.58           H10-C2-C1-H9=300.50           H11-C2-C1-H7=298.22           H11-C2-C1-H8=178.32           
H11-C2-C1-H9= 58.24           C4-C3-C2-C1=174.31            C4-C3-C2-H10= 53.43           C4-C3-C2-H11=295.19           
H12-C3-C2-C1= 54.07           H12-C3-C2-H10=293.19          H12-C3-C2-H11=174.95          H13-C3-C2-C1=296.83           
H13-C3-C2-H10=175.95          H13-C3-C2-H11= 57.71          C5-C4-C3-C2= 67.72            C5-C4-C3-H12=188.28           
C5-C4-C3-H13=305.19           H14-C4-C3-C2=306.02           H14-C4-C3-H12= 66.58          H14-C4-C3-H13=183.50          
H15-C4-C3-C2=188.10           H15-C4-C3-H12=308.65          H15-C4-C3-H13= 65.57          Cl6-C5-C4-C3=175.34           
Cl6-C5-C4-H14=297.18          Cl6-C5-C4-H15= 54.82          H16-C5-C4-C3=293.14           H16-C5-C4-H14= 54.99          
H16-C5-C4-H15=172.62          H17-C5-C4-C3= 57.48           H17-C5-C4-H14=179.33          H17-C5-C4-H15=296.96          
           -------------------------------------------------
          |                Final Singlepoint                |
           -------------------------------------------------

          ...................................................
          :                      SETUP                      :
          :.................................................:
          :  # basis functions                  41          :
          :  # atomic orbitals                  40          :
          :  # shells                           24          :
          :  # electrons                        38          :
          :  max. iterations                   250          :
          :  Hamiltonian                  GFN2-xTB          :
          :  restarted?                      false          :
          :  GBSA solvation                   true          :
          :  PC potential                    false          :
          :  electronic temp.          300.0000000     K    :
          :  accuracy                    1.0000000          :
          :  -> integral cutoff          0.2500000E+02      :
          :  -> integral neglect         0.1000000E-07      :
          :  -> SCF convergence          0.1000000E-05 Eh   :
          :  -> wf. convergence          0.1000000E-03 e    :
          :  Broyden damping             0.4000000          :
          :  net charge                          0          :
          :  unpaired electrons                  0          :
          ...................................................

 iter      E             dE          RMSdq      gap      omega  full diag
   1    -21.1182110 -0.211182E+02  0.398E-05    6.90       0.0  T
   2    -21.1182110 -0.388667E-11  0.342E-05    6.90     710.2  T
   3    -21.1182110 -0.940403E-11  0.165E-05    6.90    1468.6  T

   *** convergence criteria satisfied after 3 iterations ***

         #    Occupation            Energy/Eh            Energy/eV
      -------------------------------------------------------------
         1        2.0000           -1.0569102             -28.7600
       ...           ...                  ...                  ...
        13        2.0000           -0.4567051             -12.4276
        14        2.0000           -0.4466776             -12.1547
        15        2.0000           -0.4399996             -11.9730
        16        2.0000           -0.4273816             -11.6296
        17        2.0000           -0.4241343             -11.5413
        18        2.0000           -0.4154108             -11.3039
        19        2.0000           -0.4130614             -11.2400 (HOMO)
        20                         -0.1593560              -4.3363 (LUMO)
        21                          0.0147654               0.4018
        22                          0.0200804               0.5464
        23                          0.0241151               0.6562
        24                          0.0243993               0.6639
       ...                                ...                  ...
        40                          0.3111428               8.4666
      -------------------------------------------------------------
                  HL-Gap            0.2537054 Eh            6.9037 eV
             Fermi-level           -0.2862087 Eh           -7.7881 eV

 SCC (total)                   0 d,  0 h,  0 min,  0.007 sec
 SCC setup                      ...        0 min,  0.001 sec ( 13.155%)
 Dispersion                     ...        0 min,  0.000 sec (  0.671%)
 classical contributions        ...        0 min,  0.000 sec (  0.201%)
 integral evaluation            ...        0 min,  0.001 sec ( 16.531%)
 iterations                     ...        0 min,  0.001 sec ( 17.052%)
 molecular gradient             ...        0 min,  0.004 sec ( 50.315%)
 printout                       ...        0 min,  0.000 sec (  1.888%)

         :::::::::::::::::::::::::::::::::::::::::::::::::::::
         ::                     SUMMARY                     ::
         :::::::::::::::::::::::::::::::::::::::::::::::::::::
         :: total energy             -20.873885604533 Eh    ::
         :: total w/o Gsasa/hb       -20.873314797233 Eh    ::
         :: gradient norm              0.000061938532 Eh/a0 ::
         :: HOMO-LUMO gap              6.903674765623 eV    ::
         ::.................................................::
         :: SCC energy               -21.118210262477 Eh    ::
         :: -> isotropic ES            0.011194541369 Eh    ::
         :: -> anisotropic ES          0.002141785477 Eh    ::
         :: -> anisotropic XC          0.011508370624 Eh    ::
         :: -> dispersion             -0.009655329063 Eh    ::
         :: -> Gsolv                  -0.003882360135 Eh    ::
         ::    -> Gelec               -0.003311552835 Eh    ::
         ::    -> Gsasa               -0.000789386547 Eh    ::
         ::    -> Ghb                 -0.000862180452 Eh    ::
         ::    -> Gshift               0.001080759698 Eh    ::
         :: repulsion energy           0.244324657944 Eh    ::
         :: add. restraining           0.000000000000 Eh    ::
         :: total charge               0.000000000000 e     ::
         :::::::::::::::::::::::::::::::::::::::::::::::::::::

           ------------------------------------------------- 
          |                Numerical Hessian                |
           ------------------------------------------------- 
step length          :   0.00500
SCC accuracy         :   0.30000
Hessian scale factor :   1.00000
frozen atoms in %    :   0.00000    0
RMS gradient         :   0.00006
estimated CPU  time      0.01 min
estimated wall time      0.01 min

writing file <hessian>.

 projected vibrational frequencies (cm⁻¹)
eigval :       -0.00    -0.00     0.00     0.00     0.00     0.00
eigval :       61.05    69.27   105.80   225.27   236.40   265.62
eigval :      288.39   485.58   716.33   777.37   791.36   881.38
eigval :      900.15   983.05  1005.36  1079.74  1080.89  1117.75
eigval :     1130.44  1178.19  1225.18  1241.18  1256.60  1283.96
eigval :     1304.49  1334.58  1367.88  1412.45  1428.75  1480.31
eigval :     1485.72  1493.17  1500.07  1502.29  2967.31  2975.32
eigval :     2977.69  2986.09  2989.66  2991.03  2995.30  3005.73
eigval :     3028.19  3031.38  3041.00
           -------------------------------------------------
          |                Property Printout                |
           -------------------------------------------------

    * Orbital Energies and Occupations

         #    Occupation            Energy/Eh            Energy/eV
      -------------------------------------------------------------
         1        2.0000           -1.0569102             -28.7600
       ...           ...                  ...                  ...
         7        2.0000           -0.5258455             -14.3090
         8        2.0000           -0.5185060             -14.1093
         9        2.0000           -0.5090847             -13.8529
        10        2.0000           -0.4951027             -13.4724
        11        2.0000           -0.4809230             -13.0866
        12        2.0000           -0.4764652             -12.9653
        13        2.0000           -0.4567049             -12.4276
        14        2.0000           -0.4466774             -12.1547
        15        2.0000           -0.4399994             -11.9730
        16        2.0000           -0.4273814             -11.6296
        17        2.0000           -0.4241341             -11.5413
        18        2.0000           -0.4154107             -11.3039
        19        2.0000           -0.4130612             -11.2400 (HOMO)
        20                         -0.1593555              -4.3363 (LUMO)
        21                          0.0147656               0.4018
        22                          0.0200805               0.5464
        23                          0.0241152               0.6562
        24                          0.0243995               0.6639
        25                          0.0699257               1.9028
        26                          0.1022301               2.7818
        27                          0.1164359               3.1684
        28                          0.1211383               3.2963
        29                          0.1357686               3.6945
        30                          0.1458924               3.9699
       ...                                ...                  ...
        40                          0.3111430               8.4666
      -------------------------------------------------------------
                  HL-Gap            0.2537058 Eh            6.9037 eV
             Fermi-level           -0.2862083 Eh           -7.7881 eV

     #   Z          covCN         q      C6AA      α(0)
     1   6 C        3.752    -0.114    22.739     6.800
     2   6 C        3.800    -0.062    21.683     6.630
     3   6 C        3.803    -0.069    21.817     6.650
     4   6 C        3.827    -0.068    21.783     6.641
     5   6 C        3.714     0.028    20.232     6.427
     6  17 Cl       0.913    -0.268   107.655    15.873
     7   1 H        0.925     0.039     2.464     2.455
     8   1 H        0.925     0.039     2.466     2.456
     9   1 H        0.925     0.040     2.454     2.450
    10   1 H        0.924     0.037     2.491     2.468
    11   1 H        0.924     0.033     2.538     2.491
    12   1 H        0.924     0.050     2.317     2.380
    13   1 H        0.924     0.043     2.412     2.429
    14   1 H        0.924     0.055     2.261     2.351
    15   1 H        0.924     0.056     2.248     2.345
    16   1 H        0.925     0.080     1.981     2.201
    17   1 H        0.925     0.081     1.968     2.194

 Mol. C6AA /au·bohr⁶  :       2533.858309
 Mol. C8AA /au·bohr⁸  :      62558.287510
 Mol. α(0) /au        :         75.239525


Wiberg/Mayer (AO) data.
largest (>0.10) Wiberg bond orders for each atom

 ---------------------------------------------------------------------------
     #   Z sym  total        # sym  WBO       # sym  WBO       # sym  WBO
 ---------------------------------------------------------------------------
     1   6 C    3.996 --     2 C    1.019     7 H    0.988     8 H    0.987
                             9 H    0.987
     2   6 C    3.997 --     1 C    1.019     3 C    1.009    10 H    0.978
                            11 H    0.977
     3   6 C    3.994 --     2 C    1.009     4 C    0.998    13 H    0.976
                            12 H    0.975
     4   6 C    3.990 --     5 C    1.017     3 C    0.998    14 H    0.975
                            15 H    0.975
     5   6 C    3.907 --     4 C    1.017    17 H    0.977    16 H    0.976
                             6 Cl   0.918
     6  17 Cl   0.959 --     5 C    0.918
     7   1 H    0.998 --     1 C    0.988
     8   1 H    0.998 --     1 C    0.987
     9   1 H    0.998 --     1 C    0.987
    10   1 H    0.999 --     2 C    0.978
    11   1 H    0.999 --     2 C    0.977
    12   1 H    0.997 --     3 C    0.975
    13   1 H    0.998 --     3 C    0.976
    14   1 H    0.997 --     4 C    0.975
    15   1 H    0.997 --     4 C    0.975
    16   1 H    0.994 --     5 C    0.976
    17   1 H    0.993 --     5 C    0.977
 ---------------------------------------------------------------------------

Topologies differ in total number of bonds
Writing topology from bond orders to xtbtopo.mol

molecular dipole:
                 x           y           z       tot (Debye)
 q only:        1.218      -0.028       0.251
   full:        1.049      -0.049       0.232       2.734
molecular quadrupole (traceless):
                xx          xy          yy          xz          yz          zz
 q only:       -6.108       0.349       3.298      -0.982      -0.200       2.810
  q+dip:       -7.655       0.513       3.615      -1.535      -0.106       4.040
   full:       -6.153       0.278       3.042      -1.006      -0.177       3.111

           -------------------------------------------------
          |                Geometry Summary                 |
           -------------------------------------------------

      molecular mass/u    :      106.5939653
   center of mass at/Å    :       -0.0000867       0.0006397       0.0008533
  moments of inertia/u·Å² :        0.4719740E+02   0.5685768E+03   0.5886868E+03
rotational constants/cm⁻¹ :        0.3571729E+00   0.2964882E-01   0.2863599E-01

 * 16 selected distances

     #   Z          #   Z                                           value/Å
     1   6 C        2   6 C                                       1.5247848
     2   6 C        3   6 C                                       1.5279059
     3   6 C        4   6 C                                       1.5310433
     4   6 C        5   6 C                                       1.5188829
     5   6 C        6  17 Cl                                      1.7995031 (max)
     1   6 C        7   1 H                                       1.0875083
     1   6 C        8   1 H                                       1.0875556
     1   6 C        9   1 H                                       1.0870388 (min)
     2   6 C       10   1 H                                       1.0918659
     2   6 C       11   1 H                                       1.0907692
     3   6 C       12   1 H                                       1.0915578
     3   6 C       13   1 H                                       1.0915990
     4   6 C       14   1 H                                       1.0913548
     4   6 C       15   1 H                                       1.0915340
     5   6 C       16   1 H                                       1.0875341
     5   6 C       17   1 H                                       1.0887240

 * 3 distinct bonds (by element types)

   Z      Z             #   av. dist./Å        max./Å        min./Å
   1 H    6 C          11     1.0897310     1.0918659     1.0870388
   6 C    6 C           4     1.5256542     1.5310433     1.5188829
   6 C   17 Cl          1     1.7995031     1.7995031     1.7995031

           -------------------------------------------------
          |               Frequency Printout                |
           -------------------------------------------------
 projected vibrational frequencies (cm⁻¹)
eigval :       -0.00    -0.00     0.00     0.00     0.00     0.00
eigval :       61.05    69.27   105.80   225.27   236.40   265.62
eigval :      288.39   485.58   716.33   777.37   791.36   881.38
eigval :      900.15   983.05  1005.36  1079.74  1080.89  1117.75
eigval :     1130.44  1178.19  1225.18  1241.18  1256.60  1283.96
eigval :     1304.49  1334.58  1367.88  1412.45  1428.75  1480.31
eigval :     1485.72  1493.17  1500.07  1502.29  2967.31  2975.32
eigval :     2977.69  2986.09  2989.66  2991.03  2995.30  3005.73
eigval :     3028.19  3031.38  3041.00
 reduced masses (amu)
   1: 19.48   2: 20.78   3: 26.50   4:  9.94   5:  9.21   6: 18.35   7: 13.22   8:  7.54
   9: 12.19  10:  6.32  11: 10.29  12: 11.74  13: 11.73  14: 11.22  15: 13.12  16:  3.83
  17:  2.40  18:  3.66  19:  6.85  20:  3.69  21:  6.41  22:  3.81  23:  8.94  24:  7.88
  25:  7.04  26:  5.86  27:  3.32  28:  3.70  29:  2.69  30:  1.88  31:  3.52  32:  4.40
  33:  5.12  34:  3.18  35:  2.04  36:  1.91  37:  1.99  38:  1.86  39:  1.53  40:  1.61
  41:  1.91  42:  1.94  43:  1.91  44:  1.55  45:  1.55  46:  1.56  47:  1.67  48:  1.82
  49:  1.95  50:  1.91  51:  1.28
 IR intensities (km·mol⁻¹)
   1:  0.24   2:  0.15   3:  0.25   4:  0.25   5:  0.27   6:  0.37   7:  2.22   8:  1.15
   9:  0.50  10:  0.98  11:  1.51  12:  0.87  13:  1.40  14:  0.50  15:  1.12  16: 12.02
  17:  5.73  18:  1.83  19:  1.07  20:  5.27  21:  3.57  22:  0.88  23:  0.81  24:  0.86
  25:  0.95  26:  0.57  27:  7.50  28:  1.27  29:  1.47  30:  1.25  31:  3.27  32:  2.38
  33:  0.44  34:  0.21  35:  0.48  36:  0.65  37:  0.08  38:  1.47  39:  1.40  40:  0.62
  41:  4.81  42: 46.58  43: 69.12  44: 23.88  45: 17.19  46: 97.89  47: 55.71  48: 24.12
  49: 89.33  50: 85.58  51: 44.10
 Raman intensities (Ä⁴*amu⁻¹)
   1:  0.00   2:  0.00   3:  0.00   4:  0.00   5:  0.00   6:  0.00   7:  0.00   8:  0.00
   9:  0.00  10:  0.00  11:  0.00  12:  0.00  13:  0.00  14:  0.00  15:  0.00  16:  0.00
  17:  0.00  18:  0.00  19:  0.00  20:  0.00  21:  0.00  22:  0.00  23:  0.00  24:  0.00
  25:  0.00  26:  0.00  27:  0.00  28:  0.00  29:  0.00  30:  0.00  31:  0.00  32:  0.00
  33:  0.00  34:  0.00  35:  0.00  36:  0.00  37:  0.00  38:  0.00  39:  0.00  40:  0.00
  41:  0.00  42:  0.00  43:  0.00  44:  0.00  45:  0.00  46:  0.00  47:  0.00  48:  0.00
  49:  0.00  50:  0.00  51:  0.00
 output can be read by thermo (or use thermo option).
 writing <g98.out> molden fake output.
 recommended (thermochemical) frequency scaling factor: 1.0
           -------------------------------------------------
          |             Thermodynamic Functions             |
           -------------------------------------------------

Molecule has no symmetry elements
It seems to be the C1 point group
c1  symmetry found (for desy threshold:  0.10E+00) used in thermo

          ...................................................
          :                      SETUP                      :
          :.................................................:
          :  # frequencies                          45      :
          :  # imaginary freq.                       0      :
          :  linear?                             false      :
          :  only rotor calc.                    false      :
          :  symmetry                               c1      :
          :  rotational number                       1      :
          :  scaling factor                  1.0000000      :
          :  rotor cutoff                    0.0000000 cm⁻¹ :
          :  imag. cutoff                 -100.0000000 cm⁻¹ :
          :.................................................:

    mode    ω/cm⁻¹     T·S(HO)/kcal·mol⁻¹    T·S(FR)/kcal·mol⁻¹   T·S(vib)
   ------------------------------------------------------------------------
       1     61.05    -1.31871 (100.00%)    -0.99720 (  0.00%)    -1.31871
       2     69.27    -1.24449 (100.00%)    -0.95981 (  0.00%)    -1.24449
       3    105.80    -0.99719 (100.00%)    -0.83440 (  0.00%)    -0.99719
       4    225.27    -0.57135 (100.00%)    -0.61057 (  0.00%)    -0.57135
       5    236.40    -0.54555 (100.00%)    -0.59628 (  0.00%)    -0.54555
       6    265.62    -0.48435 (100.00%)    -0.56176 (  0.00%)    -0.48435
       7    288.39    -0.44226 (100.00%)    -0.53740 (  0.00%)    -0.44226
   ------------------------------------------------------------------------

   temp. (K)  partition function   enthalpy   heat capacity  entropy
                                   cal/mol     cal/K/mol   cal/K/mol   J/K/mol
 298.15  VIB   184.                 3259.151     21.143     21.294
         ROT  0.304E+06              888.752      2.981     28.067
         INT  0.558E+08             4147.904     24.124     49.361
         TR   0.106E+28             1481.254      4.968     39.890
         TOT                        5629.1577    29.0921    89.2510   373.4262

       T/K    H(0)-H(T)+PV         H(T)/Eh          T*S/Eh         G(T)/Eh
   ------------------------------------------------------------------------
    298.15    0.897063E-02    0.158611E+00    0.424060E-01    0.116205E+00
   ------------------------------------------------------------------------

         :::::::::::::::::::::::::::::::::::::::::::::::::::::
         ::                  THERMODYNAMIC                  ::
         :::::::::::::::::::::::::::::::::::::::::::::::::::::
         :: total free energy         -20.757680221767 Eh   ::
         ::.................................................::
         :: total energy              -20.873885604523 Eh   ::
         :: zero point energy           0.149640783831 Eh   ::
         :: G(RRHO) w/o ZPVE           -0.033435401075 Eh   ::
         :: G(RRHO) contrib.            0.116205382756 Eh   ::
         :::::::::::::::::::::::::::::::::::::::::::::::::::::

optimized geometry written to: xtbopt.coord


           -------------------------------------------------
          | TOTAL ENERGY              -20.873885604523 Eh   |
          | TOTAL ENTHALPY            -20.715274186915 Eh   |
          | TOTAL FREE ENERGY         -20.757680221767 Eh   |
          | GRADIENT NORM               0.000061689964 Eh/α |
          | HOMO-LUMO GAP               6.903684950723 eV   |
           -------------------------------------------------

------------------------------------------------------------------------
 * finished run on 2025/04/11 at 16:00:45.614     
------------------------------------------------------------------------
 total:
 * wall-time:     0 d,  0 h,  0 min,  1.038 sec
 *  cpu-time:     0 d,  0 h,  0 min,  0.951 sec
 * ratio c/w:     0.917 speedup
 SCF:
 * wall-time:     0 d,  0 h,  0 min,  0.028 sec
 *  cpu-time:     0 d,  0 h,  0 min,  0.013 sec
 * ratio c/w:     0.461 speedup
 ANC optimizer:
 * wall-time:     0 d,  0 h,  0 min,  0.111 sec
 *  cpu-time:     0 d,  0 h,  0 min,  0.098 sec
 * ratio c/w:     0.879 speedup
 analytical hessian:
 * wall-time:     0 d,  0 h,  0 min,  0.840 sec
 *  cpu-time:     0 d,  0 h,  0 min,  0.829 sec
 * ratio c/w:     0.987 speedup

