17
 energy: -20.872770826549 gnorm: 0.024758862699 xtb: 6.7.1 (edcfbbe)
C            3.63218110344540       -0.52408288517881        0.14968455714605
C            2.16269313116800       -0.51434451227543       -0.26135949984962
C            1.41736502622268        0.69555429672531        0.30343855839331
C           -0.03431356615975        0.82881743856694       -0.17695830525347
C           -0.89038670965009       -0.30734586653064        0.33693301808480
Cl          -2.65512670724021       -0.07562207065463       -0.16079315640393
H            3.73301633107784       -0.55254694262078        1.24038197883686
H            4.14570010641441        0.37493134008324       -0.20895888148155
H            4.15603365838139       -1.39472028138635       -0.25741319892765
H            2.08376895740410       -0.50454066577846       -1.35642554571163
H            1.68734937287317       -1.44247162030796        0.07807029926372
H            1.95326471895705        1.60796716929149        0.01349097820373
H            1.43674316254653        0.65852040725891        1.40098029312437
H           -0.06216191014083        0.84607936597154       -1.27269953367494
H           -0.44751293753298        1.77846501916845        0.17942845584355
H           -0.60550612874227       -1.27673440818553       -0.07288784141349
H           -0.89764085947187       -0.35383994885892        1.42788343709641
17
 energy: -20.873627776200 gnorm: 0.012870928034 xtb: 6.7.1 (edcfbbe)
C            3.62466799496826       -0.51740892874190        0.14938530167019
C            2.15906989159545       -0.51313693782887       -0.26385481798996
C            1.42228873407538        0.69674210591274        0.30684473808883
C           -0.02671265411401        0.81997384724824       -0.17642535186684
C           -0.88785543843131       -0.31185866911606        0.34023516464642
Cl          -2.62762352269076       -0.06542911797989       -0.15851393979934
H            3.71806776923259       -0.54707298801543        1.23476602246523
H            4.13142596896945        0.37762231570906       -0.21073958973193
H            4.13724592625788       -1.38672894477371       -0.25968591616205
H            2.08901770519462       -0.49841870364274       -1.35560919747200
H            1.68919716222098       -1.43605619387666        0.08490989581969
H            1.95645312745199        1.60385504847190        0.01084817756392
H            1.43684493273857        0.65107432067830        1.39966728284285
H           -0.05208304916690        0.83350863574788       -1.26869631685792
H           -0.43672350038190        1.76822312391676        0.17811433903600
H           -0.61285363552966       -1.27761510699516       -0.07643232966626
H           -0.90496066283804       -0.35318797142604        1.42798215068968
17
 energy: -20.873842704889 gnorm: 0.004932185782 xtb: 6.7.1 (edcfbbe)
C            3.62539092284660       -0.51607989819968        0.14897312856119
C            2.15884643233036       -0.51317174599861       -0.26407145143607
C            1.42209689739249        0.69562910170388        0.30847460545807
C           -0.02576662890944        0.81743354285320       -0.17576453248070
C           -0.89438118517593       -0.31229141155677        0.34018927191722
Cl          -2.61382980805259       -0.05794332674252       -0.15628321413176
H            3.71417448154367       -0.54501924623845        1.23154448679752
H            4.12578339430226        0.37854688920867       -0.21148812102468
H            4.13479299718340       -1.38350117985028       -0.26092836709029
H            2.09060295047059       -0.49436187017550       -1.35313433265120
H            1.69056963756315       -1.43276013819590        0.08748216520613
H            1.95499543139477        1.60018397927148        0.01155402346786
H            1.43505336758972        0.64402776893051        1.39808401528827
H           -0.04804944752123        0.82455651285306       -1.26620401662033
H           -0.43635252710495        1.76554169059939        0.17488844103395
H           -0.61435137561349       -1.27499390106688       -0.07704972733513
H           -0.90410879068679       -0.35171093210722        1.42652923831647
17
 energy: -20.873875405784 gnorm: 0.002122602942 xtb: 6.7.1 (edcfbbe)
C            3.62608478024139       -0.51542626639967        0.14889609192856
C            2.15842393171123       -0.51407544136265       -0.26444945655731
C            1.42127680085565        0.69452388953789        0.30998249643652
C           -0.02545772000371        0.81725551772995       -0.17698185122204
C           -0.89872990084547       -0.31154208038647        0.33963051544558
Cl          -2.61194907790584       -0.05505267326164       -0.15451168795303
H            3.71501180735521       -0.54458161981974        1.23170154237425
H            4.12510387632371        0.38024009097977       -0.21176061737341
H            4.13627716223000       -1.38230058872495       -0.26165578373222
H            2.08991249792700       -0.49425949499563       -1.35345979125146
H            1.69087021376890       -1.43439770844737        0.08615114890981
H            1.95402653302014        1.59979936563586        0.01503011564309
H            1.43323250833569        0.64139317195793        1.39961792780118
H           -0.04635181675317        0.82206643822065       -1.26769589466821
H           -0.43620619555052        1.76638295934659        0.17120121753210
H           -0.61430113314134       -1.27462501146834       -0.07564155682381
H           -0.90175751801629       -0.35131471325378        1.42674119678690
17
 energy: -20.873882937128 gnorm: 0.000557347292 xtb: 6.7.1 (edcfbbe)
C            3.62699841096804       -0.51520184755821        0.14860433625954
C            2.15887141756593       -0.51441177449853       -0.26433809488810
C            1.42009348704703        0.69324713066124        0.31063745465762
C           -0.02565173930478        0.81758929824613       -0.17825800530692
C           -0.90137655559371       -0.31052324345132        0.33929606694176
Cl          -2.61273327989203       -0.05332556270678       -0.15258566155660
H            3.71669792955442       -0.54463740793792        1.23190010095172
H            4.12557261322063        0.38150014416447       -0.21182040685589
H            4.13875128640935       -1.38163849920247       -0.26232163467924
H            2.08982332043065       -0.49413295460781       -1.35367857258952
H            1.69183080047796       -1.43602085102625        0.08480664727417
H            1.95375642552319        1.59944154534634        0.01868675080326
H            1.43072210654588        0.63886977907386        1.40070406306378
H           -0.04556202083010        0.82071730388051       -1.26938466691188
H           -0.43663778238770        1.76778462599988        0.16766696667574
H           -0.61525231914300       -1.27467988728082       -0.07433853783982
H           -0.90043735103916       -0.35049196381392        1.42721880727688
17
 energy: -20.873884173012 gnorm: 0.000348449575 xtb: 6.7.1 (edcfbbe)
C            3.62716908050770       -0.51454211396449        0.14834051340469
C            2.15925016412683       -0.51448502351472       -0.26444443852164
C            1.41962836817573        0.69221022084387        0.31121168200380
C           -0.02531835352972        0.81711870418220       -0.17924341972359
C           -0.90213202891716       -0.30980090384054        0.33939529049644
Cl          -2.61371026849874       -0.05178543816615       -0.15125865703695
H            3.71756359609505       -0.54444943700800        1.23178908892365
H            4.12569841059548        0.38261069697648       -0.21165646526851
H            4.13977447783200       -1.38053985144007       -0.26292368812721
H            2.08992673669577       -0.49381892406048       -1.35400148932871
H            1.69268859154210       -1.43699234230596        0.08373515224858
H            1.95408698354667        1.59903200939343        0.02175686860857
H            1.42879009780542        0.63656992642747        1.40149307362797
H           -0.04469434582651        0.81891549519769       -1.27052835152587
H           -0.43620681359494        1.76806802269169        0.16496771978362
H           -0.61685348178059       -1.27480211166580       -0.07340653103245
H           -0.90019446522249       -0.34922309445823        1.42756926474412
17
 energy: -20.873884966191 gnorm: 0.000318378606 xtb: 6.7.1 (edcfbbe)
C            3.62744390854816       -0.51396360170549        0.14798631058823
C            2.15969925557455       -0.51442693822420       -0.26450449401116
C            1.41926110736308        0.69129233776965        0.31184959225132
C           -0.02506609831887        0.81645732462006       -0.17997519153919
C           -0.90243149588550       -0.30928471671284        0.33977547869995
Cl          -2.61413921731679       -0.04997000567276       -0.15045684520370
H            3.71802472462909       -0.54421012734485        1.23137946633243
H            4.12549104822269        0.38354894105067       -0.21167545249446
H            4.14051543491354       -1.37949605040886       -0.26362707348484
H            2.09022083537377       -0.49313111163390       -1.35405228922906
H            1.69363035744782       -1.43744749516635        0.08304998173573
H            1.95411525451662        1.59853953697397        0.02444432343329
H            1.42704259030339        0.63410736141664        1.40205804327615
H           -0.04357848490619        0.81663803590980       -1.27125017313551
H           -0.43578672231575        1.76810817642527        0.16244245898624
H           -0.61855910285096       -1.27484039338535       -0.07256228444057
H           -0.90041664574607       -0.34783543862305        1.42791376151164
17
 energy: -20.873885389783 gnorm: 0.000128528284 xtb: 6.7.1 (edcfbbe)
C            3.62786356072749       -0.51338866396788        0.14769629410497
C            2.16005388105290       -0.51448003204670       -0.26470486987123
C            1.41916697749758        0.69054356357045        0.31264050301807
C           -0.02475665594459        0.81571091993925       -0.18052132028418
C           -0.90310080021525       -0.30875417891648        0.34011391119414
Cl          -2.61482426343313       -0.04848652952681       -0.15002724672125
H            3.71851332661774       -0.54400047539358        1.23101349900733
H            4.12530085257296        0.38448871492127       -0.21173125853733
H            4.14119585954593       -1.37847783560206       -0.26435795820541
H            2.09049803927980       -0.49237137810615       -1.35417628626466
H            1.69442413337455       -1.43786550710498        0.08231796478324
H            1.95408488280814        1.59815842114504        0.02680159289518
H            1.42586015645219        0.63187339913089        1.40269527968824
H           -0.04228905213040        0.81427508671635       -1.27175836279796
H           -0.43525382518828        1.76803471222112        0.16014884428248
H           -0.62018275379968       -1.27479012987116       -0.07154674705013
H           -0.90108756966533       -0.34638425182019        1.42819177403504
17
 energy: -20.873885526740 gnorm: 0.000065332931 xtb: 6.7.1 (edcfbbe)
C            3.62827882207912       -0.51319963421525        0.14754277935261
C            2.16035498968385       -0.51450941295255       -0.26483806537545
C            1.41896023986350        0.69004765214768        0.31296909120091
C           -0.02483366341382        0.81542701661510       -0.18073457589496
C           -0.90353321177843       -0.30850825577403        0.34048567016993
Cl          -2.61498516326183       -0.04754589493491       -0.15033110364247
H            3.71886131210713       -0.54410220414314        1.23083674253574
H            4.12531307168965        0.38498445941447       -0.21163526463959
H            4.14185855465369       -1.37798626947095       -0.26481985692860
H            2.09090808750702       -0.49186675200350       -1.35426713919830
H            1.69499195055581       -1.43814659227667        0.08175779757163
H            1.95377123099710        1.59787181651762        0.02777560229057
H            1.42530114820225        0.63070470060340        1.40294569324654
H           -0.04184207289486        0.81315458090076       -1.27196512776003
H           -0.43514879159115        1.76812380591076        0.15909242384601
H           -0.62096310060763       -1.27489270487789       -0.07060341817849
H           -0.90182665423878       -0.34547047617251        1.42858436468045
17
 energy: -20.873885604486 gnorm: 0.000062759458 xtb: 6.7.1 (edcfbbe)
C            3.62843325523158       -0.51311226240303        0.14752059661075
C            2.16051964846233       -0.51451438457761       -0.26502736546129
C            1.41900154614357        0.68985199509363        0.31302849204670
C           -0.02480670426421        0.81523843815148       -0.18072166088006
C           -0.90385770958004       -0.30832685521069        0.34069481127700
Cl          -2.61517634698336       -0.04748562131756       -0.15079392497168
H            3.71892301486161       -0.54432327263437        1.23080793783870
H            4.12534828533738        0.38525095657514       -0.21136079899746
H            4.14214987790222       -1.37770246848145       -0.26507132987313
H            2.09124348124213       -0.49155518656998       -1.35445134124394
H            1.69524456377038       -1.43830126994176        0.08125871695708
H            1.95375176231616        1.59777230019004        0.02803546334810
H            1.42528192596221        0.63025558515169        1.40298119558159
H           -0.04176493059415        0.81267632719427       -1.27194155340705
H           -0.43496777760442        1.76808143221893        0.15884338304442
H           -0.62127706853361       -1.27494997397705       -0.06981491219242
H           -0.90258007411716       -0.34476990417327        1.42880790359920
