13
 energy: -20.960178880817 gnorm: 0.041272089715 xtb: 6.7.1 (edcfbbe)
C           -1.95951908513639        0.65663976080132       -0.57935314255509
C           -1.51040394662318       -0.58042936285367        0.18941509140939
C           -0.23723484055340       -0.35501794223352        0.99606748654228
N            0.88651584773338        0.03223035449359        0.06820251845885
O            1.34294888387771        1.16821467089068        0.14490198418397
O            1.25668553807368       -0.80134928662893       -0.75161319931440
H           -2.90963219793342        0.46416327636574       -1.08548575025040
H           -2.09844187334838        1.50985219444603        0.09311317685374
H           -1.22975459712123        0.94171322341667       -1.34550454915716
H           -1.36431132232163       -1.42935353467222       -0.48587587699922
H           -2.27322781876772       -0.87455988063517        0.91816351602138
H           -0.33715786230259        0.46218591249775        1.71094361253599
H            0.09101889021598       -1.27101607655741        1.49324029724384
13
 energy: -20.961837948044 gnorm: 0.018524386586 xtb: 6.7.1 (edcfbbe)
C           -1.95815126085388        0.65257533552411       -0.57147721104151
C           -1.50972989193028       -0.58445198819759        0.19210733671745
C           -0.22892189482131       -0.34215643956865        0.98550689037107
N            0.86604604459285        0.03413302252519        0.05788301577114
O            1.34072976889661        1.14990580350775        0.15081354137145
O            1.25345077655468       -0.80610958780544       -0.73170772954668
H           -2.90281020046464        0.45981847131399       -1.07557910696695
H           -2.09446499526125        1.49766171143546        0.10165415794280
H           -1.22695825918180        0.93592904940118       -1.32916264307654
H           -1.35352632700804       -1.41555495877097       -0.49938338305066
H           -2.28247368869603       -0.87824106824100        0.90614242412266
H           -0.33434542269077        0.47840832122464        1.69475695324828
H            0.08864096665666       -1.25864436301782        1.48466091911067
13
 energy: -20.961859431860 gnorm: 0.021025052600 xtb: 6.7.1 (edcfbbe)
C           -1.95393994378756        0.65227433320504       -0.56634798586258
C           -1.50134327253320       -0.58779532520190        0.19139639582268
C           -0.21601666892104       -0.33193058123363        0.98177923034618
N            0.87455925253489        0.01610789747054        0.08135444329577
O            1.31487190197792        1.13951452333501        0.13552504500304
O            1.21796290815081       -0.80561768800814       -0.73471628994889
H           -2.89395100464602        0.45867236946923       -1.06953897032939
H           -2.09117671756036        1.48876631707230        0.11003040548614
H           -1.22236756276242        0.93853756703106       -1.31679670995080
H           -1.32986650244106       -1.40322741291236       -0.51263699662794
H           -2.28197047864500       -0.88765814301399        0.88948670155111
H           -0.33648585692880        0.49414651629114        1.68223828874856
H            0.07720956135462       -1.24851706417344        1.49444160743928
13
 energy: -20.962334168702 gnorm: 0.005759401447 xtb: 6.7.1 (edcfbbe)
C           -1.95821785096007        0.65494252916950       -0.56701725595812
C           -1.50119993145391       -0.58748757419214        0.18825987003071
C           -0.21799673467942       -0.33232339681163        0.98322184330004
N            0.86322989262160        0.02106404702942        0.06738388566917
O            1.32921974554181        1.13770743491219        0.13884808530959
O            1.23065392492838       -0.81717558205985       -0.72706569916264
H           -2.89950078083435        0.46050181180795       -1.07144206673643
H           -2.09799293018941        1.49094246235998        0.11302844691901
H           -1.22758432830710        0.94644987441599       -1.31913875161503
H           -1.32690441045344       -1.40491893092754       -0.51344648492348
H           -2.27497551893983       -0.89422804633542        0.89103604682831
H           -0.33947239899808        0.49477099944149        1.68293658496020
H            0.07822693751661       -1.24697231947906        1.49961066035183
13
 energy: -20.962372172747 gnorm: 0.002202424258 xtb: 6.7.1 (edcfbbe)
C           -1.96120613604705        0.65616523625350       -0.56540529415436
C           -1.49988178395574       -0.58779180023113        0.18507336919343
C           -0.21765388556168       -0.32954272653845        0.98311426264887
N            0.86505283717440        0.01768462301007        0.06817800003899
O            1.33532380310503        1.13471520097821        0.13453850605496
O            1.23251161722325       -0.82566250938154       -0.72319061568327
H           -2.90208987200385        0.45997588541344       -1.07085304297421
H           -2.10443227743523        1.48881078036874        0.11892602968201
H           -1.23117955219928        0.95374666277578       -1.31643642188428
H           -1.32018505247643       -1.40201773332004       -0.51920676565271
H           -2.27229333618223       -0.90155050368597        0.88633383630363
H           -0.34154382173134        0.50064018337071        1.67899640262861
H            0.07506307588296       -1.24189998968244        1.50614689877148
13
 energy: -20.962400733875 gnorm: 0.001520356240 xtb: 6.7.1 (edcfbbe)
C           -1.96516718406878        0.65754563495599       -0.56265208849474
C           -1.49765034996950       -0.58822734255415        0.18083391499384
C           -0.21706205419406       -0.32550902973036        0.98287639157612
N            0.86724714835715        0.01220880057842        0.06998851981681
O            1.34241280932841        1.12895393628930        0.12886037396977
O            1.23313690859322       -0.83643973343061       -0.71811904426823
H           -2.90490883280019        0.45948391556931       -1.06996593331540
H           -2.11316458917094        1.48544756055338        0.12676973214710
H           -1.23588552751348        0.96336386927721       -1.31141394450330
H           -1.30967329319175       -1.39696894188455       -0.52754503526074
H           -2.26833507401615       -0.91234692431677        0.87917826486195
H           -0.34393591241593        0.51001473136141        1.67199663779774
H            0.07047156685479       -1.23425316733766        1.51540737565222
13
 energy: -20.962419786157 gnorm: 0.002685977535 xtb: 6.7.1 (edcfbbe)
C           -1.96988753313549        0.65864006977561       -0.55946523514100
C           -1.49547367003594       -0.58831937421341        0.17671927474905
C           -0.21723441604830       -0.32118135865616        0.98219811826351
N            0.87077614154454        0.00631625032926        0.07147978188669
O            1.35153362457535        1.12140478450172        0.12438058616002
O            1.23518683355552       -0.84732791926421       -0.71254895719056
H           -2.90767165272421        0.45793780726525       -1.06952090114961
H           -2.12443288900798        1.48125690673386        0.13486274117888
H           -1.24130560330679        0.97394417493449       -1.30506804589385
H           -1.29956267992452       -1.39125741187035       -0.53592438198317
H           -2.26469318104799       -0.92296158560350        0.87167832535637
H           -0.34559544180683        0.52053884550007        1.66346367759250
H            0.06584608315544       -1.22571788010173        1.52396018114431
13
 energy: -20.962429632479 gnorm: 0.001978616740 xtb: 6.7.1 (edcfbbe)
C           -1.97214478374652        0.65895271892575       -0.55820221504325
C           -1.49458024675045       -0.58812275319797        0.17537708097131
C           -0.21759764779190       -0.31942531772674        0.98161709047931
N            0.87277368340825        0.00403153296614        0.07157391267310
O            1.35625887340546        1.11760664333531        0.12376117974381
O            1.23641069400317       -0.85158260741059       -0.71024440964146
H           -2.90842950994553        0.45647375010141       -1.07022743710097
H           -2.13070897311131        1.47911161051390        0.13797014986135
H           -1.24355448954149        0.97882521938095       -1.30172041302989
H           -1.29627217448644       -1.38895933757382       -0.53884177728205
H           -2.26335711993211       -0.92638107460746        0.86896327455691
H           -0.34561264210490        0.52490803959464        1.65955446951213
H            0.06429995238656       -1.22216511497059        1.52663425927283
13
 energy: -20.962445313388 gnorm: 0.000497426679 xtb: 6.7.1 (edcfbbe)
C           -1.97644500775061        0.65955259181099       -0.55581500637302
C           -1.49281591893277       -0.58770817171466        0.17325457024774
C           -0.21841635812914       -0.31584704357700        0.98036681788434
N            0.87691074380380       -0.00028225260393        0.07109228610810
O            1.36633634097566        1.10985773082118        0.12318224492438
O            1.23736881718408       -0.85985043679625       -0.70671959651402
H           -2.90843264184235        0.45251260019642       -1.07367035791304
H           -2.14531341550505        1.47425981991882        0.14411404065711
H           -1.24673067205156        0.98956200069959       -1.29356725431606
H           -1.29042236583845       -1.38480665610419       -0.54396222513427
H           -2.26094056937565       -0.93238067742907        0.86431640318457
H           -0.34530043491947        0.53350430683262        1.65200147619912
H            0.06168709817430       -1.21510050272357        1.53162176601821
13
 energy: -20.962454141811 gnorm: 0.000809125380 xtb: 6.7.1 (edcfbbe)
C           -1.98004045812097        0.66016408997499       -0.55406049132854
C           -1.49132687287810       -0.58735421541219        0.17159519001315
C           -0.21847615940009       -0.31268269862416        0.97940572407843
N            0.87978580762198       -0.00385888660952        0.07050443282864
O            1.37519836437469        1.10345869164943        0.12263234224084
O            1.23657662475344       -0.86701829185032       -0.70469124649953
H           -2.90749699545557        0.44893079849723       -1.07832487034942
H           -2.15902205046217        1.46978905257051        0.14927896737971
H           -1.24841304566729        0.99939767798876       -1.28570175113204
H           -1.28543738213549       -1.38166047888544       -0.54785110213133
H           -2.25874607595006       -0.93712467536653        0.86086873252002
H           -0.34509753941396        0.54039145042859        1.64637285129586
H            0.05998139852639       -1.20915920503041        1.53618638605735
13
 energy: -20.962460326049 gnorm: 0.000726607572 xtb: 6.7.1 (edcfbbe)
C           -1.98306118217114        0.66064766131745       -0.55256836655473
C           -1.49028637914206       -0.58699399600269        0.17025039205700
C           -0.21827088395384       -0.30976425446191        0.97846342802684
N            0.88240085059950       -0.00712543020384        0.07024398552381
O            1.38365348972993        1.09769454291814        0.12222244932873
O            1.23512735136866       -0.87293962161141       -0.70392063888154
H           -2.90563010783607        0.44516621383157       -1.08371953799624
H           -2.17254019122450        1.46532752129005        0.15370869850454
H           -1.24925157694051        1.00876372144000       -1.27781001121218
H           -1.28154179066620       -1.37910526842612       -0.55082918258551
H           -2.25674398882170       -0.94086768027357        0.85845504538986
H           -0.34471741366391        0.54634203279964        1.64159571560281
H            0.05834743851464       -1.20387213328634        1.54012318776974
13
 energy: -20.962464542620 gnorm: 0.000348790357 xtb: 6.7.1 (edcfbbe)
C           -1.98632718667901        0.66105663837178       -0.55113644019193
C           -1.48919921729928       -0.58646465837864        0.16897047075094
C           -0.21773397987217       -0.30692570984777        0.97758115853896
N            0.88459504320732       -0.01050151641950        0.06996476976680
O            1.39238539870815        1.09146655226590        0.12220496398948
O            1.23350492284053       -0.87852748413603       -0.70363280041863
H           -2.90347441479740        0.44141579466802       -1.09000527733996
H           -2.18694235382635        1.46058770994167        0.15785037874071
H           -1.24993534870340        1.01825632185292       -1.26924416738644
H           -1.27766861320480       -1.37652874179581       -0.55359616329211
H           -2.25454045109266       -0.94423022292961        0.85638581053710
H           -0.34401204674737        0.55235501875595        1.63672926805655
H            0.05683386325925       -1.19868639301791        1.54414319322168
13
 energy: -20.962465986892 gnorm: 0.000229488972 xtb: 6.7.1 (edcfbbe)
C           -1.98852352315093        0.66133990585596       -0.54989745962496
C           -1.48861178720645       -0.58620505817023        0.16803091321520
C           -0.21763634887030       -0.30459930405928        0.97680217791394
N            0.88668339213489       -0.01314291162920        0.06989097897960
O            1.39933979902909        1.08672783894678        0.12191524982439
O            1.23246296057840       -0.88269081352328       -0.70361550732218
H           -2.90129324629036        0.43827871116226       -1.09473321250175
H           -2.19819673503594        1.45668069814674        0.16119542806935
H           -1.25037255616598        1.02595020851310       -1.26247658342293
H           -1.27503593363675       -1.37471907941858       -0.55566620148201
H           -2.25310510451920       -0.94704285894399        0.85487317698091
H           -0.34350903163641        0.55716602559586        1.63278035670057
H            0.05528373056275       -1.19447005314515        1.54711584764299
13
 energy: -20.962466167340 gnorm: 0.000123376548 xtb: 6.7.1 (edcfbbe)
C           -1.98962098029676        0.66143994413907       -0.54950641595633
C           -1.48817595031855       -0.58597159426418        0.16762771400565
C           -0.21739796560467       -0.30387585706298        0.97657570716827
N            0.88721670142554       -0.01416119271771        0.06986663947957
O            1.40164304793045        1.08483712623838        0.12203120179206
O            1.23210718285454       -0.88423586933383       -0.70340798117164
H           -2.90085348458412        0.43747985253647       -1.09643620595175
H           -2.20210637761116        1.45526082583878        0.16221461830535
H           -1.25085476301646        1.02841294182382       -1.26000958883800
H           -1.27382995777637       -1.37386704923722       -0.55650309492906
H           -2.25236062295809       -0.94790655460086        0.85415593906024
H           -0.34321250151656        0.55886654327497        1.63126379809196
H            0.05493128726501       -1.19300580730373        1.54834283391682
13
 energy: -20.962466189502 gnorm: 0.000057822789 xtb: 6.7.1 (edcfbbe)
C           -1.98960154924800        0.66146078112728       -0.54942784623726
C           -1.48819414600983       -0.58600943991120        0.16759514336838
C           -0.21749234765648       -0.30375764789618        0.97654474952014
N            0.88727644351998       -0.01423485208884        0.06981586062117
O            1.40183068530838        1.08469682985517        0.12190248909875
O            1.23212952602038       -0.88443469619726       -0.70332826533994
H           -2.90073078128366        0.43735449917529       -1.09647654927777
H           -2.20239496756789        1.45510299202745        0.16244470237360
H           -1.25081678829926        1.02872478357137       -1.25980667390962
H           -1.27371301046840       -1.37380623045337       -0.55661402671309
H           -2.25237759216262       -0.94813073960316        0.85405746332112
H           -0.34324700456910        0.55910297540141        1.63108483679295
H            0.05481714820932       -1.19279594567697        1.54842328135470
