
                                 *****************
                                 * O   R   C   A *
                                 *****************

                                            #,                                       
                                            ###                                      
                                            ####                                     
                                            #####                                    
                                            ######                                   
                                           ########,                                 
                                     ,,################,,,,,                         
                               ,,#################################,,                 
                          ,,##########################################,,             
                       ,#########################################, ''#####,          
                    ,#############################################,,   '####,        
                  ,##################################################,,,,####,       
                ,###########''''           ''''###############################       
              ,#####''   ,,,,##########,,,,          '''####'''          '####       
            ,##' ,,,,###########################,,,                        '##       
           ' ,,###''''                  '''############,,,                           
         ,,##''                                '''############,,,,        ,,,,,,###''
      ,#''                                            '''#######################'''  
     '                                                          ''''####''''         
             ,#######,   #######,   ,#######,      ##                                
            ,#'     '#,  ##    ##  ,#'     '#,    #''#        ,####,   ,####,        
            ##       ##  ##   ,#'  ##            #'  '#       #'       #'  '#        
            ##       ##  #######   ##           ,######,      #####,   #    #        
            '#,     ,#'  ##    ##  '#,     ,#' ,#      #,     #,   #   #,  ,#        
             '#######'   ##     ##  '#######'  #'      '#     '####' # '####'        



                #########################################################
                #                        -***-                          #
                #          Department of theory and spectroscopy        #
                #                                                       #
                #                      Frank Neese                      #
                #                                                       #
                #     Directorship, Architecture, Infrastructure        #
                #                    SHARK, DRIVERS                     #
                #        Core code/Algorithms in most modules           #
                #                                                       #
                #        Max Planck Institute fuer Kohlenforschung      #
                #                Kaiser Wilhelm Platz 1                 #
                #                 D-45470 Muelheim/Ruhr                 #
                #                      Germany                          #
                #                                                       #
                #                  All rights reserved                  #
                #                        -***-                          #
                #########################################################


                         Program Version 6.0.0  -   RELEASE  -


 With contributions from (in alphabetic order):
   Daniel Aravena         : Magnetic Suceptibility
   Michael Atanasov       : Ab Initio Ligand Field Theory (pilot matlab implementation)
   Alexander A. Auer      : GIAO ZORA, VPT2 properties, NMR spectrum
   Ute Becker             : All parallelization in ORCA, NUMFREQ, NUMCALC
   Giovanni Bistoni       : ED, misc. LED, open-shell LED, HFLD
   Martin Brehm           : Molecular dynamics
   Dmytro Bykov           : pre 5.0 version of the SCF Hessian
   Marcos Casanova-Páez   : Triplet and SCS-CIS(D). UHF-(DLPNO)-IP/EA/STEOM-CCSD. UHF-CVS-IP/STEOM-CCSD
   Vijay G. Chilkuri      : MRCI spin determinant printing, contributions to CSF-ICE
   Pauline Colinet        : FMM embedding
   Dipayan Datta          : RHF DLPNO-CCSD density
   Achintya Kumar Dutta   : EOM-CC, STEOM-CC
   Nicolas Foglia         : Exact transition moments, OPA infrastructure, MCD improvements
   Dmitry Ganyushin       : Spin-Orbit,Spin-Spin,Magnetic field MRCI
   Miquel Garcia          : C-PCM and meta-GGA Hessian, CCSD/C-PCM, Gaussian charge scheme
   Tiago L. C. Gouveia    : GS-ROHF, GS-ROCIS
   Yang Guo               : DLPNO-NEVPT2, F12-NEVPT2, CIM, IAO-localization
   Andreas Hansen         : Spin unrestricted coupled pair/coupled cluster methods
   Ingolf Harden          : AUTO-CI MPn and infrastructure 
   Benjamin Helmich-Paris : MC-RPA, TRAH-(SCF,CASSCF), AVAS, COSX integrals, SCF dyn. polar.
   Lee Huntington         : MR-EOM, pCC
   Robert Izsak           : Overlap fitted RIJCOSX, COSX-SCS-MP3, EOM
   Riya Kayal             : Wick's Theorem for AUTO-CI, AUTO-CI UHF-CCSDT
   Emily Kempfer          : AUTO-CI, RHF CISDT and CCSDT
   Christian Kollmar      : KDIIS, OOCD, Brueckner-CCSD(T), CCSD density, CASPT2, CASPT2-K, improved NEVPT2
   Axel Koslowski         : Symmetry handling
   Simone Kossmann        : Meta GGA functionals, TD-DFT gradient, OOMP2, (MP2 Hessian; deprecated post 5.0)
   Lucas Lang             : DCDCAS
   Marvin Lechner         : AUTO-CI (C++ implementation), FIC-MRCC
   Spencer Leger          : CASSCF response
   Dagmar Lenk            : GEPOL surface, SMD, ORCA-2-JSON
   Dimitrios Liakos       : Extrapolation schemes; Compound Job, initial MDCI parallelization
   Dimitrios Manganas     : Further ROCIS development; embedding schemes. LFT, Crystal Embedding
   Dimitrios Pantazis     : SARC Basis sets
   Anastasios Papadopoulos: AUTO-CI, single reference methods and gradients
   Taras Petrenko         : pre 6.0 DFT Hessian and TD-DFT gradient, (ASA, deprecated), ECA, 1-Electron XAS/XES, NRVS
   Peter Pinski           : DLPNO-MP2, DLPNO-MP2 Gradient
   Christoph Reimann      : Effective Core Potentials
   Marius Retegan         : Local ZFS, SOC
   Christoph Riplinger    : Optimizer, TS searches, QM/MM, DLPNO-CCSD(T), (RO)-DLPNO pert. Triples
   Michael Roemelt        : Original ROCIS implementation
   Masaaki Saitow         : Open-shell DLPNO-CCSD energy and density
   Barbara Sandhoefer     : DKH picture change effects
   Kantharuban Sivalingam : CASSCF convergence/infrastructure, NEVPT2 and variants, FIC-MRCI
   Bernardo de Souza      : ESD, SOC TD-DFT
   Georgi Stoychev        : AutoAux, RI-MP2 NMR, DLPNO-MP2 response, X2C
   Van Anh Tran           : RI-MP2 g-tensors
   Willem Van den Heuvel  : Paramagnetic NMR
   Zikuan Wang            : NOTCH, Electric field optimization 
   Frank Wennmohs         : Technical directorship and infrastructure
   Hang Xu                : AUTO-CI-Response properties 


 We gratefully acknowledge several colleagues who have allowed us to
 interface, adapt or use parts of their codes:
   Stefan Grimme, W. Hujo, H. Kruse, P. Pracht,  : VdW corrections, initial TS optimization,
                  C. Bannwarth, S. Ehlert,         DFT functionals, gCP, sTDA/sTD-DF
                  L. Wittmann, M. Mueller
   Ed Valeev, F. Pavosevic, A. Kumar             : LibInt (2-el integral package), F12 methods
   Garnet Chan, S. Sharma, J. Yang, R. Olivares  : DMRG
   Ulf Ekstrom                                   : XCFun DFT Library
   Mihaly Kallay                                 : mrcc  (arbitrary order and MRCC methods)
   Frank Weinhold                                : gennbo (NPA and NBO analysis)
   Simon Mueller                                 : openCOSMO-RS
   Christopher J. Cramer and Donald G. Truhlar   : smd solvation model
   Lars Goerigk                                  : TD-DFT with DH, B97 family of functionals
   V. Asgeirsson, H. Jonsson                     : NEB implementation
   FAccTs GmbH                                   : IRC, NEB, NEB-TS, DLPNO-Multilevel, CI-OPT
                                                   MM, QMMM, 2- and 3-layer-ONIOM, Crystal-QMMM,
                                                   LR-CPCM, SF, NACMEs, symmetry and pop. for TD-DFT,
                                                   nearIR, NL-DFT gradient (VV10), updates on ESD,
                                                   ML-optimized integration grids, MBIS, APM,
                                                   GOAT, DOCKER, SOLVATOR, interface openCOSMO-RS
   S Lehtola, MJT Oliveira, MAL Marques          : LibXC Library
   Liviu Ungur et al                             : ANISO software


 Your calculation uses the libint2 library for the computation of 2-el integrals
 For citations please refer to: http://libint.valeyev.net

 Your ORCA version has been built with support for libXC version: 6.2.2
 For citations please refer to: https://libxc.gitlab.io

 This ORCA versions uses:
   CBLAS   interface :  Fast vector & matrix operations
   LAPACKE interface :  Fast linear algebra routines
   SCALAPACK package :  Parallel linear algebra routines
   Shared memory     :  Shared parallel matrices
   BLAS/LAPACK       :  OpenBLAS 0.3.27  USE64BITINT DYNAMIC_ARCH NO_AFFINITY SkylakeX SINGLE_THREADED
        Core in use  :  SkylakeX
   Copyright (c) 2011-2014, The OpenBLAS Project


Your calculation utilizes the geometrical counterpoise correction gCP
Please cite in your paper:
H.Kruse, S. Grimme J.Chem.Phys., 136, (2012), 154101 
   

Your calculation utilizes the atom-pairwise dispersion correction
based on EEQ partial charges (D4)


================================================================================

----- Orbital basis set information -----
Your calculation utilizes the basis: def2-SV(P)
   F. Weigend and R. Ahlrichs, Phys. Chem. Chem. Phys. 7, 3297 (2005).

----- AuxJ basis set information -----
Your calculation utilizes the auxiliary basis: def2/J
   F. Weigend, Phys. Chem. Chem. Phys. 8, 1057 (2006).

================================================================================
                                        WARNINGS
                       Please study these warnings very carefully!
================================================================================


================================================================================
                                       INPUT FILE
================================================================================
NAME = sp.inp
|  1> ! pbe def2-sv(p) def2/J RI DEFGRID1 loosescf d4 GCP(DFT/SV(P)) printgap
|  2> %output
|  3>     printlevel normal
|  4> end
|  5> * xyz 0 1
|  6> C -3.8884134155 0.3720723066 0.0236715021
|  7> C -2.6864621126 -0.5287646502 0.28105033
|  8> C -1.3752251623 0.179068932 -0.0504152138
|  9> C -0.1629514983 -0.7138404845 0.2228345533
| 10> C 1.1145425297 -0.0565414094 -0.2286205274
| 11> O 1.2616421413 0.5369947992 -1.2763105966
| 12> O 2.0845605132 -0.2163452829 0.6649341106
| 13> C 3.3758461804 0.3312769829 0.3799281655
| 14> H -3.8309105192 1.2686507638 0.6364582308
| 15> H -3.9202852535 0.6739207857 -1.0205961603
| 16> H -4.8127351271 -0.1483495819 0.2606327594
| 17> H -2.6771669717 -0.8311271712 1.3299562315
| 18> H -2.7731169671 -1.431531986 -0.3264902018
| 19> H -1.2928672449 1.0907377081 0.5451177458
| 20> H -1.3644800706 0.4708931614 -1.1025944973
| 21> H -0.2665531797 -1.6426425444 -0.3432556264
| 22> H -0.0759141572 -0.9584175602 1.2808195096
| 23> H 3.4366469717 1.3372134947 0.7950090634
| 24> H 3.5333024944 0.3710615659 -0.6984509133
| 25> H 4.0972363815 -0.3243058366 0.8592469156
| 26> *
| 27> 
| 28>                          ****END OF INPUT****
================================================================================

                       ****************************
                       * Single Point Calculation *
                       ****************************

---------------------------------
CARTESIAN COORDINATES (ANGSTROEM)
---------------------------------
  C     -3.888413    0.372072    0.023672
  C     -2.686462   -0.528765    0.281050
  C     -1.375225    0.179069   -0.050415
  C     -0.162951   -0.713840    0.222835
  C      1.114543   -0.056541   -0.228621
  O      1.261642    0.536995   -1.276311
  O      2.084561   -0.216345    0.664934
  C      3.375846    0.331277    0.379928
  H     -3.830911    1.268651    0.636458
  H     -3.920285    0.673921   -1.020596
  H     -4.812735   -0.148350    0.260633
  H     -2.677167   -0.831127    1.329956
  H     -2.773117   -1.431532   -0.326490
  H     -1.292867    1.090738    0.545118
  H     -1.364480    0.470893   -1.102594
  H     -0.266553   -1.642643   -0.343256
  H     -0.075914   -0.958418    1.280820
  H      3.436647    1.337213    0.795009
  H      3.533302    0.371062   -0.698451
  H      4.097236   -0.324306    0.859247

----------------------------
CARTESIAN COORDINATES (A.U.)
----------------------------
  NO LB      ZA    FRAG     MASS         X           Y           Z
   0 C     6.0000    0    12.011   -7.348036    0.703115    0.044733
   1 C     6.0000    0    12.011   -5.076678   -0.999220    0.531108
   2 C     6.0000    0    12.011   -2.598799    0.338391   -0.095271
   3 C     6.0000    0    12.011   -0.307934   -1.348963    0.421096
   4 C     6.0000    0    12.011    2.106180   -0.106848   -0.432030
   5 O     8.0000    0    15.999    2.384158    1.014773   -2.411877
   6 O     8.0000    0    15.999    3.939248   -0.408833    1.256543
   7 C     6.0000    0    12.011    6.379425    0.626023    0.717960
   8 H     1.0000    0     1.008   -7.239372    2.397403    1.202732
   9 H     1.0000    0     1.008   -7.408265    1.273526   -1.928647
  10 H     1.0000    0     1.008   -9.094751   -0.280340    0.492525
  11 H     1.0000    0     1.008   -5.059112   -1.570603    2.513253
  12 H     1.0000    0     1.008   -5.240432   -2.705203   -0.616977
  13 H     1.0000    0     1.008   -2.443165    2.061196    1.030123
  14 H     1.0000    0     1.008   -2.578494    0.889859   -2.083602
  15 H     1.0000    0     1.008   -0.503713   -3.104145   -0.648659
  16 H     1.0000    0     1.008   -0.143457   -1.811147    2.420398
  17 H     1.0000    0     1.008    6.494322    2.526967    1.502349
  18 H     1.0000    0     1.008    6.676974    0.701205   -1.319881
  19 H     1.0000    0     1.008    7.742655   -0.612849    1.623741

--------------------------------
INTERNAL COORDINATES (ANGSTROEM)
--------------------------------
 C      0   0   0     0.000000000000     0.00000000     0.00000000
 C      1   0   0     1.523954729751     0.00000000     0.00000000
 C      2   1   0     1.526512406320   111.51279068     0.00000000
 C      3   2   1     1.530215703005   111.78674546   179.26804883
 C      4   3   2     1.505936504502   111.33536142   174.61914810
 O      5   4   3     1.213086150177   125.12290527   316.53752505
 O      5   4   3     1.328499927509   111.42361395   137.16441916
 C      7   5   4     1.431271186414   118.60632112   179.01511257
 H      1   2   3     1.087504982917   110.51607012   299.86400500
 H      1   2   3     1.087484836274   110.44856325    59.67307573
 H      1   2   3     1.086903954371   110.54080322   179.76395944
 H      2   1   3     1.091656119825   109.43370853   120.99271480
 H      2   1   3     1.091605892333   109.40561969   238.94520846
 H      3   2   1     1.092054160673   109.47937901    58.04641575
 H      3   2   1     1.091951501893   109.97468354   300.07850480
 H      4   3   2     1.092641142561   109.17101517    56.42920398
 H      4   3   2     1.089369364569   111.57559514   296.31821381
 H      8   7   5     1.089906947311   109.12486046    92.00366530
 H      8   7   5     1.090539656068   109.94561634   331.81244849
 H      8   7   5     1.086250026313   106.28244216   211.30106932

---------------------------
INTERNAL COORDINATES (A.U.)
---------------------------
 C      0   0   0     0.000000000000     0.00000000     0.00000000
 C      1   0   0     2.879857079724     0.00000000     0.00000000
 C      2   1   0     2.884690387978   111.51279068     0.00000000
 C      3   2   1     2.891688604505   111.78674546   179.26804883
 C      4   3   2     2.845807568584   111.33536142   174.61914810
 O      5   4   3     2.292400600688   125.12290527   316.53752505
 O      5   4   3     2.510501031925   111.42361395   137.16441916
 C      7   5   4     2.704710565695   118.60632112   179.01511257
 H      1   2   3     2.055086586987   110.51607012   299.86400500
 H      1   2   3     2.055048515351   110.44856325    59.67307573
 H      1   2   3     2.053950807636   110.54080322   179.76395944
 H      2   1   3     2.062931098888   109.43370853   120.99271480
 H      2   1   3     2.062836182684   109.40561969   238.94520846
 H      3   2   1     2.063683287082   109.47937901    58.04641575
 H      3   2   1     2.063489290102   109.97468354   300.07850480
 H      4   3   2     2.064792522094   109.17101517    56.42920398
 H      4   3   2     2.058609757719   111.57559514   296.31821381
 H      8   7   5     2.059625641876   109.12486046    92.00366530
 H      8   7   5     2.060821288149   109.94561634   331.81244849
 H      8   7   5     2.052715062696   106.28244216   211.30106932

---------------------
BASIS SET INFORMATION
---------------------
There are 3 groups of distinct atoms

 Group   1 Type C   : 7s4p1d contracted to 3s2p1d pattern {511/31/1}
 Group   2 Type O   : 7s4p1d contracted to 3s2p1d pattern {511/31/1}
 Group   3 Type H   : 4s contracted to 2s pattern {31}

Atom   0C    basis set group =>   1
Atom   1C    basis set group =>   1
Atom   2C    basis set group =>   1
Atom   3C    basis set group =>   1
Atom   4C    basis set group =>   1
Atom   5O    basis set group =>   2
Atom   6O    basis set group =>   2
Atom   7C    basis set group =>   1
Atom   8H    basis set group =>   3
Atom   9H    basis set group =>   3
Atom  10H    basis set group =>   3
Atom  11H    basis set group =>   3
Atom  12H    basis set group =>   3
Atom  13H    basis set group =>   3
Atom  14H    basis set group =>   3
Atom  15H    basis set group =>   3
Atom  16H    basis set group =>   3
Atom  17H    basis set group =>   3
Atom  18H    basis set group =>   3
Atom  19H    basis set group =>   3
---------------------------------
AUXILIARY/J BASIS SET INFORMATION
---------------------------------
There are 3 groups of distinct atoms

 Group   1 Type C   : 12s5p4d2f1g contracted to 6s4p3d1f1g pattern {711111/2111/211/2/1}
 Group   2 Type O   : 12s5p4d2f1g contracted to 6s4p3d1f1g pattern {711111/2111/211/2/1}
 Group   3 Type H   : 5s2p1d contracted to 3s1p1d pattern {311/2/1}

Atom   0C    basis set group =>   1
Atom   1C    basis set group =>   1
Atom   2C    basis set group =>   1
Atom   3C    basis set group =>   1
Atom   4C    basis set group =>   1
Atom   5O    basis set group =>   2
Atom   6O    basis set group =>   2
Atom   7C    basis set group =>   1
Atom   8H    basis set group =>   3
Atom   9H    basis set group =>   3
Atom  10H    basis set group =>   3
Atom  11H    basis set group =>   3
Atom  12H    basis set group =>   3
Atom  13H    basis set group =>   3
Atom  14H    basis set group =>   3
Atom  15H    basis set group =>   3
Atom  16H    basis set group =>   3
Atom  17H    basis set group =>   3
Atom  18H    basis set group =>   3
Atom  19H    basis set group =>   3
------------------------------------------------------------------------------
                             ORCA STARTUP CALCULATIONS
                           -- RI-GTO INTEGRALS CHOSEN --
------------------------------------------------------------------------------
------------------------------------------------------------------------------
                   ___                                                        
                  /   \      - P O W E R E D   B Y -                         
                 /     \                                                     
                 |  |  |   _    _      __       _____    __    __             
                 |  |  |  | |  | |    /  \     |  _  \  |  |  /  |          
                  \  \/   | |  | |   /    \    | | | |  |  | /  /          
                 / \  \   | |__| |  /  /\  \   | |_| |  |  |/  /          
                |  |  |   |  __  | /  /__\  \  |    /   |      \           
                |  |  |   | |  | | |   __   |  |    \   |  |\   \          
                \     /   | |  | | |  |  |  |  | |\  \  |  | \   \       
                 \___/    |_|  |_| |__|  |__|  |_| \__\ |__|  \__/        
                                                                              
                      - O R C A' S   B I G   F R I E N D -                    
                                      &                                       
                       - I N T E G R A L  F E E D E R -                       
                                                                              
 v1 FN, 2020, v2 2021, v3 2022-2024                                           
------------------------------------------------------------------------------


----------------------
SHARK INTEGRAL PACKAGE
----------------------

Number of atoms                             ...     20
Number of basis functions                   ...    136
Number of shells                            ...     72
Maximum angular momentum                    ...      2
Integral batch strategy                     ... SHARK/LIBINT Hybrid
RI-J (if used) integral strategy            ... SPLIT-RIJ (Revised 2003 algorithm where possible)
Printlevel                                  ...      1
Contraction scheme used                     ... SEGMENTED contraction
Prescreening option                         ... SCHWARTZ
   Thresh                                   ... 1.000e-09
   Tcut                                     ... 1.000e-10
   Tpresel                                  ... 1.000e-10 
Coulomb Range Separation                    ... NOT USED
Exchange Range Separation                   ... NOT USED
Multipole approximations                    ... NOT USED
Finite Nucleus Model                        ... NOT USED
CABS basis                                  ... NOT available
Auxiliary Coulomb fitting basis             ... AVAILABLE
   # of basis functions in Aux-J            ...    524
   # of shells in Aux-J                     ...    180
   Maximum angular momentum in Aux-J        ...      4
Auxiliary J/K fitting basis                 ... NOT available
Auxiliary Correlation fitting basis         ... NOT available
Auxiliary 'external' fitting basis          ... NOT available

Checking pre-screening integrals            ... done (  0.0 sec) Dimension = 72
Check shell pair data                       ... done (  0.0 sec)
Shell pair information
Shell pair cut-off parameter TPreSel        ...   1.0e-10
Total number of shell pairs                 ...      2628
Shell pairs after pre-screening             ...      2332
Total number of primitive shell pairs       ...     10580
Primitive shell pairs kept                  ...      6441
          la=0 lb=0:   1029 shell pairs
          la=1 lb=0:    707 shell pairs
          la=1 lb=1:    131 shell pairs
          la=2 lb=0:    322 shell pairs
          la=2 lb=1:    115 shell pairs
          la=2 lb=2:     28 shell pairs

Calculating one electron integrals          ... done (  0.0 sec)
Calculating RI/J V-Matrix + Cholesky decomp.... done (  0.1 sec)
Calculating Nuclear repulsion               ... done (  0.0 sec) ENN=    380.538583276483 Eh

Diagonalization of the overlap matrix:
Smallest eigenvalue                        ... 1.238e-03
Time for diagonalization                   ...    0.002 sec
Threshold for overlap eigenvalues          ... 1.000e-07
Number of eigenvalues below threshold      ... 0
Time for construction of square roots      ...    0.024 sec
Total time needed                          ...    0.044 sec

-------------------
DFT GRID GENERATION
-------------------

General Integration Accuracy     IntAcc      ... 4.159
Radial Grid Type                 RadialGrid  ... OptM3 with GC (2021)
Angular Grid (max. ang.)         AngularGrid ... 3 (Lebedev-194)
Angular grid pruning method      GridPruning ... 4 (adaptive)
Weight generation scheme         WeightScheme... mBecke (2022)
Basis function cutoff            BFCut       ... 1.0000e-10
Integration weight cutoff        WCut        ... 1.0000e-14
Partially contracted basis set               ... off
Rotationally invariant grid construction     ... off
Angular grids for H and He will be reduced by one unit

Total number of grid points                  ...    43058
Total number of batches                      ...      683
Average number of points per batch           ...       63
Average number of grid points per atom       ...     2153
Initializing property integral containers    ... done (  0.0 sec)

SHARK setup successfully completed in   0.7 seconds

Maximum memory used throughout the entire STARTUP-calculation: 21.0 MB
-------------------------------------------------------------------------------
                                 ORCA GUESS
                   Start orbitals & Density for SCF / CASSCF
-------------------------------------------------------------------------------

------------
SCF SETTINGS
------------
Hamiltonian:
 Density Functional     Method          .... DFT(GTOs)
 Exchange Functional    Exchange        .... PBE
   PBE kappa parameter   XKappa         ....  0.804000
   PBE mue parameter    XMuePBE         ....  0.219520
 Correlation Functional Correlation     .... PBE
   PBE beta parameter  CBetaPBE         ....  0.066725
 LDA part of GGA corr.  LDAOpt          .... PW91-LDA
 Gradients option       PostSCFGGA      .... off
   NL short-range parameter             ....  6.400000
 RI-approximation to the Coulomb term is turned on
   Number of AuxJ basis functions       .... 524


General Settings:
 Integral files         IntName         .... sp
 Hartree-Fock type      HFTyp           .... RHF
 Total Charge           Charge          ....    0
 Multiplicity           Mult            ....    1
 Number of Electrons    NEL             ....   64
 Basis Dimension        Dim             ....  136
 Nuclear Repulsion      ENuc            ....    380.5385832765 Eh

Convergence Acceleration:
 AO-DIIS                CNVDIIS         .... on
   Start iteration      DIISMaxIt       ....    12
   Startup error        DIISStart       ....  0.200000
   # of expansion vecs  DIISMaxEq       ....     5
   Bias factor          DIISBfac        ....   1.050
   Max. coefficient     DIISMaxC        ....  10.000
 MO-DIIS                CNVKDIIS        .... off
 Trust-Rad. Augm. Hess. CNVTRAH         .... auto
   Auto Start mean grad. ratio tolernc. ....  1.125000
   Auto Start start iteration           ....    50
   Auto Start num. interpolation iter.  ....    10
   Max. Number of Micro iterations      ....    24
   Max. Number of Macro iterations      .... Maxiter - #DIIS iter
   Number of Davidson start vectors     ....     2
   Converg. threshold    (grad. norm)   ....   1.000e-04
   Grad. Scal. Fac. for Micro threshold ....   0.100
   Minimum threshold for Micro iter.    ....   1.000e-02
   NR start threshold (gradient norm)   ....   1.000e-04
   Initial trust radius                 ....   0.400
   Minimum AH scaling param. (alpha)    ....   1.000
   Maximum AH scaling param. (alpha)    .... 1000.000
   Quad. conv. algorithm                .... NR
   White noise on init. David. guess    .... on
   Maximum white noise                  ....   0.010
   Pseudo random numbers                .... off
   Inactive MOs                         .... canonical
   Orbital update algorithm             .... Taylor
   Preconditioner                       .... Diag
   Full preconditioner red. dimension   ....   250
 SOSCF                  CNVSOSCF        .... on
   Start iteration      SOSCFMaxIt      ....   150
   Startup grad/error   SOSCFStart      ....  0.003300
   Hessian update       SOSCFHessUp     .... L-BFGS
 Level Shifting         CNVShift        .... on
   Level shift para.    LevelShift      ....    0.2500
   Turn off err/grad.   ShiftErr        ....    0.0010
 Zerner damping         CNVZerner       .... off
 Static damping         CNVDamp         .... on
   Fraction old density DampFac         ....    0.7000
   Max. Damping (<1)    DampMax         ....    0.9800
   Min. Damping (>=0)   DampMin         ....    0.0000
   Turn off err/grad.   DampErr         ....    0.1000

SCF Procedure:
 Maximum # iterations   MaxIter         ....   125
 SCF integral mode      SCFMode         .... Direct
   Integral package                     .... SHARK and LIBINT hybrid scheme
 Reset frequency        DirectResetFreq ....    20
 Integral Threshold     Thresh          ....  1.000e-09 Eh
 Primitive CutOff       TCut            ....  1.000e-10 Eh

Convergence Tolerance:
 Convergence Check Mode ConvCheckMode   .... Total+1el-Energy
 Convergence forced     ConvForced      .... 0
 Energy Change          TolE            ....  1.000e-05 Eh
 1-El. energy change                    ....  1.000e-02 Eh
 Orbital Gradient       TolG            ....  1.000e-04
 Orbital Rotation angle TolX            ....  1.000e-04
 DIIS Error             TolErr          ....  5.000e-04

------------------------------
INITIAL GUESS: MODEL POTENTIAL
------------------------------
Loading Hartree-Fock densities                     ... done
Calculating cut-offs                               ... done
Initializing the effective Hamiltonian             ... done
Setting up the integral package (SHARK)            ... done
Starting the Coulomb interaction                   ... done (   0.1 sec)
Making the grid                                    ... done (   0.2 sec)
Mapping shells                                     ... done
Starting the XC term evaluation                    ... done (   0.2 sec)
  promolecular density results
     # of electrons  =     63.991418041
     EX              =    -50.542940781
     EC              =     -2.106526053
     EX+EC           =    -52.649466834
Transforming the Hamiltonian                       ... done (   0.0 sec)
Diagonalizing the Hamiltonian                      ... done (   0.0 sec)
Back transforming the eigenvectors                 ... done (   0.0 sec)
Now organizing SCF variables                       ... done
                      ------------------
                      INITIAL GUESS DONE (   0.5 sec)
                      ------------------
             **** ENERGY FILE WAS UPDATED (sp.en.tmp) ****
Finished Guess after   0.7 sec
Maximum memory used throughout the entire GUESS-calculation: 16.0 MB

-------------------------------------------------------------------------------------------
                                      ORCA LEAN-SCF
                              memory conserving SCF solver
-------------------------------------------------------------------------------------------

----------------------------------------D-I-I-S--------------------------------------------
Iteration    Energy (Eh)           Delta-E    RMSDP     MaxDP     DIISErr   Damp  Time(sec)
-------------------------------------------------------------------------------------------
               ***  Starting incremental Fock matrix formation  ***
    1    -385.2864241704770620     0.00e+00  4.97e-03  9.87e-02  2.43e-01  0.700   0.8
    2    -385.4085326297486063    -1.22e-01  3.12e-03  5.33e-02  7.67e-02  0.700   0.8
                               ***Turning on AO-DIIS***
    3    -385.4458330734029232    -3.73e-02  1.27e-03  1.43e-02  2.38e-02  0.700   0.8
    4    -385.4703602063392509    -2.45e-02  1.79e-03  2.19e-02  1.62e-02  0.000   0.8
    5    -385.5273475807025534    -5.70e-02  5.79e-04  7.56e-03  8.63e-03  0.000   0.8
                              *** Initializing SOSCF ***
---------------------------------------S-O-S-C-F--------------------------------------
Iteration    Energy (Eh)           Delta-E    RMSDP     MaxDP     MaxGrad    Time(sec)
--------------------------------------------------------------------------------------
    6    -385.5280886839174173    -7.41e-04  2.19e-04  2.53e-03  3.28e-03     0.7
               *** Restarting incremental Fock matrix formation ***
    7    -385.5281460623160683    -5.74e-05  1.59e-04  2.79e-03  6.77e-04     0.8
    8    -385.5281259244477496     2.01e-05  8.67e-05  2.17e-03  2.04e-03     0.7
    9    -385.5281526873059192    -2.68e-05  6.63e-05  1.06e-03  3.06e-04     0.7
   10    -385.5281492339119040     3.45e-06  3.82e-05  6.90e-04  4.04e-04     0.7
                 **** Energy Check signals convergence ****

               *****************************************************
               *                     SUCCESS                       *
               *           SCF CONVERGED AFTER  10 CYCLES          *
               *****************************************************

             **** ENERGY FILE WAS UPDATED (sp.en.tmp) ****

----------------
TOTAL SCF ENERGY
----------------

Total Energy       :       -385.52814923391190 Eh          -10490.75428 eV

Components:
Nuclear Repulsion  :        380.53858327648345 Eh           10354.98129 eV
Electronic Energy  :       -766.06673251039547 Eh          -20845.73557 eV
One Electron Energy:      -1277.56705438019731 Eh          -34764.36694 eV
Two Electron Energy:        511.50032186980189 Eh           13918.63137 eV

Virial components:
Potential Energy   :       -767.92623757255501 Eh          -20896.33527 eV
Kinetic Energy     :        382.39808833864305 Eh           10405.58099 eV
Virial Ratio       :          2.00818534660795

DFT components:
N(Alpha)           :       31.999936446532 electrons
N(Beta)            :       31.999936446532 electrons
N(Total)           :       63.999872893064 electrons
E(X)               :      -51.600675400582 Eh       
E(C)               :       -2.122993511973 Eh       
E(XC)              :      -53.723668912556 Eh       

---------------
SCF CONVERGENCE
---------------

  Last Energy change         ...   -3.4534e-06  Tolerance :   1.0000e-05
  Last MAX-Density change    ...    6.8999e-04  Tolerance :   1.0000e-03
  Last RMS-Density change    ...    3.8226e-05  Tolerance :   1.0000e-04
  Last DIIS Error            ...    3.2791e-03  Tolerance :   5.0000e-04
  Last Orbital Gradient      ...    4.0388e-04  Tolerance :   1.0000e-04
  Last Orbital Rotation      ...    3.8655e-04  Tolerance :   1.0000e-04


----------------
ORBITAL ENERGIES
----------------

  NO   OCC          E(Eh)            E(eV) 
   0   2.0000     -18.798952      -511.5455 
   1   2.0000     -18.731094      -509.6990 
   2   2.0000     -10.004489      -272.2360 
   3   2.0000      -9.940214      -270.4870 
   4   2.0000      -9.896729      -269.3037 
   5   2.0000      -9.887435      -269.0508 
   6   2.0000      -9.885893      -269.0088 
   7   2.0000      -9.874881      -268.7092 
   8   2.0000      -1.004003       -27.3203 
   9   2.0000      -0.908251       -24.7148 
  10   2.0000      -0.729625       -19.8541 
  11   2.0000      -0.686695       -18.6859 
  12   2.0000      -0.646753       -17.5991 
  13   2.0000      -0.576888       -15.6979 
  14   2.0000      -0.521050       -14.1785 
  15   2.0000      -0.502692       -13.6789 
  16   2.0000      -0.444476       -12.0948 
  17   2.0000      -0.440394       -11.9837 
  18   2.0000      -0.426390       -11.6027 
  19   2.0000      -0.410112       -11.1597 
  20   2.0000      -0.388489       -10.5713 
  21   2.0000      -0.373940       -10.1754 
  22   2.0000      -0.370428       -10.0799 
  23   2.0000      -0.348024        -9.4702 
  24   2.0000      -0.335028        -9.1166 
  25   2.0000      -0.312238        -8.4964 
  26   2.0000      -0.302210        -8.2236 
  27   2.0000      -0.296480        -8.0676 
  28   2.0000      -0.287097        -7.8123 
  29   2.0000      -0.285893        -7.7795 
  30   2.0000      -0.256164        -6.9706 
  31   2.0000      -0.218325        -5.9409 
  32   0.0000      -0.018301        -0.4980 
  33   0.0000       0.039579         1.0770 
  34   0.0000       0.055919         1.5216 
  35   0.0000       0.066811         1.8180 
  36   0.0000       0.071471         1.9448 
  37   0.0000       0.081461         2.2167 
  38   0.0000       0.095619         2.6019 
  39   0.0000       0.104022         2.8306 
  40   0.0000       0.115280         3.1369 
  41   0.0000       0.119955         3.2641 
  42   0.0000       0.127450         3.4681 
*Only the first 10 virtual orbitals were printed.

                    ********************************
                    * MULLIKEN POPULATION ANALYSIS *
                    ********************************

-----------------------
MULLIKEN ATOMIC CHARGES
-----------------------
   0 C :   -0.256644
   1 C :   -0.172851
   2 C :   -0.219116
   3 C :   -0.125935
   4 C :    0.110747
   5 O :   -0.207580
   6 O :   -0.237329
   7 C :   -0.122832
   8 H :    0.097824
   9 H :    0.099815
  10 H :    0.102002
  11 H :    0.082641
  12 H :    0.083458
  13 H :    0.087601
  14 H :    0.104645
  15 H :    0.108340
  16 H :    0.094665
  17 H :    0.120178
  18 H :    0.128564
  19 H :    0.121808
Sum of atomic charges:   -0.0000000

--------------------------------
MULLIKEN REDUCED ORBITAL CHARGES
--------------------------------
  0 C s       :     3.078576  s :     3.078576
      pz      :     1.067697  p :     3.148665
      px      :     1.035321
      py      :     1.045647
      dz2     :     0.007114  d :     0.029404
      dxz     :     0.002484
      dyz     :     0.006984
      dx2y2   :     0.006697
      dxy     :     0.006126

  1 C s       :     3.054359  s :     3.054359
      pz      :     1.043420  p :     3.081329
      px      :     0.986532
      py      :     1.051376
      dz2     :     0.008315  d :     0.037163
      dxz     :     0.004532
      dyz     :     0.008113
      dx2y2   :     0.009048
      dxy     :     0.007155

  2 C s       :     3.104074  s :     3.104074
      pz      :     1.067868  p :     3.078682
      px      :     0.965205
      py      :     1.045609
      dz2     :     0.008297  d :     0.036361
      dxz     :     0.004527
      dyz     :     0.007717
      dx2y2   :     0.008481
      dxy     :     0.007340

  3 C s       :     2.988919  s :     2.988919
      pz      :     1.035008  p :     3.103659
      px      :     0.988357
      py      :     1.080294
      dz2     :     0.007735  d :     0.033357
      dxz     :     0.004609
      dyz     :     0.006814
      dx2y2   :     0.008186
      dxy     :     0.006013

  4 C s       :     3.047230  s :     3.047230
      pz      :     0.889382  p :     2.711545
      px      :     0.937917
      py      :     0.884246
      dz2     :     0.032019  d :     0.130478
      dxz     :     0.044444
      dyz     :     0.021286
      dx2y2   :     0.013882
      dxy     :     0.018847

  5 O s       :     3.744922  s :     3.744922
      pz      :     1.356613  p :     4.445101
      px      :     1.699650
      py      :     1.388839
      dz2     :     0.006068  d :     0.017556
      dxz     :     0.003234
      dyz     :     0.005705
      dx2y2   :     0.001492
      dxy     :     0.001056

  6 O s       :     3.727381  s :     3.727381
      pz      :     1.597336  p :     4.493657
      px      :     1.220919
      py      :     1.675403
      dz2     :     0.003147  d :     0.016290
      dxz     :     0.005132
      dyz     :     0.002307
      dx2y2   :     0.002367
      dxy     :     0.003337

  7 C s       :     3.129930  s :     3.129930
      pz      :     1.103627  p :     2.942153
      px      :     0.799221
      py      :     1.039305
      dz2     :     0.010333  d :     0.050748
      dxz     :     0.009260
      dyz     :     0.004798
      dx2y2   :     0.013165
      dxy     :     0.013193

  8 H s       :     0.902176  s :     0.902176

  9 H s       :     0.900185  s :     0.900185

 10 H s       :     0.897998  s :     0.897998

 11 H s       :     0.917359  s :     0.917359

 12 H s       :     0.916542  s :     0.916542

 13 H s       :     0.912399  s :     0.912399

 14 H s       :     0.895355  s :     0.895355

 15 H s       :     0.891660  s :     0.891660

 16 H s       :     0.905335  s :     0.905335

 17 H s       :     0.879822  s :     0.879822

 18 H s       :     0.871436  s :     0.871436

 19 H s       :     0.878192  s :     0.878192


------------------------
MULLIKEN OVERLAP CHARGES
------------------------
B(  0-C ,  1-C ) :   0.9045 B(  0-C ,  2-C ) :  -0.1193 B(  0-C ,  8-H ) :   0.7572 
B(  0-C ,  9-H ) :   0.7551 B(  0-C , 10-H ) :   0.7348 B(  1-C ,  2-C ) :   0.8730 
B(  1-C ,  3-C ) :  -0.0954 B(  1-C , 11-H ) :   0.7070 B(  1-C , 12-H ) :   0.7122 
B(  1-C , 13-H ) :  -0.0606 B(  2-C ,  3-C ) :   0.6922 B(  2-C , 13-H ) :   0.7249 
B(  2-C , 14-H ) :   0.6882 B(  3-C ,  4-C ) :   0.4885 B(  3-C ,  5-O ) :  -0.2200 
B(  3-C ,  6-O ) :  -0.2663 B(  3-C , 13-H ) :  -0.0680 B(  3-C , 15-H ) :   0.6036 
B(  3-C , 16-H ) :   0.5960 B(  4-C ,  5-O ) :   1.3785 B(  4-C ,  6-O ) :   0.7674 
B(  4-C ,  7-C ) :  -0.0768 B(  5-O ,  6-O ) :  -0.1690 B(  5-O , 18-H ) :   0.0625 
B(  6-O ,  7-C ) :   0.5472 B(  6-O , 17-H ) :  -0.0561 B(  6-O , 18-H ) :  -0.0663 
B(  6-O , 19-H ) :  -0.0537 B(  7-C , 17-H ) :   0.7814 B(  7-C , 18-H ) :   0.7331 
B(  7-C , 19-H ) :   0.7653 B(  8-H ,  9-H ) :  -0.0525 B( 11-H , 12-H ) :  -0.0710 
B( 13-H , 14-H ) :  -0.0648 B( 17-H , 18-H ) :  -0.0567 B( 17-H , 19-H ) :  -0.0553 



                     *******************************
                     * LOEWDIN POPULATION ANALYSIS *
                     *******************************

----------------------
LOEWDIN ATOMIC CHARGES
----------------------
   0 C :   -0.338991
   1 C :   -0.233742
   2 C :   -0.221572
   3 C :   -0.245934
   4 C :    0.036526
   5 O :   -0.170941
   6 O :   -0.074657
   7 C :   -0.207152
   8 H :    0.117276
   9 H :    0.118364
  10 H :    0.118877
  11 H :    0.113580
  12 H :    0.114545
  13 H :    0.117351
  14 H :    0.123637
  15 H :    0.141853
  16 H :    0.128245
  17 H :    0.119500
  18 H :    0.122624
  19 H :    0.120614

-------------------------------
LOEWDIN REDUCED ORBITAL CHARGES
-------------------------------
  0 C s       :     2.944827  s :     2.944827
      pz      :     1.125650  p :     3.323193
      px      :     1.088262
      py      :     1.109282
      dz2     :     0.017916  d :     0.070971
      dxz     :     0.004981
      dyz     :     0.016383
      dx2y2   :     0.015175
      dxy     :     0.016517

  1 C s       :     2.906975  s :     2.906975
      pz      :     1.100563  p :     3.237567
      px      :     1.048846
      py      :     1.088159
      dz2     :     0.020603  d :     0.089200
      dxz     :     0.009114
      dyz     :     0.018749
      dx2y2   :     0.020358
      dxy     :     0.020376

  2 C s       :     2.910448  s :     2.910448
      pz      :     1.115622  p :     3.223231
      px      :     1.025901
      py      :     1.081709
      dz2     :     0.020508  d :     0.087892
      dxz     :     0.008936
      dyz     :     0.017807
      dx2y2   :     0.019966
      dxy     :     0.020675

  3 C s       :     2.915669  s :     2.915669
      pz      :     1.103521  p :     3.245931
      px      :     1.049003
      py      :     1.093407
      dz2     :     0.020320  d :     0.084334
      dxz     :     0.010533
      dyz     :     0.015600
      dx2y2   :     0.019288
      dxy     :     0.018593

  4 C s       :     2.847223  s :     2.847223
      pz      :     0.964434  p :     2.818838
      px      :     0.959495
      py      :     0.894908
      dz2     :     0.072202  d :     0.297413
      dxz     :     0.105277
      dyz     :     0.049278
      dx2y2   :     0.029665
      dxy     :     0.040990

  5 O s       :     3.550610  s :     3.550610
      pz      :     1.461817  p :     4.589373
      px      :     1.702929
      py      :     1.424627
      dz2     :     0.010700  d :     0.030958
      dxz     :     0.005125
      dyz     :     0.011251
      dx2y2   :     0.002159
      dxy     :     0.001723

  6 O s       :     3.450948  s :     3.450948
      pz      :     1.633837  p :     4.590604
      px      :     1.288669
      py      :     1.668098
      dz2     :     0.005451  d :     0.033105
      dxz     :     0.012007
      dyz     :     0.002988
      dx2y2   :     0.006121
      dxy     :     0.006538

  7 C s       :     2.966713  s :     2.966713
      pz      :     1.154777  p :     3.128270
      px      :     0.872563
      py      :     1.100930
      dz2     :     0.024494  d :     0.112169
      dxz     :     0.019403
      dyz     :     0.010654
      dx2y2   :     0.028522
      dxy     :     0.029096

  8 H s       :     0.882724  s :     0.882724

  9 H s       :     0.881636  s :     0.881636

 10 H s       :     0.881123  s :     0.881123

 11 H s       :     0.886420  s :     0.886420

 12 H s       :     0.885455  s :     0.885455

 13 H s       :     0.882649  s :     0.882649

 14 H s       :     0.876363  s :     0.876363

 15 H s       :     0.858147  s :     0.858147

 16 H s       :     0.871755  s :     0.871755

 17 H s       :     0.880500  s :     0.880500

 18 H s       :     0.877376  s :     0.877376

 19 H s       :     0.879386  s :     0.879386


---------------------------------
LOEWDIN BOND ORDERS (THRESH 0.050000)
---------------------------------
B(  0-C ,  1-C ) :   1.1307 B(  0-C ,  2-C ) :   0.0578 B(  0-C ,  8-H ) :   0.9410 
B(  0-C ,  9-H ) :   0.9408 B(  0-C , 10-H ) :   0.9392 B(  1-C ,  2-C ) :   1.0934 
B(  1-C ,  3-C ) :   0.0577 B(  1-C , 11-H ) :   0.9077 B(  1-C , 12-H ) :   0.9075 
B(  2-C ,  3-C ) :   1.0751 B(  2-C ,  4-C ) :   0.0644 B(  2-C , 13-H ) :   0.9055 
B(  2-C , 14-H ) :   0.8995 B(  3-C ,  4-C ) :   1.0576 B(  3-C ,  5-O ) :   0.0946 
B(  3-C ,  6-O ) :   0.0748 B(  3-C , 15-H ) :   0.8803 B(  3-C , 16-H ) :   0.8962 
B(  4-C ,  5-O ) :   2.2018 B(  4-C ,  6-O ) :   1.4041 B(  4-C ,  7-C ) :   0.0770 
B(  5-O ,  6-O ) :   0.2107 B(  6-O ,  7-C ) :   1.1051 B(  7-C , 17-H ) :   0.9502 
B(  7-C , 18-H ) :   0.9374 B(  7-C , 19-H ) :   0.9529 

------------------------------------------
LOEWDIN REDUCED ORBITAL POPULATIONS PER MO
-------------------------------------------
THRESHOLD FOR PRINTING IS 0.1%%
                      0         1         2         3         4         5   
                 -18.79895 -18.73109 -10.00449  -9.94021  -9.89673  -9.88743
                   2.00000   2.00000   2.00000   2.00000   2.00000   2.00000
                  --------  --------  --------  --------  --------  --------
 2 C  s               0.0       0.0       0.0       0.0       0.0      99.6
 3 C  s               0.0       0.0       0.0       0.0      99.6       0.0
 4 C  s               0.0       0.0      99.3       0.0       0.0       0.0
 5 O  s               0.0      99.9       0.0       0.0       0.0       0.0
 5 O  pz              0.0       0.0       0.2       0.0       0.0       0.0
 6 O  s              99.9       0.0       0.0       0.0       0.0       0.0
 7 C  s               0.0       0.0       0.0      99.7       0.0       0.0

                      6         7         8         9        10        11   
                  -9.88589  -9.87488  -1.00400  -0.90825  -0.72963  -0.68670
                   2.00000   2.00000   2.00000   2.00000   2.00000   2.00000
                  --------  --------  --------  --------  --------  --------
 0 C  s               0.0      99.7       0.0       0.0       5.3      10.5
 0 C  px              0.1       0.0       0.0       0.0       1.3       0.7
 0 C  py              0.0       0.0       0.0       0.0       0.4       0.4
 1 C  s              99.6       0.0       0.0       0.0      14.5      11.3
 1 C  pz              0.0       0.0       0.0       0.0       0.1       0.0
 1 C  px              0.0       0.1       0.0       0.0       0.8       0.7
 1 C  py              0.0       0.0       0.0       0.0       0.7       0.5
 2 C  s               0.0       0.0       0.1       0.1      20.5       0.8
 2 C  pz              0.0       0.0       0.0       0.0       0.2       0.0
 2 C  px              0.1       0.0       0.1       0.1       0.0       4.6
 2 C  py              0.0       0.0       0.0       0.0       1.3       0.0
 3 C  s               0.0       0.0       1.0       0.3      17.0       6.5
 3 C  pz              0.0       0.0       0.1       0.3       0.1       0.0
 3 C  px              0.0       0.0       1.5       0.1       0.8       2.6
 3 C  py              0.0       0.0       0.3       0.2       0.7       0.0
 4 C  s               0.0       0.0      18.4       5.3       1.8       4.5
 4 C  pz              0.0       0.0       0.3      19.1       1.7       3.9
 4 C  px              0.0       0.0       4.8       1.2       3.7       1.5
 4 C  py              0.0       0.0       0.2       3.8       1.3       2.0
 4 C  dz2             0.0       0.0       0.2       0.4       0.0       0.0
 4 C  dxz             0.0       0.0       0.4       0.5       0.0       0.0
 4 C  dyz             0.0       0.0       0.3       0.7       0.0       0.0
 4 C  dx2y2           0.0       0.0       0.1       0.3       0.0       0.0
 5 O  s               0.0       0.0      10.9      41.9       1.0       1.2
 5 O  pz              0.0       0.0       2.1       3.2       0.1       0.2
 5 O  px              0.0       0.0       0.0       0.1       0.1       0.0
 5 O  py              0.0       0.0       0.6       1.1       0.0       0.1
 6 O  s               0.0       0.0      42.0      15.2       0.0       0.0
 6 O  pz              0.0       0.0       2.6       0.2       0.0       0.4
 6 O  px              0.0       0.0       0.1       0.5       2.1      13.3
 6 O  py              0.0       0.0       0.5       0.1       0.2       0.7
 6 O  dxz             0.0       0.0       0.0       0.0       0.0       0.1
 7 C  s               0.0       0.0       4.8       2.2       1.3      11.7
 7 C  pz              0.0       0.0       0.1       0.2       0.0       0.1
 7 C  px              0.0       0.0       4.9       1.2       0.1       0.2
 7 C  py              0.0       0.0       0.6       0.3       0.0       0.1
 7 C  dz2             0.0       0.0       0.1       0.0       0.0       0.0
 7 C  dx2y2           0.0       0.0       0.2       0.1       0.0       0.0
 7 C  dxy             0.0       0.0       0.2       0.1       0.0       0.0
 8 H  s               0.0       0.1       0.0       0.0       1.0       2.1
 9 H  s               0.0       0.1       0.0       0.0       1.0       2.1
10 H  s               0.0       0.1       0.0       0.0       0.9       2.0
11 H  s               0.1       0.0       0.0       0.0       2.7       2.1
12 H  s               0.1       0.0       0.0       0.0       2.7       2.1
13 H  s               0.0       0.0       0.0       0.0       3.7       0.2
14 H  s               0.0       0.0       0.0       0.0       3.5       0.2
15 H  s               0.0       0.0       0.1       0.1       3.2       1.2
16 H  s               0.0       0.0       0.2       0.0       3.2       1.6
17 H  s               0.0       0.0       0.5       0.3       0.2       2.5
18 H  s               0.0       0.0       0.8       0.1       0.2       2.3
19 H  s               0.0       0.0       0.5       0.3       0.2       2.8

                     12        13        14        15        16        17   
                  -0.64675  -0.57689  -0.52105  -0.50269  -0.44448  -0.44039
                   2.00000   2.00000   2.00000   2.00000   2.00000   2.00000
                  --------  --------  --------  --------  --------  --------
 0 C  s              11.7      14.4       4.5       0.0       0.3       0.0
 0 C  pz              0.0       0.0       0.5       0.0       0.1       1.7
 0 C  px              0.0       2.0       2.1       0.1       0.9       0.2
 0 C  py              0.1       0.4       4.5       0.2       1.1       0.1
 0 C  dxy             0.0       0.0       0.1       0.0       0.0       0.0
 1 C  s               2.9       2.4      12.3       0.2       1.0       0.0
 1 C  pz              0.0       0.0       1.0       0.1       0.0       6.3
 1 C  px              4.6       7.8       0.0       0.2       1.2       0.0
 1 C  py              0.2       0.2       8.1       1.4       0.1       0.1
 1 C  dz2             0.0       0.0       0.1       0.0       0.0       0.0
 1 C  dxy             0.1       0.3       0.0       0.0       0.0       0.0
 2 C  s               4.3       9.5       6.7       1.9       0.1       0.1
 2 C  pz              0.0       0.0       0.9       0.1       0.4      10.8
 2 C  px              3.4       2.4       2.3       0.3       0.0       0.8
 2 C  py              0.2       0.2       6.1       3.3       2.8       0.0
 2 C  dxy             0.1       0.1       0.1       0.0       0.1       0.0
 3 C  s               7.8       6.7       0.2       2.5       1.6       0.4
 3 C  pz              0.1       0.0       0.3       0.0       1.3      13.8
 3 C  px              1.3       5.1       1.4       0.5       8.8       1.0
 3 C  py              0.1       1.0       3.0       3.5       9.5       0.8
 3 C  dxy             0.0       0.1       0.1       0.0       0.2       0.0
 4 C  s               0.6       1.4       0.6       2.5       2.1       0.6
 4 C  pz              0.9       0.2       0.1       2.7       0.8       2.6
 4 C  px              4.0       4.4       0.1       1.7      13.5       0.0
 4 C  py              0.0       1.7       0.7       0.2       0.1       9.0
 4 C  dxz             0.2       0.1       0.0       0.0       0.0       0.0
 5 O  s               0.0       0.3       0.0       1.4       0.2       0.9
 5 O  pz              0.1       0.0       0.0       1.2       0.4       0.0
 5 O  px              0.2       0.2       0.1       0.5       7.7       0.1
 5 O  py              0.0       0.1       0.1       0.0       0.0       4.7
 5 O  dxz             0.0       0.0       0.0       0.0       0.1       0.0
 6 O  s               0.7       1.2       0.9       4.0       0.8       0.0
 6 O  pz              0.8       0.1       0.7       7.5      13.3       2.8
 6 O  px             10.8       0.0       1.6      16.2       0.3       0.9
 6 O  py              0.4       0.0       0.1       0.3       0.1      10.2
 7 C  s              16.8       4.8       1.3       5.0       0.1       0.0
 7 C  pz              0.1       0.0       0.5       4.7      12.8       1.2
 7 C  px              0.4       1.6       1.8       9.1       1.2       1.1
 7 C  py              0.0       0.2       0.4       5.3       0.0       8.4
 7 C  dz2             0.0       0.0       0.0       0.2       0.0       0.0
 7 C  dxz             0.0       0.0       0.0       0.2       0.0       0.0
 7 C  dx2y2           0.0       0.0       0.0       0.2       0.0       0.0
 7 C  dxy             0.0       0.0       0.0       0.3       0.0       0.0
 8 H  s               2.6       4.3       3.2       0.0       0.4       0.5
 9 H  s               2.6       4.3       3.2       0.0       0.4       0.3
10 H  s               2.8       5.3       1.6       0.1       0.2       0.2
11 H  s               0.6       0.7       7.4       0.3       0.4       1.7
12 H  s               0.6       0.7       7.5       0.5       0.4       1.0
13 H  s               0.8       2.8       4.8       2.0       0.2       1.0
14 H  s               0.9       2.5       4.5       1.1       0.2       3.6
15 H  s               2.0       2.4       0.7       3.1       4.6       1.3
16 H  s               1.4       2.1       0.5       1.3       2.5       5.7
17 H  s               4.3       1.9       0.8       4.7       1.1       3.2
18 H  s               3.6       1.6       1.3       7.3       3.7       0.5
19 H  s               4.9       2.1       0.6       1.5       2.3       1.4

                     18        19        20        21        22        23   
                  -0.42639  -0.41011  -0.38849  -0.37394  -0.37043  -0.34802
                   2.00000   2.00000   2.00000   2.00000   2.00000   2.00000
                  --------  --------  --------  --------  --------  --------
 0 C  pz              3.1       5.1       1.7      14.0       0.9       1.4
 0 C  px              0.4       0.1       9.4       5.1       6.4       3.2
 0 C  py              0.9       0.1       7.8       0.7       1.5      12.8
 0 C  dyz             0.0       0.0       0.1       0.0       0.0       0.1
 0 C  dxy             0.0       0.0       0.0       0.1       0.1       0.0
 1 C  s               0.0       0.1       0.1       0.1       0.3       0.1
 1 C  pz              7.4       7.9       1.0       6.9       1.0       0.1
 1 C  px              0.1       0.6       1.4       0.5       3.9       1.4
 1 C  py              2.9       0.0      11.0       1.0       1.2       0.1
 2 C  s               0.0       0.0       0.1       0.3       0.3       0.4
 2 C  pz              7.8       2.0       0.0       2.5       0.1       1.9
 2 C  px              0.4       1.8       8.7       2.6       0.3       0.0
 2 C  py              2.7       0.5       0.1       0.0       6.0       7.4
 2 C  dx2y2           0.0       0.0       0.0       0.0       0.0       0.1
 3 C  s               0.1       0.0       0.0       0.1       0.2       0.1
 3 C  pz              4.8       2.2       2.5      10.3       0.9       1.7
 3 C  px              0.7       0.1       1.6       0.3       9.3       0.2
 3 C  py              0.0       3.1       9.0       0.0       0.4       1.3
 3 C  dz2             0.0       0.0       0.0       0.1       0.0       0.0
 4 C  s               0.1       2.1       0.1       0.8       0.4       0.0
 4 C  pz              0.1       2.1       1.1       1.6       0.7       3.4
 4 C  px              0.2       0.9       0.1       0.0       4.6       2.7
 4 C  py              3.4       0.2       2.7       2.2       1.4       6.8
 4 C  dz2             0.0       0.3       0.0       0.0       0.0       0.1
 4 C  dxz             0.0       0.0       0.0       0.2       0.1       0.1
 4 C  dyz             0.1       0.1       0.0       0.0       0.0       0.0
 4 C  dx2y2           0.0       0.1       0.0       0.0       0.0       0.0
 4 C  dxy             0.1       0.0       0.1       0.0       0.0       0.0
 5 O  s               1.5      10.2       0.2       3.5       2.1       0.3
 5 O  pz              3.0      13.6       0.0      14.0       8.8       0.1
 5 O  px              0.1       0.6       0.0       0.0       0.1       1.6
 5 O  py              0.1       5.2       2.8       1.1       1.6      11.6
 5 O  dyz             0.0       0.1       0.0       0.0       0.0       0.1
 6 O  s               0.2       1.1       0.0       0.5       0.0       0.0
 6 O  pz              0.0       7.0       0.2       0.2       0.0       0.5
 6 O  px              0.0       7.0       0.0       1.2       2.6       0.3
 6 O  py             16.6       1.8       0.5       0.4       0.1       1.4
 6 O  dxz             0.0       0.0       0.0       0.0       0.1       0.0
 7 C  s               0.0       0.1       0.0       0.0       0.0       0.0
 7 C  pz              0.1       3.5       3.2       0.3      13.6       4.9
 7 C  px              5.0       5.0       0.7       0.0       7.5       0.2
 7 C  py             13.4       0.7       7.0       3.1       1.0       4.8
 7 C  dz2             0.0       0.0       0.0       0.0       0.1       0.1
 7 C  dxz             0.0       0.0       0.0       0.0       0.1       0.0
 7 C  dxy             0.0       0.1       0.0       0.0       0.2       0.0
 8 H  s               1.1       0.4       3.8       0.8       1.2       7.3
 9 H  s               0.9       1.9       0.2       6.1       0.0       0.0
10 H  s               0.2       0.3       6.2       4.8       1.9       4.8
11 H  s               1.6       3.2       0.0       2.8       0.3       0.1
12 H  s               3.1       0.6       4.0       0.2       0.0       0.0
13 H  s               3.2       0.6       0.0       0.0       0.8       6.5
14 H  s               1.3       1.0       0.0       1.9       0.2       0.0
15 H  s               1.0       0.3       4.6       1.3       0.5       0.0
16 H  s               1.6       1.7       0.3       5.1       0.9       1.1
17 H  s               4.0       1.6       4.5       1.1       0.2       4.9
18 H  s               0.3       0.4       1.5       0.4       5.9       2.7
19 H  s               5.5       2.0       1.0       1.0       9.3       0.4

                     24        25        26        27        28        29   
                  -0.33503  -0.31224  -0.30221  -0.29648  -0.28710  -0.28589
                   2.00000   2.00000   2.00000   2.00000   2.00000   2.00000
                  --------  --------  --------  --------  --------  --------
 0 C  s               0.0       0.0       0.0       0.6       0.0       0.1
 0 C  pz              8.2      12.5       0.7       1.0       5.3       0.1
 0 C  px              2.2       0.8       3.9       4.0       1.4       9.9
 0 C  py              8.7       1.8       2.7      10.8       0.0       0.4
 0 C  dz2             0.2       0.1       0.0       0.1       0.2       0.0
 0 C  dyz             0.0       0.3       0.1       0.0       0.2       0.0
 0 C  dx2y2           0.0       0.0       0.2       0.2       0.0       0.3
 0 C  dxy             0.0       0.0       0.1       0.0       0.0       0.2
 1 C  s               0.0       0.0       0.0       0.2       0.0       0.1
 1 C  pz              0.4       4.0       0.6       1.6      15.8       0.6
 1 C  px              9.2       0.6       3.0       0.8       2.0      13.0
 1 C  py              3.3       0.9       2.1      18.2       0.2       1.9
 1 C  dz2             0.0       0.0       0.0       0.3       0.4       0.0
 1 C  dxz             0.0       0.2       0.0       0.0       0.0       0.1
 1 C  dyz             0.0       0.1       0.1       0.0       0.6       0.1
 1 C  dx2y2           0.0       0.0       0.1       0.6       0.0       0.1
 1 C  dxy             0.0       0.0       0.1       0.1       0.1       0.2
 2 C  s               0.0       0.1       0.1       0.3       0.0       0.1
 2 C  pz              6.1       6.8       0.3       1.2      13.5       0.9
 2 C  px              0.2       0.7       5.2       0.3       2.4      14.3
 2 C  py              4.6       0.9       0.0      16.0       0.2       1.6
 2 C  dz2             0.1       0.1       0.0       0.2       0.4       0.0
 2 C  dyz             0.0       0.1       0.0       0.0       0.4       0.1
 2 C  dx2y2           0.0       0.0       0.0       0.5       0.0       0.1
 2 C  dxy             0.0       0.0       0.0       0.1       0.1       0.2
 3 C  s               0.2       0.1       0.5       0.5       0.0       0.0
 3 C  pz              0.6      11.5       0.4       0.2       1.9       0.9
 3 C  px              0.1       0.3       0.0       4.6       0.7       7.6
 3 C  py              7.3       0.8       4.4       7.0       0.2       0.0
 3 C  dz2             0.1       0.2       0.0       0.0       0.1       0.0
 3 C  dyz             0.0       0.3       0.0       0.0       0.2       0.0
 3 C  dx2y2           0.3       0.1       0.0       0.2       0.0       0.2
 3 C  dxy             0.0       0.0       0.0       0.0       0.0       0.1
 4 C  s               0.1       0.0       0.1       0.0       0.2       0.9
 4 C  pz              0.7       1.8       1.7       0.1       0.3       1.6
 4 C  px              1.0       0.1       0.8       0.0       0.6       1.3
 4 C  py              4.8       0.6       1.8       0.2       0.0       0.6
 4 C  dz2             0.1       0.2       0.2       0.0       0.0       0.1
 4 C  dxz             0.0       0.1       0.1       0.0       0.0       0.0
 4 C  dyz             0.0       0.1       0.1       0.0       0.0       0.0
 4 C  dx2y2           0.1       0.0       0.4       0.1       0.0       0.0
 5 O  s               0.1       0.5       0.8       0.0       0.1       0.4
 5 O  pz              4.1       0.9       7.0       0.8       0.3       2.2
 5 O  px              0.4       0.0       2.8       0.1       0.0       0.3
 5 O  py              4.2       5.5       0.0       0.9       0.7       0.9
 6 O  s               0.4       0.2       2.7       0.1       0.0       2.1
 6 O  pz              0.2       1.5      21.7       0.0       0.0       6.7
 6 O  px              0.0       0.2       1.6       0.0       0.0       1.3
 6 O  py              3.1       3.3       1.7       0.5       1.2       5.6
 7 C  s               0.0       0.0       0.1       0.0       0.0       0.2
 7 C  pz              0.5       0.6       9.4       0.0       0.0       1.1
 7 C  px              0.5       0.2       0.5       0.0       0.0       1.1
 7 C  py              3.6       1.3       0.3       0.2       0.3       1.3
 7 C  dz2             0.0       0.0       0.3       0.0       0.0       0.1
 7 C  dxz             0.0       0.0       0.3       0.0       0.0       0.0
 8 H  s               0.4       6.0       3.1       2.4       2.1       1.5
 9 H  s               7.4       6.3       0.1       2.0       5.2       0.0
10 H  s               0.4       0.5       3.8       0.2       1.6       6.4
11 H  s               0.8       1.7       0.1       4.4      12.8       0.4
12 H  s               0.5       2.0       2.5       6.0       6.8       3.0
13 H  s               0.1       2.8       0.0       5.8       6.0       2.7
14 H  s               4.1       3.7       0.1       3.1      10.4       0.8
15 H  s               3.4       6.1       1.7       2.2       1.4       1.3
16 H  s               2.0       7.4       0.2       0.6       2.6       0.4
17 H  s               1.6       0.5       0.4       0.2       0.2       0.3
18 H  s               0.4       0.5       7.3       0.0       0.0       1.1
19 H  s               2.9       1.6       1.6       0.0       0.1       0.5

                     30        31        32        33        34        35   
                  -0.25616  -0.21832  -0.01830   0.03958   0.05592   0.06681
                   2.00000   2.00000   0.00000   0.00000   0.00000   0.00000
                  --------  --------  --------  --------  --------  --------
 0 C  s               0.0       0.0       0.0       6.4       5.1       5.8
 0 C  pz              0.0       0.0       0.0       0.1       0.0       0.4
 0 C  px              0.0       0.1       0.0       1.1       0.4       0.1
 0 C  py              0.0       0.0       0.0       1.3       0.1       0.7
 0 C  dxy             0.0       0.0       0.0       0.2       0.0       0.0
 1 C  s               0.0       0.0       0.0       7.9       1.0       0.4
 1 C  pz              0.0       0.0       0.0       0.7       0.0       0.6
 1 C  px              0.1       0.2       0.2       0.0       0.2       0.5
 1 C  py              0.0       0.0       0.3       2.8       0.1       1.3
 1 C  dz2             0.0       0.0       0.0       0.2       0.0       0.0
 1 C  dxy             0.0       0.0       0.0       0.0       0.1       0.2
 2 C  s               0.0       0.1       1.2       4.5       0.0       0.1
 2 C  pz              0.1       0.2       0.3       0.2       0.0       0.7
 2 C  px              0.1       0.1       0.9       0.1       0.6       0.8
 2 C  py              0.0       0.1       0.2       2.6       0.0       0.4
 2 C  dz2             0.0       0.0       0.0       0.1       0.0       0.1
 2 C  dyz             0.0       0.0       0.0       0.2       0.0       0.0
 2 C  dxy             0.0       0.0       0.0       0.1       0.3       0.2
 3 C  s               0.0       0.6       0.1       2.7       2.6       7.5
 3 C  pz              0.0       1.2       0.1       0.6       0.0       0.4
 3 C  px              0.0       3.8       0.2       0.2       0.0       0.2
 3 C  py              0.2       1.7       0.3       2.1       0.1       3.8
 3 C  dz2             0.0       0.1       0.0       0.2       0.0       0.0
 3 C  dxz             0.0       0.0       0.2       0.0       0.0       0.0
 3 C  dyz             0.0       0.0       0.1       0.0       0.0       0.1
 3 C  dx2y2           0.0       0.0       0.7       0.1       0.0       0.0
 3 C  dxy             0.0       0.0       1.0       0.0       0.0       0.0
 4 C  s               0.0       0.4       0.0       0.2       1.8       0.1
 4 C  pz              0.1       0.5       9.4       0.6       0.4       0.1
 4 C  px              0.1       0.8       3.3       0.5       0.3       0.5
 4 C  py              0.5       0.1      33.5       0.8       0.2       0.3
 4 C  dz2             1.1       0.5       0.3       0.0       0.1       0.0
 4 C  dxz             0.1       3.2       0.2       0.0       0.0       0.1
 4 C  dyz             0.9       0.0       0.2       0.1       0.3       0.0
 4 C  dx2y2           0.1       0.0       0.3       0.0       0.1       0.1
 4 C  dxy             0.4       0.8       0.2       0.0       0.1       0.1
 5 O  s               0.0       0.0       0.0       0.2       0.7       0.0
 5 O  pz              6.4       4.5       5.2       0.0       0.0       0.0
 5 O  px              4.9      64.8       2.0       0.0       0.5       0.1
 5 O  py             26.2       3.6      17.9       0.7       0.1       0.3
 5 O  dz2             0.0       0.0       0.2       0.0       0.0       0.0
 5 O  dyz             0.0       0.0       0.1       0.0       0.0       0.0
 5 O  dx2y2           0.0       0.0       0.1       0.0       0.0       0.0
 6 O  s               0.0       0.4       0.0       0.3       1.3       0.9
 6 O  pz             10.0       5.1       1.9       0.1       0.1       0.2
 6 O  px              3.2       1.1       0.8       0.0       0.4       0.4
 6 O  py             32.8       1.9       7.8       0.1       0.1       0.0
 6 O  dxy             0.0       0.0       0.3       0.0       0.0       0.1
 7 C  s               0.0       0.2       0.1       0.6      14.1       6.8
 7 C  pz              0.5       0.4       0.0       0.0       0.1       0.4
 7 C  px              0.3       0.9       0.0       0.7       6.5       0.8
 7 C  py              2.9       0.0       0.1       0.1       1.4       0.2
 7 C  dz2             0.1       0.0       0.1       0.0       0.0       0.1
 7 C  dx2y2           0.4       0.0       0.2       0.0       0.2       0.0
 7 C  dxy             0.4       0.0       0.1       0.0       0.2       0.1
 8 H  s               0.0       0.0       0.0       6.0       3.1      10.2
 9 H  s               0.0       0.0       0.0       4.8       3.6       1.7
10 H  s               0.0       0.0       0.1       4.3       4.2       3.1
11 H  s               0.0       0.1       0.1      11.1       0.4       0.1
12 H  s               0.0       0.0       0.4       8.5       1.0       6.2
13 H  s               0.0       0.1       0.6       7.7       0.0       3.3
14 H  s               0.1       0.3       0.0       4.9       0.1       0.4
15 H  s               0.0       0.1       5.6       4.0       2.2      22.7
16 H  s               0.0       1.0       0.2       6.8       3.1       3.1
17 H  s               5.0       0.0       1.6       0.8      18.3       6.4
18 H  s               1.4       0.4       0.1       0.5       7.5       1.6
19 H  s               1.4       0.0       0.2       0.8      16.5       4.9

                     36        37        38        39        40        41   
                   0.07147   0.08146   0.09562   0.10402   0.11528   0.11996
                   0.00000   0.00000   0.00000   0.00000   0.00000   0.00000
                  --------  --------  --------  --------  --------  --------
 0 C  s               2.0       0.0       1.3       0.1       0.5       8.1
 0 C  pz              3.4       0.7       0.6       0.5       1.3       1.1
 0 C  px              0.3       0.6       1.9       0.6       0.4       1.8
 0 C  py              0.3       3.3       1.0       0.3       0.1       0.6
 0 C  dz2             0.1       0.1       0.1       0.0       0.0       0.2
 0 C  dyz             0.2       0.0       0.0       0.0       0.1       0.0
 0 C  dx2y2           0.0       0.1       0.0       0.0       0.0       0.0
 0 C  dxy             0.0       0.1       0.0       0.1       0.1       0.5
 1 C  s               0.0       1.9       0.7       0.7       0.5       9.3
 1 C  pz              5.6       0.8       0.2       0.3       0.5       0.1
 1 C  px              0.1       0.1       0.3       0.0       0.2       0.4
 1 C  py              0.6       2.1       0.3       0.2       0.2       0.4
 1 C  dz2             0.2       0.0       0.0       0.0       0.0       0.1
 1 C  dyz             0.3       0.0       0.1       0.1       0.1       0.0
 1 C  dx2y2           0.1       0.5       0.1       0.0       0.0       0.0
 1 C  dxy             0.1       0.1       0.1       0.0       0.1       0.3
 2 C  s               0.2       2.2       4.7       0.1       0.3       2.7
 2 C  pz              5.0       0.3       0.4       0.1       0.0       0.2
 2 C  px              0.1       0.2       0.2       0.0       0.0       1.2
 2 C  py              0.8       5.0       0.9       0.2       0.1       0.3
 2 C  dz2             0.2       0.2       0.1       0.0       0.0       0.0
 2 C  dxz             0.0       0.0       0.0       0.1       0.1       0.0
 2 C  dyz             0.4       0.0       0.0       0.0       0.1       0.0
 2 C  dx2y2           0.1       0.3       0.0       0.0       0.0       0.4
 2 C  dxy             0.1       0.1       0.1       0.0       0.0       0.6
 3 C  s               1.3       0.2       0.2       0.1       0.1       3.9
 3 C  pz              5.5       1.1       0.1       0.8       2.4       0.2
 3 C  px              0.0       0.4       0.6       0.7       0.8       2.7
 3 C  py              0.1       1.2       0.6       0.2       0.2       3.1
 3 C  dz2             0.2       0.2       0.2       0.1       0.2       0.0
 3 C  dxz             0.1       0.0       0.0       0.0       0.1       0.2
 3 C  dyz             0.1       0.0       0.0       0.0       0.0       0.0
 3 C  dx2y2           0.0       0.2       0.0       0.0       0.0       0.4
 3 C  dxy             0.0       0.0       0.0       0.0       0.2       0.5
 4 C  s               0.0       1.5       0.0       1.3       1.3       0.7
 4 C  pz              0.0       0.7       0.9       0.2       0.8       0.2
 4 C  px              0.0       0.5       0.1       0.1       0.0       0.7
 4 C  py              0.2       0.1       0.0       0.5       0.0       0.5
 4 C  dz2             0.0       0.1       0.3       0.0       0.0       0.0
 4 C  dxz             0.1       0.2       0.0       0.0       0.0       0.0
 4 C  dyz             0.0       0.0       0.1       0.1       0.0       0.0
 4 C  dx2y2           0.0       0.6       0.3       0.2       0.1       0.0
 4 C  dxy             0.0       0.1       0.0       0.1       0.3       0.1
 5 O  s               0.0       0.1       0.1       0.1       0.4       0.1
 5 O  pz              0.1       0.0       0.1       0.0       0.0       0.0
 5 O  px              0.2       0.2       0.9       0.3       0.6       0.2
 5 O  py              0.0       0.1       0.2       0.2       0.0       0.1
 6 O  s               0.1       4.8       5.9       0.3       0.1       0.0
 6 O  pz              0.1       1.0       0.6       0.2       0.1       0.1
 6 O  px              0.1       1.7       6.2       0.0       0.2       0.1
 6 O  py              0.1       0.8       1.5       0.3       0.5       0.1
 6 O  dz2             0.0       0.1       0.2       0.0       0.0       0.0
 6 O  dxz             0.0       0.0       0.0       0.1       0.4       0.0
 6 O  dyz             0.0       0.0       0.0       0.1       0.0       0.0
 6 O  dx2y2           0.0       0.3       0.2       0.2       0.0       0.0
 6 O  dxy             0.0       0.1       0.2       0.1       0.1       0.0
 7 C  s               2.8       3.7       2.5       0.0       0.4       0.0
 7 C  pz              0.0       0.7       0.8       4.9      12.7       1.0
 7 C  px              0.3       9.5      26.7       2.5       1.1       0.5
 7 C  py              0.0       2.8       2.7      15.6       7.6       0.0
 7 C  dz2             0.0       0.6       0.6       0.3       0.9       0.0
 7 C  dxz             0.0       0.1       0.4       0.3       0.0       0.0
 7 C  dyz             0.0       0.1       0.0       0.6       0.3       0.0
 7 C  dx2y2           0.0       0.8       1.7       0.1       0.1       0.1
 7 C  dxy             0.0       0.6       1.9       0.2       0.0       0.0
 8 H  s               1.1       2.3       0.0       0.1       0.3      11.8
 9 H  s              10.8       3.4       0.4       1.8       3.6       1.0
10 H  s               2.0       5.5      10.3       1.4       0.1       5.3
11 H  s               8.4       7.9       1.5       1.7       1.9       4.6
12 H  s               8.2       4.4       0.5       0.1       0.3       8.9
13 H  s               9.4      10.1       4.3       0.1       0.4       2.2
14 H  s               6.5       7.1       6.8       0.7       0.1       3.6
15 H  s               1.5       0.0       0.7       0.0       0.2      13.9
16 H  s              14.8       2.3       0.4       1.7       5.0       2.0
17 H  s               1.7       0.2       0.2      14.0      22.8       0.3
18 H  s               2.1       0.4       2.1       8.9      27.0       1.8
19 H  s               2.0       2.4       2.5      35.1       1.8       0.7

                     42        43        44        45        46        47   
                   0.12745   0.13074   0.13948   0.15451   0.18099   0.19578
                   0.00000   0.00000   0.00000   0.00000   0.00000   0.00000
                  --------  --------  --------  --------  --------  --------
 0 C  s               0.1       0.3       0.0       0.0       0.7       0.1
 0 C  pz              3.4       6.8       2.0       7.1       0.6       0.1
 0 C  px              3.9       5.0       0.3       0.0       8.7       2.9
 0 C  py              6.8       2.0       0.4       0.6       6.8       2.9
 0 C  dz2             0.0       0.5       0.0       0.4       0.4       0.4
 0 C  dxz             0.0       0.0       1.0       0.0       0.1       0.0
 0 C  dyz             0.6       0.0       0.0       0.5       0.0       0.4
 0 C  dx2y2           0.2       0.1       0.0       0.0       0.4       0.0
 0 C  dxy             0.0       0.5       0.0       0.0       1.9       0.1
 1 C  s               2.4       0.5       0.0       0.1       1.5       0.3
 1 C  pz              0.3       0.8      14.6       0.1       2.0       0.2
 1 C  px              0.3       0.7       0.1       0.0       3.7      11.6
 1 C  py              0.4       0.5       2.8       0.0      10.8       2.3
 1 C  dz2             0.1       0.0       0.1       0.0       2.0       0.2
 1 C  dxz             0.0       0.1       0.0       1.6       0.0       0.6
 1 C  dyz             0.0       0.2       0.3       0.0       0.5       0.4
 1 C  dx2y2           0.4       0.2       0.0       0.0       0.1       0.0
 1 C  dxy             0.2       0.4       0.1       0.1       0.9       2.1
 2 C  s               1.9       3.7       0.1       0.7       0.4       0.3
 2 C  pz              0.2       0.2       3.7      12.4       0.5       0.1
 2 C  px              0.1       0.2       0.0       0.1       2.2      26.4
 2 C  py              0.3       1.4       0.3       2.5       4.0       0.0
 2 C  dz2             0.2       0.0       0.0       0.2       0.3       0.0
[...]
 1 C  dxz             0.3       2.8       0.1       0.0       0.1       0.0
 1 C  dyz             0.2       0.1       0.0       0.0       0.0       0.0
 1 C  dx2y2           1.1       4.4       0.0       0.0       0.0       0.0
 1 C  dxy             2.8      17.5       0.5       0.0       0.6       0.0
 2 C  s               0.5       0.1       0.0       0.0       0.0       0.0
 2 C  px              0.0       4.7       0.1       0.0       0.3       0.0
 2 C  dz2             1.1       0.0       0.0       0.1       0.0       0.0
 2 C  dxz             0.0       3.6       0.1       0.0       0.3       0.0
 2 C  dx2y2           4.4       1.1       0.1       0.1       0.3       0.1
 2 C  dxy             0.4      24.4       0.6       0.0       1.4       0.0
 3 C  s               0.1       0.5       0.0       0.0       0.1       0.3
 3 C  pz              0.1       0.0       0.0       0.0       0.1       0.0
 3 C  px              0.7       2.1       0.0       0.0       0.2       0.2
 3 C  py              0.0       0.2       0.0       0.0       0.0       0.0
 3 C  dz2             0.0       0.5       0.0       0.5       0.5       0.5
 3 C  dxz             0.8       0.9       0.0       1.0       1.0       0.0
 3 C  dyz             0.0       0.0       0.0       0.1       1.0       0.1
 3 C  dx2y2           2.3       0.9       0.5       0.2       1.5       0.7
 3 C  dxy             4.2       8.0       0.4       0.0       1.7       0.3
 4 C  s               0.2       0.6       0.0       0.0       0.2       1.1
 4 C  pz              0.1       0.1       0.0       0.1       0.4       1.7
 4 C  px              0.6       0.4       0.0       0.3       0.2       1.4
 4 C  py              0.2       0.0       0.1       0.7       0.1       0.2
 4 C  dz2             0.0       0.0       0.1       0.1       3.4       0.0
 4 C  dxz             0.0       0.1       0.1       3.8       0.8       1.9
 4 C  dyz             1.6       0.1       0.1       1.4       0.3       1.4
 4 C  dx2y2           1.4       0.1       0.0       0.2       7.9       0.4
 4 C  dxy             1.1       0.0       0.7       7.5       0.8       2.1
 5 O  s               0.0       0.0       0.0       0.3       1.0       0.4
 5 O  pz              0.0       0.0       0.0       0.1       0.2       0.2
 5 O  px              0.0       0.0       0.0       0.2       0.1       0.5
 5 O  py              0.0       0.0       0.0       0.1       0.3       0.1
 5 O  dz2             1.7       0.9       2.4       6.1       2.3       0.4
 5 O  dxz             6.6       0.2       1.7       0.4       3.5      19.8
 5 O  dyz             5.7       0.8       1.0       4.0       6.2       0.5
 5 O  dx2y2          37.2       0.9       1.9       0.7       1.6       0.0
 5 O  dxy            12.1       0.4       2.1      13.1       1.1       5.7
 6 O  s               0.2       0.0       0.0       0.1       0.5       7.1
 6 O  pz              0.4       0.1       0.2       0.0       0.7       0.8
 6 O  px              0.1       0.0       0.0       0.1       1.4       0.1
 6 O  py              0.1       0.0       0.6       0.8       0.2       0.2
 6 O  dz2             0.6       4.7       9.2       6.9      17.7       0.1
 6 O  dxz             0.0       1.4      14.4       2.1       3.0      10.6
 6 O  dyz             6.4       2.5       4.5      37.6       9.4       5.5
 6 O  dx2y2           0.0       0.5      28.0       0.3       0.6      27.1
 6 O  dxy             0.4       0.0      18.2       8.5      20.6       3.8
 7 C  s               0.1       0.0       0.0       0.1       0.6       0.5
 7 C  px              0.1       0.0       0.0       0.1       0.7       0.6
 7 C  py              0.0       0.0       0.3       0.0       0.0       0.2
 7 C  dz2             0.2       0.0       0.1       0.9       0.5       0.1
 7 C  dxz             0.3       0.6       1.8       0.6       0.5       0.8
 7 C  dyz             0.0       0.0       0.0       0.0       0.1       0.3
 7 C  dx2y2           0.3       0.0       3.6       0.1       3.2       0.5
 7 C  dxy             0.1       0.1       5.4       0.1       0.2       1.2

                    132       133       134       135   
                   3.11438   3.31275   3.48629   3.55445
                   0.00000   0.00000   0.00000   0.00000
                  --------  --------  --------  --------
 2 C  dx2y2           0.0       0.0       0.1       0.0
 2 C  dxy             0.2       0.1       0.0       0.1
 3 C  s               0.0       0.3       0.1       0.0
 3 C  px              0.0       0.1       0.3       0.1
 3 C  dz2             0.2       0.0       0.6       0.0
 3 C  dxz             0.0       0.5       0.0       0.3
 3 C  dx2y2           0.3       0.1       0.9       0.0
 3 C  dxy             0.6       0.2       0.4       0.2
 4 C  s               0.0       3.8       0.1       5.9
 4 C  pz              0.1       0.1       2.5       3.3
 4 C  px              0.0       1.4       0.6       0.2
 4 C  py              0.3       0.2       0.3       1.1
 4 C  dz2             9.7       2.5       1.1       6.4
 4 C  dxz             0.7       0.0      15.9       0.7
 4 C  dyz             7.0       0.3       0.2       4.2
 4 C  dx2y2           2.7       2.5       0.5       0.9
 4 C  dxy             0.6       1.2       3.8       0.5
 5 O  s               0.0       1.7       0.8       4.3
 5 O  pz              0.2       0.6       0.6       2.3
 5 O  px              0.0       0.1       0.5       0.3
 5 O  py              0.7       0.1       0.0       0.9
 5 O  dz2            25.8       8.6      11.0      14.1
 5 O  dxz             4.4       3.0       9.9       8.5
 5 O  dyz            16.0       6.5       2.8      26.7
 5 O  dx2y2          13.8       0.1       0.7       2.0
 5 O  dxy             0.1       0.6       4.1       2.7
 6 O  s               0.0       0.1       0.9       0.3
 6 O  pz              0.0       0.4       0.6       0.1
 6 O  px              0.0       2.2       2.7       0.0
 6 O  dz2             1.2      19.6       0.4       3.7
 6 O  dxz             2.2      12.8      27.9       1.0
 6 O  dyz             1.6       1.5       0.1       0.6
 6 O  dx2y2           1.3       6.9       5.0       6.2
 6 O  dxy             9.2      13.5       2.4       1.0
 7 C  s               0.0       1.1       0.2       0.0
 7 C  pz              0.0       0.1       0.0       0.0
 7 C  px              0.0       1.4       0.3       0.1
 7 C  py              0.0       0.3       0.0       0.0
 7 C  dz2             0.1       1.0       0.4       0.0
 7 C  dxz             0.2       0.9       0.1       0.4
 7 C  dyz             0.0       0.1       0.1       0.1
 7 C  dx2y2           0.3       1.3       0.4       0.0
 7 C  dxy             0.2       2.0       0.0       0.3


                      *****************************
                      * MAYER POPULATION ANALYSIS *
                      *****************************

  NA   - Mulliken gross atomic population
  ZA   - Total nuclear charge
  QA   - Mulliken gross atomic charge
  VA   - Mayer's total valence
  BVA  - Mayer's bonded valence
  FA   - Mayer's free valence

  ATOM       NA         ZA         QA         VA         BVA        FA
  0 C      6.2566     6.0000    -0.2566     4.0189     4.0189    -0.0000
  1 C      6.1729     6.0000    -0.1729     4.1481     4.1481    -0.0000
  2 C      6.2191     6.0000    -0.2191     4.1468     4.1468    -0.0000
  3 C      6.1259     6.0000    -0.1259     3.9145     3.9145    -0.0000
  4 C      5.8893     6.0000     0.1107     4.3956     4.3956     0.0000
  5 O      8.2076     8.0000    -0.2076     2.2915     2.2915    -0.0000
  6 O      8.2373     8.0000    -0.2373     2.2752     2.2752    -0.0000
  7 C      6.1228     6.0000    -0.1228     3.8570     3.8570     0.0000
  8 H      0.9022     1.0000     0.0978     0.9571     0.9571    -0.0000
  9 H      0.9002     1.0000     0.0998     0.9577     0.9577    -0.0000
 10 H      0.8980     1.0000     0.1020     0.9499     0.9499    -0.0000
 11 H      0.9174     1.0000     0.0826     0.9454     0.9454    -0.0000
 12 H      0.9165     1.0000     0.0835     0.9486     0.9486     0.0000
 13 H      0.9124     1.0000     0.0876     0.9484     0.9484    -0.0000
 14 H      0.8954     1.0000     0.1046     0.9680     0.9680     0.0000
 15 H      0.8917     1.0000     0.1083     0.9588     0.9588     0.0000
 16 H      0.9053     1.0000     0.0947     0.9745     0.9745     0.0000
 17 H      0.8798     1.0000     0.1202     0.9545     0.9545     0.0000
 18 H      0.8714     1.0000     0.1286     0.9872     0.9872     0.0000
 19 H      0.8782     1.0000     0.1218     0.9559     0.9559     0.0000

  Mayer bond orders larger than 0.100000
B(  0-C ,  1-C ) :   1.1612 B(  0-C ,  8-H ) :   0.9544 B(  0-C ,  9-H ) :   0.9541 
B(  0-C , 10-H ) :   0.9528 B(  1-C ,  2-C ) :   1.1354 B(  1-C , 11-H ) :   0.9238 
B(  1-C , 12-H ) :   0.9252 B(  2-C ,  3-C ) :   1.1263 B(  2-C , 13-H ) :   0.9290 
B(  2-C , 14-H ) :   0.9144 B(  3-C ,  4-C ) :   1.0146 B(  3-C , 15-H ) :   0.8843 
B(  3-C , 16-H ) :   0.9082 B(  4-C ,  5-O ) :   2.0599 B(  4-C ,  6-O ) :   1.2246 
B(  6-O ,  7-C ) :   0.9369 B(  7-C , 17-H ) :   0.9597 B(  7-C , 18-H ) :   0.9361 
B(  7-C , 19-H ) :   0.9610 

-------
TIMINGS
-------

Total SCF time: 0 days 0 hours 0 min 7 sec 

Total time                  ....       7.838 sec
Sum of individual times     ....       7.338 sec  ( 93.6%)

SCF preparation             ....       0.159 sec  (  2.0%)
Fock matrix formation       ....       6.338 sec  ( 80.9%)
  Startup                   ....       0.058 sec  (  0.9% of F)
  Split-RI-J                ....       2.154 sec  ( 34.0% of F)
  XC integration            ....       3.620 sec  ( 57.1% of F)
    Basis function eval.    ....       1.297 sec  ( 35.8% of XC)
    Density eval.           ....       0.441 sec  ( 12.2% of XC)
    XC-Functional eval.     ....       0.359 sec  (  9.9% of XC)
    XC-Potential eval.      ....       0.691 sec  ( 19.1% of XC)
Diagonalization             ....       0.000 sec  (  0.0%)
Density matrix formation    ....       0.199 sec  (  2.5%)
Total Energy calculation    ....       0.036 sec  (  0.5%)
Population analysis         ....       0.078 sec  (  1.0%)
Orbital Transformation      ....       0.047 sec  (  0.6%)
Orbital Orthonormalization  ....       0.000 sec  (  0.0%)
DIIS solution               ....       0.317 sec  (  4.0%)
  MO trafo                  ....       0.000 sec  (  0.0 % of DIIS)
  Orb grad                  ....       0.000 sec  (  0.0 % of DIIS)
  Energy W gradient         ....       0.000 sec  (  0.0 % of DIIS)
  DIIS error                ....       0.003 sec  (  0.9 % of DIIS)
  DIIS work                 ....       0.281 sec  ( 88.6 % of DIIS)
  Form Q                    ....       0.000 sec  (  0.0 % of DIIS)
  Form QpQm                 ....       0.000 sec  (  0.0 % of DIIS)
  Exp/Cayley                ....       0.000 sec  (  0.0 % of DIIS)
  Orb update                ....       0.000 sec  (  0.0 % of DIIS)
  Wake-sleep                ....       0.014 sec  (  4.3 % of DIIS)
SOSCF solution              ....       0.164 sec  (  2.1%)
  MO trafo                  ....       0.060 sec  ( 36.8 % of SOSCF)
  Orb grad                  ....       0.003 sec  (  1.8 % of SOSCF)
  Rot update                ....       0.066 sec  ( 40.1 % of SOSCF)
  Step                      ....       0.035 sec  ( 21.3 % of SOSCF)
Finished LeanSCF after   7.9 sec

Maximum memory used throughout the entire LEANSCF-calculation: 12.4 MB


-------------------------------------------------------------------------------
                          DFT DISPERSION CORRECTION                            
                                                                               
                                DFTD4 V3.4.0                                   
-------------------------------------------------------------------------------
The PBE functional is recognized
Active option DFTDOPT                   ...         5   

-------------------------   ----------------
Dispersion correction           -0.014388865
-------------------------   ----------------

------------------   -----------------
gCP correction             0.089638099
------------------   -----------------

-------------------------   --------------------
FINAL SINGLE POINT ENERGY      -385.452899999779
-------------------------   --------------------


------------------------------------------------------------------------------
                              ORCA PROPERTY CALCULATIONS
------------------------------------------------------------------------------

GBWName                                 ... sp.gbw
Number of atoms                         ...     20
Number of basis functions               ...    136
Max core memory                         ...   1024 MB

Electric properties:
Dipole moment                           ... YES
Quadrupole moment                       ...  NO
Static polarizability (Dipole/Dipole)   ...  NO
Static polarizability (Dipole/Quad.)    ...  NO
Static polarizability (Quad./Quad.)     ...  NO
Static polarizability (Velocity)        ...  NO

Atomic electric properties:
Dipole moment                           ...  NO
Quadrupole moment                       ...  NO
Static polarizability                   ...  NO

Choice of electric origin               ... Center of mass
Position of electric origin             ...    -0.000038    -0.000002     0.000008

General magnetic properties:
Magnetizability                         ...  NO

EPR properties:
g-Tensor (aka g-matrix)                 ...  NO
Zero-Field splitting spin-orbit         ...  NO
Zero-field splitting spin-spin          ...  NO
Hyperfine couplings                     ...  NO (   0 nuclei)
Quadrupole couplings                    ...  NO (   0 nuclei)
Contact density                         ...  NO (   0 nuclei)

NMR properties:
Chemical shifts                         ...  NO (   0 nuclei)
Spin-rotation constants                 ...  NO (   0 nuclei)
Spin-spin couplings                     ...  NO (   0 nuclei,    0 pairs)

Choice of magnetic origin               ... GIAO
Position of magnetic origin             ...     0.000000     0.000000     0.000000

Properties with geometric perturbations:
SCF Hessian                             ...  NO
IR spectrum                             ...  NO
VCD spectrum                            ...  NO
X-ray spectroscopy properties:
SCF XES/XAS/RIXS spectra                ...  NO


-------------
DIPOLE MOMENT
-------------

Method             : SCF
Type of density    : Electron Density
Multiplicity       :   1
Irrep              :   0
Energy             :  -385.5281492339119040 Eh
Relativity type    : 
Basis              : AO
                                X                 Y                 Z
Electronic contribution:      9.469002478      -0.139000716      -1.476601910
Nuclear contribution   :     -9.282179413      -0.111481583       2.069773955
                        -----------------------------------------
Total Dipole Moment    :      0.186823064      -0.250482299       0.593172046
                        -----------------------------------------
Magnitude (a.u.)       :      0.670445610
Magnitude (Debye)      :      1.704137309



--------------------
Rotational spectrum 
--------------------
 
Rotational constants in cm-1:             0.223478             0.025081             0.023818 
Rotational constants in MHz :          6699.700242           751.912863           714.046297 

Dipole components along the rotational axes: 
x,y,z [a.u.] :     0.180747    -0.638619     0.094836 
x,y,z [Debye]:     0.459421    -1.623240     0.241054 

 

Dipole moment calculation done in   0.0 sec 

Maximum memory used throughout the entire PROP-calculation: 7.8 MB

--------------------------------
SUGGESTED CITATIONS FOR THIS RUN
--------------------------------

Below you find a list of papers that are relevant to this ORCA run
We neither can nor want to force you to cite these papers, but we appreciate if you do
You receive ORCA, which is the product of decades of hard work by many enthusiastic individuals, for free
The only thing we kindly ask in return is that you cite our papers,
We deeply appreciate it, if you show your appreciation for ORCA by not just citing the generic ORCA reference.

Please note that relegating all ORCA citations to the supporting information does *not* help us.
SI sections are not indexed - citations you put there will not count into any citation statistics
But we need these citations in order to attract the funding resources that allow us to do what we are doing

Therefore, if you are a happy ORCA user, please consider citing a few of the papers listed below in the main body of your paper

In addition to the list printed below, the program has created the file sp.bibtex that contains the list in bibtex format
You can import this file easily into all common literature databanks and citation aid programs


List of essential papers. We consider these as the minimum necessary citations

  1. Neese,F.
     Software update: the ORCA program system, version 5.0
     WIRES Comput. Molec. Sci., 2022 12(1)e1606
     doi.org/10.1002/wcms.1606

List of papers to cite with high priority. The work reported in these papers was absolutely
necessary for this run to complete.
Our perspective: the developers of density functionals and basis sets usually get cited in chemistry papers
Good! But without the algorithms to do something with them, the functionals or basis sets would not do anything.
Hence, in our opinion, the algorithm design and method developments papers are equally worthy of getting cited

  1. Neese,F.
     An improvement of the resolution of the identity approximation for the formation of the Coulomb matrix
     J. Comp. Chem., 2003 24(14)1740-1747
     doi.org/10.1002/jcc.10318
  2. Neese,F.
     The SHARK Integral Generation and Digestion System
     J. Comp. Chem., 2022  1-16
     doi.org/10.1002/jcc.26942
  3. Caldeweyher,E.; Bannwarth,C.; Grimme,S.
     Extension of the D3 dispersion coefficient model
     J. Chem. Phys., 2017 147 034112-XXXX
     doi.org/10.1063/1.4993215
  4. Caldeweyher,E.; Ehlert,S.; Hansen,A.; Neugebauer,H.; Spicher,S.; Bannwarth,C.; Grimme,S.
     A generally applicable atomic-charge dependent London dispersion correction
     J. Chem. Phys., 2019 150 154122-XXXX
     doi.org/10.1063/1.5090222
  5. Caldeweyher,E.; Mewes,J.; Ehlert,S.; Grimme,S.
     Extension and evaluation of the D4 London-dispersion model for periodic systems
     Phys. Chem. Chem. Phys., 2020 22(16)8499-8512
     doi.org/10.1039/D0CP00502A

List of suggested additional citations. These are papers that are important in the 'surrounding' of 
of this run, or papers that preceded the highly important papers. If you like your results we are grateful for a citation.

  1. Neese,F.
     The ORCA program system
     WIRES Comput. Molec. Sci., 2012 2(1)73-78
     doi.org/10.1002/wcms.81
  2. Neese,F.
     Software update: the ORCA program system, version 4.0
     WIRES Comput. Molec. Sci., 2018 8(1)1-6
     doi.org/10.1002/wcms.1327
  3. Neese,F.; Wennmohs,F.; Becker,U.; Riplinger,C.
     The ORCA quantum chemistry program package
     J. Chem. Phys., 2020 152 Art. No. L224108
     doi.org/10.1063/5.0004608

List of optional additional citations

  1. Neese,F.
     Approximate second-order SCF convergence for spin unrestricted wavefunctions
     Chem. Phys. Lett., 2000 325(1-3)93-98
     doi.org/10.1016/s0009-2614(00)00662-x

Timings for individual modules:

Sum of individual times          ...        9.538 sec (=   0.159 min)
Startup calculation              ...        0.749 sec (=   0.012 min)   7.9 %
SCF iterations                   ...        8.686 sec (=   0.145 min)  91.1 %
Property calculations            ...        0.103 sec (=   0.002 min)   1.1 %
                             ****ORCA TERMINATED NORMALLY****
TOTAL RUN TIME: 0 days 0 hours 0 minutes 10 seconds 330 msec
