      -----------------------------------------------------------      
     |                   =====================                   |     
     |                           x T B                           |     
     |                   =====================                   |     
     |                         S. Grimme                         |     
     |          Mulliken Center for Theoretical Chemistry        |     
     |                    University of Bonn                     |     
      -----------------------------------------------------------      

   * xtb version 6.7.1 (edcfbbe) compiled by 'albert@albert-system' on 2024-07-22

   xtb is free software: you can redistribute it and/or modify it under
   the terms of the GNU Lesser General Public License as published by
   the Free Software Foundation, either version 3 of the License, or
   (at your option) any later version.
   
   xtb is distributed in the hope that it will be useful,
   but WITHOUT ANY WARRANTY; without even the implied warranty of
   MERCHANTABILITY or FITNESS FOR A PARTICULAR PURPOSE.  See the
   GNU Lesser General Public License for more details.
   
   Cite this work as:
   * C. Bannwarth, E. Caldeweyher, S. Ehlert, A. Hansen, P. Pracht,
     J. Seibert, S. Spicher, S. Grimme, WIREs Comput. Mol. Sci., 2020, 11,
     e01493. DOI: 10.1002/wcms.1493
   
   for GFN2-xTB:
   * C. Bannwarth, S. Ehlert and S. Grimme., J. Chem. Theory Comput., 2019,
     15, 1652-1671. DOI: 10.1021/acs.jctc.8b01176
   for GFN1-xTB:
   * S. Grimme, C. Bannwarth, P. Shushkov, J. Chem. Theory Comput., 2017,
     13, 1989-2009. DOI: 10.1021/acs.jctc.7b00118
   for GFN0-xTB:
   * P. Pracht, E. Caldeweyher, S. Ehlert, S. Grimme, ChemRxiv, 2019, preprint.
     DOI: 10.26434/chemrxiv.8326202.v1
   for GFN-FF:
   * S. Spicher and S. Grimme, Angew. Chem. Int. Ed., 2020, 59, 15665-15673.
     DOI: 10.1002/anie.202004239
   
   for ALPB and GBSA implicit solvation:
   * S. Ehlert, M. Stahn, S. Spicher, S. Grimme, J. Chem. Theory Comput.,
     2021, 17, 4250-4261. DOI: 10.1021/acs.jctc.1c00471
   
   for ddCOSMO and CPCM-X implicit solvation:
   * M. Stahn, S. Ehlert, S. Grimme, J. Phys. Chem. A,
     2023, XX, XXXX-XXXX. DOI: 10.1021/acs.jpca.3c04382
   
   for DFT-D4:
   * E. Caldeweyher, C. Bannwarth and S. Grimme, J. Chem. Phys., 2017,
     147, 034112. DOI: 10.1063/1.4993215
   * E. Caldeweyher, S. Ehlert, A. Hansen, H. Neugebauer, S. Spicher,
     C. Bannwarth and S. Grimme, J. Chem. Phys., 2019, 150, 154122.
     DOI: 10.1063/1.5090222
   * E. Caldeweyher, J.-M. Mewes, S. Ehlert and S. Grimme, Phys. Chem. Chem. Phys.
     2020, 22, 8499-8512. DOI: 10.1039/D0CP00502A
   
   for sTDA-xTB:
   * S. Grimme and C. Bannwarth, J. Chem. Phys., 2016, 145, 054103.
     DOI: 10.1063/1.4959605
   
   in the mass-spec context:
   * V. Asgeirsson, C. Bauer and S. Grimme, Chem. Sci., 2017, 8, 4879.
     DOI: 10.1039/c7sc00601b
   * J. Koopman and S. Grimme, ACS Omega 2019, 4, 12, 15120-15133.
     DOI: 10.1021/acsomega.9b02011
   
   for metadynamics refer to:
   * S. Grimme, J. Chem. Theory Comput., 2019, 155, 2847-2862
     DOI: 10.1021/acs.jctc.9b00143
   
   for SPH calculations refer to:
   * S. Spicher and S. Grimme, J. Chem. Theory Comput., 2021, 17, 1701-1714
     DOI: 10.1021/acs.jctc.0c01306
   
   for ONIOM refer to:
   * C. Plett, A. Katbashev, S. Ehlert, S. Grimme, M. Bursch,
     Phys. Chem. Chem. Phys., 2023, 25, 17860-17868. DOI: 10.1039/D3CP02178E
   
   for DIPRO refer to:
   * J. Kohn, N. Gildemeister, S. Grimme, D. Fazzi, A. Hansen,
     J. Chem. Phys., 2023, just accepted.
   
   for PTB refer to:
   * S. Grimme, M. Mueller, A. Hansen, J. Chem. Phys., 2023, 158, 124111.
     DOI: 10.1063/5.0137838
   
   with help from (in alphabetical order)
   P. Atkinson, C. Bannwarth, F. Bohle, G. Brandenburg, E. Caldeweyher
   M. Checinski, S. Dohm, S. Ehlert, S. Ehrlich, I. Gerasimov, C. Hölzer
   A. Katbashev, J. Kohn, J. Koopman, C. Lavigne, S. Lehtola, F. März, M. Müller,
   F. Musil, H. Neugebauer, J. Pisarek, C. Plett, P. Pracht, F. Pultar,
   J. Seibert, P. Shushkov, S. Spicher, M. Stahn, M. Steiner, T. Strunk,
   J. Stückrath, T. Rose, and J. Unsleber
   
 * started run on 2025/04/11 at 16:44:07.074     
   ID    Z sym.   atoms
    1    6 C      1-4, 7, 8
    2    8 O      5, 6
    3    1 H      9-20

           -------------------------------------------------
          |                Calculation Setup                |
           -------------------------------------------------

          program call               : /srv/scratch/z5358697/.xtb/bin/xtb xtb_rrho.coord --gfn2 --bhess vtight --chrg 0 --enso --norestart -I rrho-xcontrol-inp --parallel 1 --alpb water
          hostname                   : k061
          coordinate file            : xtb_rrho.coord
          omp threads                :                     1


           -------------------------------------------------
          |                 G F N 2 - x T B                 |
           -------------------------------------------------

        Reference                      10.1021/acs.jctc.8b01176
      * Hamiltonian:
        H0-scaling (s, p, d)           1.850000    2.230000    2.230000
        zeta-weighting                 0.500000
      * Dispersion:
        s8                             2.700000
        a1                             0.520000
        a2                             5.000000
        s9                             5.000000
      * Repulsion:
        kExp                           1.500000    1.000000
        rExp                           1.000000
      * Coulomb:
        alpha                          2.000000
        third order                    shell-resolved
        anisotropic                    true
        a3                             3.000000
        a5                             4.000000
        cn-shift                       1.200000
        cn-exp                         4.000000
        max-rad                        5.000000

      * Solvation model:               ALPB
        Solvent                        water
        Parameter file                 internal GFN2-xTB/ALPB
        Dielectric constant                8.0200E+01
        Reference state                gsolv [1 M gas/solution]
        Free energy shift                  1.0808E-03 Eh       6.7819E-01 kcal/mol
        Temperature                        2.9815E+02 K
        Density                            1.0000E+00 kg/L
        Solvent mass                       1.8000E+01 g/mol
        Interaction kernel             P16
        Born radius scaling (c1)           1.4744E+00
        Born radii integrator          GBOBC
        Born offset                        0.0000E+00 a0       0.0000E+00 AA
        H-bond correction              true
        Ion screening                  false
        Surface tension                    1.0000E-05 Eh       1.5569E+01 dyn/cm
        Grid points                               974 per atom

          ...................................................
          :                      SETUP                      :
          :.................................................:
          :  # basis functions                  44          :
          :  # atomic orbitals                  44          :
          :  # shells                           28          :
          :  # electrons                        48          :
          :  max. iterations                   250          :
          :  Hamiltonian                  GFN2-xTB          :
          :  restarted?                      false          :
          :  GBSA solvation                   true          :
          :  PC potential                    false          :
          :  electronic temp.          300.0000000     K    :
          :  accuracy                    1.0000000          :
          :  -> integral cutoff          0.2500000E+02      :
          :  -> integral neglect         0.1000000E-07      :
          :  -> SCF convergence          0.1000000E-05 Eh   :
          :  -> wf. convergence          0.1000000E-03 e    :
          :  Broyden damping             0.4000000          :
          :  net charge                          0          :
          :  unpaired electrons                  0          :
          ...................................................

 iter      E             dE          RMSdq      gap      omega  full diag
   1    -27.3580990 -0.273581E+02  0.396E+00    5.63       0.0  T
   2    -27.4215501 -0.634511E-01  0.195E+00    4.67       1.0  T
   3    -27.4235190 -0.196888E-02  0.102E+00    5.01       1.0  T
   4    -27.4250754 -0.155643E-02  0.167E-01    4.78       1.0  T
   5    -27.4252967 -0.221270E-03  0.675E-02    4.83       1.0  T
   6    -27.4252984 -0.171344E-05  0.229E-02    4.83       1.0  T
   7    -27.4252994 -0.969101E-06  0.397E-03    4.83       5.6  T
   8    -27.4252994 -0.242340E-07  0.220E-03    4.83      10.1  T
   9    -27.4252994 -0.802443E-08  0.362E-04    4.83      61.8  T
  10    -27.4252994 -0.338780E-09  0.202E-04    4.83     110.8  T

   *** convergence criteria satisfied after 10 iterations ***

         #    Occupation            Energy/Eh            Energy/eV
      -------------------------------------------------------------
         1        2.0000           -0.7446568             -20.2631
       ...           ...                  ...                  ...
        18        2.0000           -0.4676080             -12.7243
        19        2.0000           -0.4628575             -12.5950
        20        2.0000           -0.4524335             -12.3113
        21        2.0000           -0.4468024             -12.1581
        22        2.0000           -0.4442211             -12.0879
        23        2.0000           -0.4316858             -11.7468
        24        2.0000           -0.4224984             -11.4968 (HOMO)
        25                         -0.2450118              -6.6671 (LUMO)
        26                         -0.0274178              -0.7461
        27                          0.0915610               2.4915
        28                          0.1067525               2.9049
        29                          0.1168509               3.1797
       ...                                ...                  ...
        44                          0.5852926              15.9266
      -------------------------------------------------------------
                  HL-Gap            0.1774866 Eh            4.8297 eV
             Fermi-level           -0.3337551 Eh           -9.0819 eV

 SCC (total)                   0 d,  0 h,  0 min,  0.075 sec
 SCC setup                      ...        0 min,  0.002 sec (  3.207%)
 Dispersion                     ...        0 min,  0.000 sec (  0.266%)
 classical contributions        ...        0 min,  0.000 sec (  0.067%)
 integral evaluation            ...        0 min,  0.003 sec (  4.021%)
 iterations                     ...        0 min,  0.065 sec ( 86.273%)
 molecular gradient             ...        0 min,  0.004 sec (  5.960%)
 printout                       ...        0 min,  0.000 sec (  0.182%)

         :::::::::::::::::::::::::::::::::::::::::::::::::::::
         ::                     SUMMARY                     ::
         :::::::::::::::::::::::::::::::::::::::::::::::::::::
         :: total energy             -27.121256738495 Eh    ::
         :: total w/o Gsasa/hb       -27.121423650962 Eh    ::
         :: gradient norm              0.035328600762 Eh/a0 ::
         :: HOMO-LUMO gap              4.829657183942 eV    ::
         ::.................................................::
         :: SCC energy               -27.425283736901 Eh    ::
         :: -> isotropic ES            0.059086814161 Eh    ::
         :: -> anisotropic ES          0.001230361850 Eh    ::
         :: -> anisotropic XC          0.008892492668 Eh    ::
         :: -> dispersion             -0.011429911435 Eh    ::
         :: -> Gsolv                  -0.008775510499 Eh    ::
         ::    -> Gelec               -0.008942422966 Eh    ::
         ::    -> Gsasa                0.001280959384 Eh    ::
         ::    -> Ghb                 -0.002194806615 Eh    ::
         ::    -> Gshift               0.001080759698 Eh    ::
         :: repulsion energy           0.304026998406 Eh    ::
         :: add. restraining           0.000000000000 Eh    ::
         :: total charge              -0.000000000000 e     ::
         :::::::::::::::::::::::::::::::::::::::::::::::::::::

metadynamics with 1 initial structures loaded
           -------------------------------------------------
          |           Optimal kpush determination           |
           -------------------------------------------------
      ----------------------------------------------------------- 
     |                   =====================                   |
     |                        A N C O P T                        |
     |                   =====================                   |
     |               Approximate Normal Coordinate               |
     |                Rational Function Optimizer                |
      ----------------------------------------------------------- 
target rmsd / Å         0.100000
unbiased initial rmsd   0.106812
 
iter. min.        max.        rmsd       kpush
      ----------------------------------------------------------- 
     |                   =====================                   |
     |                        A N C O P T                        |
     |                   =====================                   |
     |               Approximate Normal Coordinate               |
     |                Rational Function Optimizer                |
      ----------------------------------------------------------- 
 1    0.000000    0.909091    0.010088   -0.454545
      ----------------------------------------------------------- 
     |                   =====================                   |
     |                        A N C O P T                        |
     |                   =====================                   |
     |               Approximate Normal Coordinate               |
     |                Rational Function Optimizer                |
      ----------------------------------------------------------- 
 2    0.000000    0.454545    0.012890   -0.227273
      ----------------------------------------------------------- 
     |                   =====================                   |
     |                        A N C O P T                        |
     |                   =====================                   |
     |               Approximate Normal Coordinate               |
     |                Rational Function Optimizer                |
      ----------------------------------------------------------- 
 3    0.000000    0.227273    0.016107   -0.113636
      ----------------------------------------------------------- 
     |                   =====================                   |
     |                        A N C O P T                        |
     |                   =====================                   |
     |               Approximate Normal Coordinate               |
     |                Rational Function Optimizer                |
      ----------------------------------------------------------- 
 4    0.000000    0.113636    0.019377   -0.056818
      ----------------------------------------------------------- 
     |                   =====================                   |
     |                        A N C O P T                        |
     |                   =====================                   |
     |               Approximate Normal Coordinate               |
     |                Rational Function Optimizer                |
      ----------------------------------------------------------- 
 5    0.000000    0.056818    0.023009   -0.028409
      ----------------------------------------------------------- 
     |                   =====================                   |
     |                        A N C O P T                        |
     |                   =====================                   |
     |               Approximate Normal Coordinate               |
     |                Rational Function Optimizer                |
      ----------------------------------------------------------- 
 6    0.000000    0.028409    0.027004   -0.014205
      ----------------------------------------------------------- 
     |                   =====================                   |
     |                        A N C O P T                        |
     |                   =====================                   |
     |               Approximate Normal Coordinate               |
     |                Rational Function Optimizer                |
      ----------------------------------------------------------- 
 7    0.000000    0.014205    0.031867   -0.007102
      ----------------------------------------------------------- 
     |                   =====================                   |
     |                        A N C O P T                        |
     |                   =====================                   |
     |               Approximate Normal Coordinate               |
     |                Rational Function Optimizer                |
      ----------------------------------------------------------- 
 8    0.000000    0.007102    0.037570   -0.003551
      ----------------------------------------------------------- 
     |                   =====================                   |
     |                        A N C O P T                        |
     |                   =====================                   |
     |               Approximate Normal Coordinate               |
     |                Rational Function Optimizer                |
      ----------------------------------------------------------- 
 9    0.000000    0.003551    0.047559   -0.001776
      ----------------------------------------------------------- 
     |                   =====================                   |
     |                        A N C O P T                        |
     |                   =====================                   |
     |               Approximate Normal Coordinate               |
     |                Rational Function Optimizer                |
      ----------------------------------------------------------- 
10    0.000000    0.001776    0.059305   -0.000888
final kpush: -0.000888
           -------------------------------------------------
          |            Biased Numerical Hessian             |
           -------------------------------------------------
kpush                :  -0.00089
alpha                :   1.00000
step length          :   0.00500
SCC accuracy         :   0.30000
Hessian scale factor :   1.00000
frozen atoms in %    :   0.00000    0
RMS gradient         :   0.00017
estimated CPU  time      0.02 min
estimated wall time      0.02 min

writing file <hessian>.

 projected vibrational frequencies (cm⁻¹)
eigval :       -0.00    -0.00     0.00     0.00     0.00     0.00
eigval :       30.56    50.99    81.41    82.16   199.83   200.30
eigval :      232.89   281.96   322.01   374.65   444.01   630.61
eigval :      716.43   786.39   814.10   872.75   914.43   926.29
eigval :      971.13  1048.33  1073.78  1088.36  1095.18  1107.41
eigval :     1149.69  1190.30  1221.50  1253.90  1257.31  1267.75
eigval :     1313.70  1337.60  1393.88  1408.53  1429.86  1438.45
eigval :     1470.93  1484.35  1487.14  1492.40  1495.13  1698.80
eigval :     2947.24  2972.31  2986.42  2990.88  3003.50  3013.06
eigval :     3038.50  3038.83  3041.54  3048.35  3049.49  3062.88
           -------------------------------------------------
          |                Property Printout                |
           -------------------------------------------------

    * Orbital Energies and Occupations

         #    Occupation            Energy/Eh            Energy/eV
      -------------------------------------------------------------
         1        2.0000           -0.7501626             -20.4130
       ...           ...                  ...                  ...
        12        2.0000           -0.5184273             -14.1071
        13        2.0000           -0.5152361             -14.0203
        14        2.0000           -0.5106577             -13.8957
        15        2.0000           -0.4956789             -13.4881
        16        2.0000           -0.4862168             -13.2306
        17        2.0000           -0.4713899             -12.8272
        18        2.0000           -0.4678253             -12.7302
        19        2.0000           -0.4631888             -12.6040
        20        2.0000           -0.4507447             -12.2654
        21        2.0000           -0.4464866             -12.1495
        22        2.0000           -0.4440990             -12.0845
        23        2.0000           -0.4323753             -11.7655
        24        2.0000           -0.4210969             -11.4586 (HOMO)
        25                         -0.2392571              -6.5105 (LUMO)
        26                         -0.0041607              -0.1132
        27                          0.1022340               2.7819
        28                          0.1088926               2.9631
        29                          0.1136866               3.0936
        30                          0.1326117               3.6085
        31                          0.1421679               3.8686
        32                          0.1535619               4.1786
        33                          0.1604125               4.3650
        34                          0.1658544               4.5131
        35                          0.1795104               4.8847
       ...                                ...                  ...
        44                          0.6161190              16.7655
      -------------------------------------------------------------
                  HL-Gap            0.1818398 Eh            4.9481 eV
             Fermi-level           -0.3301770 Eh           -8.9846 eV

     #   Z          covCN         q      C6AA      α(0)
     1   6 C        3.753    -0.119    22.836     6.814
     2   6 C        3.803    -0.048    21.438     6.592
     3   6 C        3.805    -0.100    22.412     6.740
     4   6 C        2.714     0.366    20.797     7.465
     5   8 O        0.856    -0.489    23.534     6.504
     6   8 O        1.703    -0.272    18.505     5.808
     7   6 C        3.693     0.067    19.622     6.338
     8   6 C        3.750    -0.126    22.987     6.838
     9   1 H        0.925     0.050     2.314     2.379
    10   1 H        0.925     0.051     2.303     2.373
    11   1 H        0.925     0.048     2.349     2.397
    12   1 H        0.924     0.044     2.396     2.420
    13   1 H        0.924     0.041     2.431     2.438
    14   1 H        0.925     0.078     2.003     2.213
    15   1 H        0.925     0.079     1.992     2.207
    16   1 H        0.924     0.082     1.963     2.191
    17   1 H        0.924     0.058     2.217     2.328
    18   1 H        0.925     0.066     2.128     2.281
    19   1 H        0.925     0.071     2.072     2.251
    20   1 H        0.925     0.052     2.291     2.367

 Mol. C6AA /au·bohr⁶  :       2997.477997
 Mol. C8AA /au·bohr⁸  :      63829.584653
 Mol. α(0) /au        :         80.946088


Wiberg/Mayer (AO) data.
largest (>0.10) Wiberg bond orders for each atom

 ---------------------------------------------------------------------------
     #   Z sym  total        # sym  WBO       # sym  WBO       # sym  WBO
 ---------------------------------------------------------------------------
     1   6 C    3.993 --     2 C    1.017    11 H    0.987     9 H    0.987
                            10 H    0.984
     2   6 C    3.992 --     1 C    1.017    12 H    0.979    13 H    0.979
                             3 C    0.975
     3   6 C    3.988 --     4 C    0.979     2 C    0.975    15 H    0.970
                            14 H    0.964
     4   6 C    3.904 --     5 O    1.693     6 O    1.168     3 C    0.979
     5   8 O    1.972 --     4 C    1.693     6 O    0.171
     6   8 O    2.319 --     4 C    1.168     7 C    0.919     5 O    0.171
     7   6 C    3.911 --     8 C    1.013    17 H    0.970    16 H    0.969
                             6 O    0.919
     8   6 C    3.989 --     7 C    1.013    20 H    0.986    18 H    0.985
                            19 H    0.980
     9   1 H    0.997 --     1 C    0.987
    10   1 H    0.997 --     1 C    0.984
    11   1 H    0.998 --     1 C    0.987
    12   1 H    0.998 --     2 C    0.979
    13   1 H    0.998 --     2 C    0.979
    14   1 H    0.994 --     3 C    0.964
    15   1 H    0.994 --     3 C    0.970
    16   1 H    0.993 --     7 C    0.969
    17   1 H    0.997 --     7 C    0.970
    18   1 H    0.996 --     8 C    0.985
    19   1 H    0.994 --     8 C    0.980
    20   1 H    0.997 --     8 C    0.986
 ---------------------------------------------------------------------------

Topologies differ in total number of bonds
Writing topology from bond orders to xtbtopo.mol

molecular dipole:
                 x           y           z       tot (Debye)
 q only:        0.049      -1.067      -0.525
   full:        0.066      -1.013      -0.572       2.962
molecular quadrupole (traceless):
                xx          xy          yy          xz          yz          zz
 q only:       10.442      -1.176      -7.157       0.318      -3.476      -3.285
  q+dip:        8.325      -1.604      -6.109      -0.418      -3.521      -2.216
   full:        8.794      -1.307      -6.506      -0.245      -4.411      -2.287

           -------------------------------------------------
          |                Geometry Summary                 |
           -------------------------------------------------

      molecular mass/u    :      116.1585142
   center of mass at/Å    :        0.0006363       0.0060108      -0.0052372
  moments of inertia/u·Å² :        0.1246455E+03   0.5170324E+03   0.5529702E+03
rotational constants/cm⁻¹ :        0.1352446E+00   0.3260460E-01   0.3048561E-01

 * 18 selected distances

     #   Z          #   Z                                           value/Å
     1   6 C        2   6 C                                       1.5231844
     2   6 C        3   6 C                                       1.5362034 (max)
     4   6 C        5   8 O                                       1.2139948
     4   6 C        6   8 O                                       1.3267525
     6   8 O        7   6 C                                       1.4376868
     7   6 C        8   6 C                                       1.5209910
     1   6 C        9   1 H                                       1.0868498
     1   6 C       10   1 H                                       1.0865176
     1   6 C       11   1 H                                       1.0869261
     2   6 C       12   1 H                                       1.0917024
     2   6 C       13   1 H                                       1.0920383
     3   6 C       14   1 H                                       1.0898415
     3   6 C       15   1 H                                       1.0889524
     7   6 C       16   1 H                                       1.0903777
     7   6 C       17   1 H                                       1.0942521
     8   6 C       18   1 H                                       1.0866116
     8   6 C       19   1 H                                       1.0850562 (min)
     8   6 C       20   1 H                                       1.0878437

 * 3 distinct bonds (by element types)

   Z      Z             #   av. dist./Å        max./Å        min./Å
   1 H    6 C          12     1.0889141     1.0942521     1.0850562
   6 C    6 C           3     1.5267929     1.5362034     1.5209910
   6 C    8 O           3     1.3261447     1.4376868     1.2139948

           -------------------------------------------------
          |               Frequency Printout                |
           -------------------------------------------------
 projected vibrational frequencies (cm⁻¹)
eigval :       -0.00    -0.00     0.00     0.00     0.00     0.00
eigval :       30.56    50.99    81.41    82.16   199.83   200.30
eigval :      232.89   281.96   322.01   374.65   444.01   630.61
eigval :      716.43   786.39   814.10   872.75   914.43   926.29
eigval :      971.13  1048.33  1073.78  1088.36  1095.18  1107.41
eigval :     1149.69  1190.30  1221.50  1253.90  1257.31  1267.75
eigval :     1313.70  1337.60  1393.88  1408.53  1429.86  1438.45
eigval :     1470.93  1484.35  1487.14  1492.40  1495.13  1698.80
eigval :     2947.24  2972.31  2986.42  2990.88  3003.50  3013.06
eigval :     3038.50  3038.83  3041.54  3048.35  3049.49  3062.88
 reduced masses (amu)
   1: 12.00   2: 10.61   3: 12.22   4: 11.32   5: 10.59   6: 10.77   7: 10.22   8:  8.76
   9: 10.23  10:  7.89  11:  9.36  12:  4.30  13:  2.00  14:  8.61  15:  9.68  16: 10.53
  17: 10.75  18: 11.14  19: 11.97  20:  2.50  21:  3.72  22:  7.11  23:  5.43  24:  7.24
  25:  8.89  26:  7.28  27:  8.31  28:  8.88  29:  7.60  30:  7.39  31:  6.62  32:  8.74
  33:  4.79  34:  3.40  35:  4.34  36:  2.64  37:  3.45  38:  4.62  39:  3.11  40:  3.14
  41:  2.01  42:  2.19  43:  1.51  44:  1.62  45:  1.83  46:  1.53  47:  1.58  48: 13.30
  49:  1.72  50:  1.97  51:  1.47  52:  1.74  53:  1.60  54:  1.91  55:  1.81  56:  1.94
  57:  1.89  58:  1.31  59:  1.63  60:  1.74
 IR intensities (km·mol⁻¹)
   1:  0.78   2:  0.54   3:  0.16   4:  0.06   5:  1.48   6:  0.64   7:  2.84   8:  2.19
   9:  0.27  10:  0.38  11:  4.72  12:  3.92  13:  0.02  14: 11.41  15:  3.10  16:  5.26
  17: 10.98  18: 25.01  19: 21.08  20:  2.92  21: 22.51  22: 14.37  23:  2.60  24:  1.04
  25:  3.51  26: 10.30  27:148.86  28:  0.24  29: 33.77  30: 17.23  31: 55.12  32:297.51
  33: 59.97  34: 33.33  35: 62.32  36: 32.61  37: 10.47  38: 21.75  39:  5.89  40:  1.25
  41:  4.15  42:  6.55  43:  6.58  44:  2.73  45:  0.95  46:  2.58  47:  1.15  48:663.41
  49: 29.88  50: 46.91  51: 33.58  52: 15.69  53: 25.75  54: 32.32  55: 68.05  56: 42.27
  57: 61.31  58: 33.16  59: 28.83  60: 22.77
 Raman intensities (Ä⁴*amu⁻¹)
   1:  0.00   2:  0.00   3:  0.00   4:  0.00   5:  0.00   6:  0.00   7:  0.00   8:  0.00
   9:  0.00  10:  0.00  11:  0.00  12:  0.00  13:  0.00  14:  0.00  15:  0.00  16:  0.00
  17:  0.00  18:  0.00  19:  0.00  20:  0.00  21:  0.00  22:  0.00  23:  0.00  24:  0.00
  25:  0.00  26:  0.00  27:  0.00  28:  0.00  29:  0.00  30:  0.00  31:  0.00  32:  0.00
  33:  0.00  34:  0.00  35:  0.00  36:  0.00  37:  0.00  38:  0.00  39:  0.00  40:  0.00
  41:  0.00  42:  0.00  43:  0.00  44:  0.00  45:  0.00  46:  0.00  47:  0.00  48:  0.00
  49:  0.00  50:  0.00  51:  0.00  52:  0.00  53:  0.00  54:  0.00  55:  0.00  56:  0.00
  57:  0.00  58:  0.00  59:  0.00  60:  0.00
 output can be read by thermo (or use thermo option).
 writing <g98.out> molden fake output.
 recommended (thermochemical) frequency scaling factor: 1.0
           -------------------------------------------------
          |             Thermodynamic Functions             |
           -------------------------------------------------

Molecule has no symmetry elements
It seems to be the C1 point group
c1  symmetry found (for desy threshold:  0.10E+00) used in thermo

          ...................................................
          :                      SETUP                      :
          :.................................................:
          :  # frequencies                          54      :
          :  # imaginary freq.                       0      :
          :  linear?                             false      :
          :  only rotor calc.                    false      :
          :  symmetry                               c1      :
          :  rotational number                       1      :
          :  scaling factor                  1.0000000      :
          :  rotor cutoff                    0.0000000 cm⁻¹ :
          :  imag. cutoff                 -100.0000000 cm⁻¹ :
          :.................................................:

    mode    ω/cm⁻¹     T·S(HO)/kcal·mol⁻¹    T·S(FR)/kcal·mol⁻¹   T·S(vib)
   ------------------------------------------------------------------------
       1     30.56    -1.72718 (100.00%)    -1.20203 (  0.00%)    -1.72718
       2     50.99    -1.42473 (100.00%)    -1.05049 (  0.00%)    -1.42473
       3     81.41    -1.14981 (100.00%)    -0.91197 (  0.00%)    -1.14981
       4     82.16    -1.14448 (100.00%)    -0.90927 (  0.00%)    -1.14448
       5    199.83    -0.63645 (100.00%)    -0.64606 (  0.00%)    -0.63645
       6    200.30    -0.63517 (100.00%)    -0.64537 (  0.00%)    -0.63517
       7    232.89    -0.55354 (100.00%)    -0.60072 (  0.00%)    -0.55354
       8    281.96    -0.45371 (100.00%)    -0.54409 (  0.00%)    -0.45371
   ------------------------------------------------------------------------

   temp. (K)  partition function   enthalpy   heat capacity  entropy
                                   cal/mol     cal/K/mol   cal/K/mol   J/K/mol
 298.15  VIB  0.352E+04             4538.698     28.284     31.454
         ROT  0.456E+06              888.752      2.981     28.875
         INT  0.161E+10             5427.450     31.265     60.329
         TR   0.121E+28             1481.254      4.968     40.146
         TOT                        6908.7039    36.2335   100.4755   420.3896

       T/K    H(0)-H(T)+PV         H(T)/Eh          T*S/Eh         G(T)/Eh
   ------------------------------------------------------------------------
    298.15    0.110097E-01    0.182625E+00    0.477392E-01    0.134885E+00
   ------------------------------------------------------------------------

         :::::::::::::::::::::::::::::::::::::::::::::::::::::
         ::                  THERMODYNAMIC                  ::
         :::::::::::::::::::::::::::::::::::::::::::::::::::::
         :: total free energy         -26.988748120597 Eh   ::
         ::.................................................::
         :: total energy              -27.123633534635 Eh   ::
         :: zero point energy           0.171614856113 Eh   ::
         :: G(RRHO) w/o ZPVE           -0.036729442075 Eh   ::
         :: G(RRHO) contrib.            0.134885414038 Eh   ::
         :::::::::::::::::::::::::::::::::::::::::::::::::::::

optimized geometry written to: xtbopt.coord


           -------------------------------------------------
          | TOTAL ENERGY              -27.123633534635 Eh   |
          | TOTAL ENTHALPY            -26.941008957989 Eh   |
          | TOTAL FREE ENERGY         -26.988748120597 Eh   |
          | GRADIENT NORM               0.000169417270 Eh/α |
          | HOMO-LUMO GAP               4.948113097333 eV   |
           -------------------------------------------------

------------------------------------------------------------------------
 * finished run on 2025/04/11 at 16:44:10.910     
------------------------------------------------------------------------
 total:
 * wall-time:     0 d,  0 h,  0 min,  3.836 sec
 *  cpu-time:     0 d,  0 h,  0 min,  3.525 sec
 * ratio c/w:     0.919 speedup
 SCF:
 * wall-time:     0 d,  0 h,  0 min,  0.075 sec
 *  cpu-time:     0 d,  0 h,  0 min,  0.017 sec
 * ratio c/w:     0.221 speedup
 analytical hessian:
 * wall-time:     0 d,  0 h,  0 min,  1.235 sec
 *  cpu-time:     0 d,  0 h,  0 min,  1.224 sec
 * ratio c/w:     0.991 speedup

