20
 energy: -386.240846776586 gnorm: 0.036644381384 xtb: 6.7.1 (edcfbbe)
C           -3.37724648319655       -1.02405435155379        0.06922295693067
C           -1.95163104356482       -0.64537320928598        0.44882954579889
C           -1.31828331938417        0.26773191101864       -0.61138090387092
C            0.06811257323018        0.65161392888875       -0.16984400507526
O            0.31840403374109        1.50235790516573        0.65915548209209
O            0.99380901364038       -0.07537003563340       -0.78170769684640
C            2.37214853125116        0.12133515385377       -0.42291860368741
C            2.76359389452462       -0.76762089294015        0.74755357893126
H           -3.39059360600246       -1.54738109538569       -0.88326925749140
H           -3.80600523598654       -1.67379881994170        0.82717706386654
H           -3.99798393307161       -0.13584539246020       -0.01537377930681
H           -1.34574296989633       -1.54787108998590        0.55065989754401
H           -1.94680587926268       -0.12540171495557        1.40915709762443
H           -1.91600644084903        1.17370434212010       -0.71150048041528
H           -1.25792631525742       -0.25197175491166       -1.56633709349409
H            2.93149965789902       -0.13692453566067       -1.32257784478607
H            2.51926510051635        1.17635660382127       -0.17247985947643
H            2.56589644323702       -1.80916579570169        0.50900344412555
H            3.82084123159312       -0.64198068288448        0.95679988582398
H            2.19316716667185       -0.49140788711776        1.63169358892305
20
 energy: -386.242005143216 gnorm: 0.014321435263 xtb: 6.7.1 (edcfbbe)
C           -3.38067158653860       -1.02775209550840        0.07192301742808
C           -1.95328488034368       -0.64752693593368        0.45046834886551
C           -1.31879834841261        0.26878515302864       -0.60920107639244
C            0.06754715141574        0.65959026123085       -0.18198931460196
O            0.31727290434767        1.50357135624365        0.66504597690278
O            1.00119556620529       -0.07647281651088       -0.79565732738599
C            2.38641035179823        0.12604188810609       -0.42247602915069
C            2.75732651171019       -0.76505585060828        0.74812788503063
H           -3.40066379553472       -1.55343986486474       -0.88644058334055
H           -3.81994640535311       -1.68179213211113        0.82879096341638
H           -4.00845336494366       -0.13693165318568       -0.01562698795899
H           -1.34154255902703       -1.54976332268205        0.55635370652072
H           -1.94578723249570       -0.13123808830387        1.41595311488516
H           -1.91498017841225        1.17969685217787       -0.70714523817966
H           -1.27726779956685       -0.24475375971463       -1.57209754504553
H            2.95071572430111       -0.13700821899859       -1.31836161012126
H            2.54489398878583        1.18221510422535       -0.18907705456329
H            2.56602233446523       -1.81397546169073        0.51049891691277
H            3.82091003209952       -0.64321170343645        0.96312946816467
H            2.18761423794111       -0.49204658506864        1.63964401283611
20
 energy: -386.242260349150 gnorm: 0.005996162833 xtb: 6.7.1 (edcfbbe)
C           -3.38269897320296       -1.02874078566806        0.07239980031711
C           -1.95592291637738       -0.64795930645672        0.45257746881017
C           -1.32070347643632        0.27028704784376       -0.60709104938957
C            0.06647185985245        0.64941345944455       -0.18037411216179
O            0.32028652523602        1.49760758794546        0.66419200707559
O            1.00575089226306       -0.07954296970308       -0.81118246158298
C            2.39706233250584        0.12764086443057       -0.42342944413394
C            2.75572733188138       -0.75968191275703        0.74828015127839
H           -3.40712585079898       -1.55620534846729       -0.88835751481150
H           -3.82725787946132       -1.68482842976363        0.82846683501868
H           -4.01530415862834       -0.13781589984357       -0.01672329667779
H           -1.34112811423463       -1.55013265115170        0.56015116872595
H           -1.94764829183421       -0.13501390836247        1.42146963640818
H           -1.91167217966335        1.18732218062740       -0.70143651455981
H           -1.29394350479616       -0.23703838149532       -1.57586689983620
H            2.96698911942252       -0.13778966850665       -1.31602074593022
H            2.55518062931402        1.18543177592103       -0.19987805680608
H            2.57035643024087       -1.81203836413113        0.50988057682228
H            3.82131282446086       -0.64131120007138        0.97339662408625
H            2.18278054042244       -0.49067222300625        1.64140761095111
20
 energy: -386.242316822428 gnorm: 0.003589102859 xtb: 6.7.1 (edcfbbe)
C           -3.38314068217370       -1.02985584625119        0.07280983267416
C           -1.95691944255761       -0.64921378792049        0.45282335334032
C           -1.32038731977152        0.27134210415676       -0.60455387808662
C            0.06853913290712        0.65039567418656       -0.18635794439648
O            0.32558483757828        1.48848948041410        0.66594050042489
O            1.00799366026828       -0.07754987043035       -0.82308868334975
C            2.40124224072956        0.12659240782635       -0.42472908264391
C            2.75330364572491       -0.75667316656135        0.74957229369453
H           -3.40785410876561       -1.55717519827877       -0.88782335145685
H           -3.82827826986059       -1.68580976632840        0.82843776607150
H           -4.01603185425551       -0.13930215206009       -0.01642636913563
H           -1.34153505281363       -1.55101025035726        0.55953623994739
H           -1.94898574669730       -0.13757329961782        1.42234205830843
H           -1.90960046248149        1.19021661247510       -0.69250719753207
H           -1.30050154326922       -0.23149062834334       -1.57576745049269
H            2.97372946413035       -0.14273109669223       -1.31476620793091
H            2.55669104529975        1.18569854332987       -0.20581277510771
H            2.57046742030922       -1.80934335481094        0.51166765117728
H            3.81774223382736       -0.63879631234227        0.98091204002045
H            2.17645443305060       -0.48727865553219        1.63965243614695
20
 energy: -386.242347457768 gnorm: 0.001767995387 xtb: 6.7.1 (edcfbbe)
C           -3.38237961018377       -1.03001742874716        0.07209709351754
C           -1.95671062810596       -0.65027451499201        0.45318038161980
C           -1.31974825780690        0.27200478564167       -0.60251669782266
C            0.07068431041901        0.64612672028366       -0.18505115299041
O            0.33101654565955        1.47777452620243        0.67083433525905
O            1.00917389429424       -0.07668920409278       -0.83087340408518
C            2.40367330690216        0.12609456920042       -0.42819482788758
C            2.74911813013870       -0.75337269927900        0.75014016027198
H           -3.40634846856208       -1.55719974543996       -0.88781035717876
H           -3.82688419489826       -1.68534477277647        0.82770864559199
H           -4.01457047156244       -0.13978016917656       -0.01697488293863
H           -1.34190665081995       -1.55215038772827        0.55858340993343
H           -1.94954945875062       -0.13955166761323        1.42281673162418
H           -1.90634504213404        1.19280581419606       -0.68482098021862
H           -1.30328294207578       -0.22715358382306       -1.57510510440337
H            2.97702650019231       -0.14830669428453       -1.31594922840797
H            2.55727807489458        1.18620121510245       -0.21304449937237
H            2.56832088441642       -1.80630345492066        0.51450836748783
H            3.81170879717117       -0.63414201050888        0.98614554866174
H            2.16823974862403       -0.48179038260620        1.63618692764870
20
 energy: -386.242373090810 gnorm: 0.002720661330 xtb: 6.7.1 (edcfbbe)
C           -3.38014302723015       -1.03067508033965        0.07055125178389
C           -1.95480762876997       -0.65228302438518        0.45364814510593
C           -1.31827961692543        0.27384724511308       -0.59887850827057
C            0.07466622782925        0.63898913274816       -0.18097020096704
O            0.34054829487246        1.45612245857195        0.68599164620333
O            1.00986443232090       -0.07289040421703       -0.84392004600490
C            2.40568715953672        0.12421868252273       -0.43664638611743
C            2.74046008813462       -0.74654499329737        0.75129832789028
H           -3.40252241855740       -1.55739221201870       -0.88864543545104
H           -3.82433429048580       -1.68527282460695        0.82592727993588
H           -4.01068678944223       -0.14027445024859       -0.01838395346245
H           -1.34092594603322       -1.55452663772147        0.55592651134889
H           -1.94855108251658       -0.14405833011015        1.42411430639152
H           -1.90081767192917        1.19758258868866       -0.67112779309091
H           -1.30592127767287       -0.21849760553571       -1.57416155981130
H            2.97976039865819       -0.16202015512021       -1.31974608470477
H            2.56210881270961        1.18547394760163       -0.22961620769329
H            2.56166166753251       -1.80038371639526        0.52150979581075
H            3.79984953453489       -0.62460972207960        0.99635059561365
H            2.15089962625997       -0.46787515956632        1.62863711518742
20
 energy: -386.242382660694 gnorm: 0.001950746430 xtb: 6.7.1 (edcfbbe)
C           -3.37952855046369       -1.03119288334461        0.07016912408822
C           -1.95402755801256       -0.65279036369547        0.45366441896650
C           -1.31768036655298        0.27473812658271       -0.59762690272001
C            0.07566275323307        0.63835933294191       -0.17937103273260
O            0.34205352706123        1.45169919757466        0.69136618261148
O            1.00985939364927       -0.07061274279314       -0.84579559261111
C            2.40538820862945        0.12359868026852       -0.43920373836139
C            2.73802888570046       -0.74480766958034        0.75156276723451
H           -3.40162985219769       -1.55760842621045       -0.88947229248743
H           -3.82440035707056       -1.68618197887015        0.82512456298598
H           -4.00999054316962       -0.14046444969529       -0.01886570124266
H           -1.33975839211992       -1.55510017038032        0.55480903717101
H           -1.94758239733137       -0.14586831624716        1.42491137455490
H           -1.90003726621577        1.19869307257585       -0.66869771555592
H           -1.30551727545731       -0.21622362525004       -1.57375519712275
H            2.97887191376651       -0.16686425774055       -1.32128882180892
H            2.56593369600222        1.18489789214805       -0.23535911564516
H            2.55888329950440       -1.79930718061215        0.52422661004880
H            3.79708365946868       -0.62248966697131        0.99834631851312
H            2.14690439620463       -0.46354519053275        1.62711402934846
20
 energy: -386.242389010807 gnorm: 0.001061574871 xtb: 6.7.1 (edcfbbe)
C           -3.37795510147548       -1.03243867559976        0.06901761687009
C           -1.95234579666903       -0.65418270478400        0.45390444948584
C           -1.31647762717424        0.27688990877032       -0.59424138629941
C            0.07748948091641        0.63809910502277       -0.17580801324671
O            0.34440665464729        1.44481437429664        0.70204014522996
O            1.00957783819104       -0.06427966271619       -0.84891826399260
C            2.40386327685389        0.12179109934327       -0.44451168251252
C            2.73288781242383       -0.74089810049900        0.75236418090119
H           -3.39958631879009       -1.55754994329374       -0.89211038393352
H           -3.82445460406134       -1.68903375499221        0.82241199737630
H           -4.00874255215243       -0.14113754398962       -0.01973159828039
H           -1.33695679940645       -1.55662666382937        0.55191474680605
H           -1.94541683258479       -0.15126042586335        1.42754839335663
H           -1.89888307779786        1.20119070512246       -0.66392921221893
H           -1.30437586204910       -0.21121891171566       -1.57226738025055
H            2.97563174968027       -0.17908769522544       -1.32438510264714
H            2.57624348528733        1.18301231237224       -0.24869584665896
H            2.55185780657010       -1.79678108678053        0.53075922803946
H            3.79181711640755       -0.61875986846665        1.00146414328494
H            2.13993815263514       -0.45361391852886        1.62503119064524
20
 energy: -386.242390841373 gnorm: 0.000149649394 xtb: 6.7.1 (edcfbbe)
C           -3.37824119898184       -1.03231873145086        0.06916936549004
C           -1.95284797928673       -0.65408408590402        0.45385966975302
C           -1.31685524094576        0.27657793277336       -0.59467304195361
C            0.07692432356318        0.63864440539495       -0.17694150663670
O            0.34389149655508        1.44745449407769        0.69860501731327
O            1.00982447959591       -0.06533902909471       -0.84846651305277
C            2.40458182587250        0.12207680527665       -0.44306841721887
C            2.73389274611925       -0.74165341526402        0.75244603104988
H           -3.40003009298192       -1.55726879920688       -0.89184328772715
H           -3.82430036065119       -1.68897111134218        0.82255343135263
H           -4.00921948798593       -0.14131569206452       -0.01919559421728
H           -1.33766256243851       -1.55646872752012        0.55227972537239
H           -1.94612703772675       -0.15075834234299        1.42720305184779
H           -1.89930795130780        1.20085336617316       -0.66444347088960
H           -1.30527038518469       -0.21194596733304       -1.57241573634252
H            2.97651839624384       -0.17707036699627       -1.32337249607214
H            2.57446804734289        1.18335338631848       -0.24621249355674
H            2.55272390986017       -1.79717557796803        0.52984967631074
H            3.79317378711859       -0.62026256008318        1.00017723327021
H            2.14238180340396       -0.45539928461425        1.62634680288200
20
 energy: -386.242390841373 gnorm: 0.000149649394 xtb: 6.7.1 (edcfbbe)
C           -3.37824119898184       -1.03231873145086        0.06916936549004
C           -1.95284797928673       -0.65408408590402        0.45385966975302
C           -1.31685524094576        0.27657793277336       -0.59467304195361
C            0.07692432356318        0.63864440539495       -0.17694150663670
O            0.34389149655508        1.44745449407769        0.69860501731327
O            1.00982447959591       -0.06533902909471       -0.84846651305277
C            2.40458182587250        0.12207680527665       -0.44306841721887
C            2.73389274611925       -0.74165341526402        0.75244603104988
H           -3.40003009298192       -1.55726879920688       -0.89184328772715
H           -3.82430036065119       -1.68897111134218        0.82255343135263
H           -4.00921948798593       -0.14131569206452       -0.01919559421728
H           -1.33766256243851       -1.55646872752012        0.55227972537239
H           -1.94612703772675       -0.15075834234299        1.42720305184779
H           -1.89930795130780        1.20085336617316       -0.66444347088960
H           -1.30527038518469       -0.21194596733304       -1.57241573634252
H            2.97651839624384       -0.17707036699627       -1.32337249607214
H            2.57446804734289        1.18335338631848       -0.24621249355674
H            2.55272390986017       -1.79717557796803        0.52984967631074
H            3.79317378711859       -0.62026256008318        1.00017723327021
H            2.14238180340396       -0.45539928461425        1.62634680288200
