 Entering Gaussian System
 *********************************************
 Gaussian 98:
 frequency output generated by the xtb code
 *********************************************
                         Standard orientation:
 --------------------------------------------------------------------
  Center     Atomic     Atomic              Coordinates (Angstroms)
  Number     Number      Type              X           Y           Z
 --------------------------------------------------------------------
    1          6             0       -2.462398   -1.033804    0.915091
    2          6             0       -2.556679    0.073413   -0.127712
    3          6             0       -1.300297    0.132281   -1.001682
    4          6             0       -0.101127    0.560681   -0.195705
    5          8             0       -0.055907    1.539197    0.522015
    6          8             0        0.924544   -0.261957   -0.363843
    7          6             0        2.147856    0.035943    0.330318
    8          6             0        3.210745   -0.935253   -0.145181
    9          1             0       -1.624593   -0.852186    1.585921
   10          1             0       -3.371941   -1.074194    1.508311
   11          1             0       -2.317187   -1.999127    0.436129
   12          1             0       -2.679953    1.036924    0.370361
   13          1             0       -3.423002   -0.097425   -0.767087
   14          1             0       -1.441489    0.873195   -1.790705
   15          1             0       -1.087625   -0.836325   -1.452426
   16          1             0        2.420119    1.075767    0.121273
   17          1             0        1.964784   -0.057990    1.405834
   18          1             0        4.141835   -0.730792    0.372836
   19          1             0        2.900566   -1.955088    0.061813
   20          1             0        3.363273   -0.825743   -1.214790
 --------------------------------------------------------------------
     1 basis functions        1 primitive gaussians
     1 alpha electrons        1 beta electrons
 
 Harmonic frequencies (cm**-1), IR intensities (km*mol⁻¹),
 Raman scattering activities (A**4/amu), Raman depolarization ratios,
 reduced masses (AMU), force constants (mDyne/A) and normal coordinates:
                      1                      2                      3
                        a                      a                      a 
 Frequencies --     6.3807                18.9674                80.1858
 Red. masses --     8.5770                11.3688                 8.5916
 Frc consts  --     0.0000                 0.0000                 0.0000
 IR Inten    --     0.1316                 3.7940                 0.7808
 Raman Activ --     0.0000                 0.0000                 0.0000
 Depolar     --     0.0000                 0.0000                 0.0000
 Atom AN      X      Y      Z        X      Y      Z        X      Y      Z
   1   6    -0.28   0.26   0.06    -0.30   0.16   0.04    -0.41  -0.31  -0.22
   2   6    -0.04   0.10  -0.13    -0.06   0.08  -0.07     0.01   0.11   0.20
   3   6     0.07  -0.18   0.01     0.04  -0.16   0.06    -0.00  -0.07   0.16
   4   6     0.02  -0.15   0.06     0.01  -0.12   0.07     0.06   0.01   0.03
   5   8    -0.01  -0.12   0.01    -0.13  -0.35   0.36     0.18   0.21  -0.25
   6   8     0.03  -0.19   0.18     0.20   0.16  -0.28     0.02  -0.09   0.19
   7   6     0.01  -0.14   0.17     0.17   0.25  -0.29     0.11   0.11  -0.07
   8   6     0.22   0.35  -0.33     0.08  -0.04   0.11     0.07   0.04  -0.01
   9   1    -0.10   0.08   0.04    -0.09   0.03   0.02    -0.06  -0.30  -0.09
  10   1    -0.10   0.13  -0.01    -0.10   0.10  -0.01    -0.10  -0.01  -0.02
  11   1    -0.10   0.05   0.07    -0.12   0.03   0.04    -0.29  -0.06  -0.17
  12   1     0.00   0.06  -0.09     0.01   0.04  -0.05     0.12  -0.00   0.16
  13   1     0.00   0.03  -0.06    -0.00   0.04  -0.04    -0.03   0.20   0.05
  14   1     0.07  -0.09  -0.04     0.05  -0.08  -0.02     0.00  -0.04   0.02
  15   1     0.01  -0.08   0.06     0.00  -0.07   0.06    -0.02  -0.04   0.08
  16   1    -0.08   0.01   0.17     0.09   0.04  -0.19     0.01   0.02  -0.10
  17   1     0.04  -0.19   0.04     0.03   0.20  -0.07     0.08   0.10  -0.01
  18   1     0.06   0.10  -0.09     0.03   0.02   0.02     0.04   0.07  -0.07
  19   1     0.14   0.05  -0.22    -0.01   0.02   0.14     0.05   0.02   0.09
  20   1     0.04   0.25  -0.09     0.03  -0.14   0.02    -0.04  -0.07  -0.02
                      4                      5                      6
                        a                      a                      a 
 Frequencies --   126.2626               162.8640               196.6489
 Red. masses --     7.9660                 7.0745                 6.2761
 Frc consts  --     0.0000                 0.0000                 0.0000
 IR Inten    --     2.1751                 4.6636                 4.9366
 Raman Activ --     0.0000                 0.0000                 0.0000
 Depolar     --     0.0000                 0.0000                 0.0000
 Atom AN      X      Y      Z        X      Y      Z        X      Y      Z
   1   6     0.04  -0.01   0.04     0.19   0.09  -0.08    -0.21  -0.06   0.06
   2   6     0.08   0.20   0.26    -0.01   0.15   0.01    -0.17  -0.07   0.04
   3   6    -0.12  -0.01  -0.06    -0.09   0.19  -0.10    -0.10   0.16   0.12
   4   6    -0.00  -0.08  -0.21    -0.04  -0.16  -0.01     0.05  -0.02  -0.01
   5   8    -0.00  -0.21  -0.09     0.10  -0.24   0.06     0.39   0.01  -0.08
   6   8     0.06   0.01  -0.40    -0.16  -0.35   0.08    -0.03  -0.13  -0.15
   7   6    -0.17  -0.08   0.09    -0.13   0.03  -0.07    -0.05  -0.00  -0.12
   8   6     0.12   0.16   0.26     0.11   0.20   0.11     0.16   0.10   0.14
   9   1     0.12  -0.14  -0.08     0.08   0.03  -0.05    -0.29   0.17   0.25
  10   1     0.08   0.09   0.13     0.08  -0.00   0.02    -0.21  -0.25  -0.24
  11   1    -0.17  -0.00  -0.05     0.05   0.04  -0.05     0.31   0.03   0.04
  12   1     0.15   0.04   0.13     0.01   0.03   0.02    -0.13  -0.03   0.01
  13   1    -0.05   0.16   0.14    -0.03   0.05   0.03    -0.00  -0.07  -0.04
  14   1    -0.06  -0.01  -0.02    -0.01   0.12   0.03    -0.05   0.10   0.09
  15   1    -0.09  -0.01  -0.02    -0.07   0.08  -0.10    -0.04   0.08  -0.04
  16   1    -0.06   0.00   0.13    -0.11   0.01  -0.10    -0.04   0.00  -0.05
  17   1    -0.15  -0.11   0.00    -0.01   0.08  -0.01    -0.04   0.03  -0.04
  18   1    -0.06  -0.01   0.26     0.09   0.36  -0.20    -0.03   0.00   0.18
  19   1     0.01   0.02  -0.11     0.25   0.06   0.35     0.02   0.02  -0.06
  20   1     0.22   0.19   0.12    -0.19  -0.18  -0.02     0.20   0.09   0.07
                      7                      8                      9
                        a                      a                      a 
 Frequencies --   229.4128               264.9118               343.1370
 Red. masses --     6.6491                 6.4223                10.7572
 Frc consts  --     0.0000                 0.0000                 0.0000
 IR Inten    --     1.9677                 4.5515                13.5385
 Raman Activ --     0.0000                 0.0000                 0.0000
 Depolar     --     0.0000                 0.0000                 0.0000
 Atom AN      X      Y      Z        X      Y      Z        X      Y      Z
   1   6    -0.15  -0.07   0.09    -0.13  -0.02   0.11     0.01  -0.01  -0.01
   2   6     0.03  -0.05   0.08    -0.21  -0.31  -0.20     0.15  -0.02  -0.03
   3   6     0.02  -0.06   0.04    -0.03   0.14   0.07     0.16  -0.15   0.01
   4   6     0.06   0.13  -0.12     0.04   0.10   0.05     0.09  -0.04  -0.02
   5   8    -0.03   0.08  -0.04     0.36   0.10   0.07     0.47  -0.15   0.09
   6   8     0.16   0.30  -0.34    -0.03   0.03  -0.14     0.01  -0.05  -0.09
   7   6    -0.05  -0.22   0.23    -0.05  -0.07  -0.03    -0.28   0.25   0.11
   8   6     0.01  -0.05   0.01     0.07   0.03   0.06    -0.51   0.18  -0.04
   9   1    -0.13   0.02   0.13     0.17  -0.11  -0.19    -0.02  -0.01   0.03
  10   1    -0.11  -0.08  -0.09     0.10   0.27   0.26    -0.02   0.01  -0.03
  11   1     0.07  -0.01   0.03    -0.37  -0.09   0.11     0.01  -0.01   0.01
  12   1     0.02  -0.01   0.03    -0.23  -0.08  -0.12     0.07   0.00  -0.01
  13   1     0.01   0.00   0.02     0.02  -0.24  -0.12     0.04   0.02  -0.01
  14   1    -0.03  -0.05  -0.02    -0.03   0.09   0.07     0.05  -0.11  -0.06
  15   1     0.02  -0.03   0.04     0.05   0.08  -0.04     0.07  -0.07   0.08
  16   1     0.03  -0.04   0.25    -0.01  -0.01   0.03    -0.10   0.08   0.03
  17   1    -0.11  -0.22   0.04    -0.05  -0.04  -0.01    -0.11   0.08   0.03
  18   1     0.10   0.22  -0.27     0.01   0.07   0.01    -0.10  -0.04  -0.08
  19   1     0.21  -0.02   0.27     0.07  -0.00   0.04    -0.22   0.07  -0.02
  20   1    -0.29  -0.18  -0.06     0.02  -0.01   0.01    -0.22   0.07  -0.02
                     10                     11                     12
                        a                      a                      a 
 Frequencies --   381.2220               423.9355               587.6137
 Red. masses --     7.7931                10.3451                10.8866
 Frc consts  --     0.0000                 0.0000                 0.0000
 IR Inten    --     2.4748                 2.2570                15.9550
 Raman Activ --     0.0000                 0.0000                 0.0000
 Depolar     --     0.0000                 0.0000                 0.0000
 Atom AN      X      Y      Z        X      Y      Z        X      Y      Z
   1   6     0.23   0.06  -0.27     0.06   0.04  -0.10     0.03   0.04  -0.04
   2   6    -0.26   0.17  -0.07    -0.40   0.08   0.01     0.14   0.02  -0.03
   3   6    -0.06  -0.29   0.29    -0.26   0.05   0.12     0.26   0.04   0.32
   4   6    -0.08   0.07   0.18     0.04  -0.27  -0.03     0.03  -0.34   0.44
   5   8     0.16   0.15   0.08     0.06  -0.17  -0.23    -0.26   0.18  -0.25
   6   8    -0.13   0.06  -0.12     0.38   0.08   0.03     0.08  -0.07  -0.27
   7   6    -0.08  -0.12  -0.10     0.24   0.19   0.28    -0.16  -0.04  -0.10
   8   6     0.09  -0.01   0.04    -0.10  -0.02  -0.04    -0.11   0.05   0.02
   9   1     0.12   0.07  -0.15     0.07   0.06  -0.11     0.01  -0.01  -0.01
  10   1     0.13  -0.13   0.01     0.08  -0.08   0.07     0.01   0.04  -0.02
  11   1     0.13   0.07  -0.16     0.05   0.04  -0.07    -0.01   0.01  -0.01
  12   1    -0.09   0.05  -0.03    -0.18   0.01   0.00    -0.01   0.01  -0.02
  13   1    -0.06   0.02  -0.03    -0.09  -0.03  -0.02     0.09  -0.01  -0.07
  14   1     0.09  -0.28  -0.12    -0.02   0.09   0.09     0.19   0.20   0.24
  15   1     0.01  -0.20   0.33    -0.18   0.03  -0.05     0.02   0.09  -0.10
  16   1    -0.01  -0.03   0.01     0.08   0.05   0.11    -0.05   0.00   0.01
  17   1    -0.04  -0.06  -0.03     0.04   0.01   0.07    -0.10  -0.04  -0.04
  18   1    -0.01   0.07   0.05     0.05  -0.13  -0.11    -0.04   0.03   0.01
  19   1     0.08  -0.02   0.02    -0.12   0.02  -0.02    -0.02   0.01   0.01
  20   1     0.07  -0.02   0.02    -0.14   0.02  -0.02    -0.02   0.01   0.00
                     13                     14                     15
                        a                      a                      a 
 Frequencies --   685.6192               816.2365               821.3389
 Red. masses --    10.1659                 3.7363                 3.0738
 Frc consts  --     0.0000                 0.0000                 0.0000
 IR Inten    --    12.2428                17.9708                 3.7557
 Raman Activ --     0.0000                 0.0000                 0.0000
 Depolar     --     0.0000                 0.0000                 0.0000
 Atom AN      X      Y      Z        X      Y      Z        X      Y      Z
   1   6     0.01   0.01   0.00     0.07   0.03   0.05    -0.05  -0.03  -0.03
   2   6     0.05  -0.09  -0.11     0.20   0.13   0.11    -0.14  -0.08  -0.07
   3   6    -0.17  -0.20  -0.30    -0.05   0.07  -0.07     0.05  -0.03   0.06
   4   6    -0.37  -0.23   0.38    -0.20  -0.13   0.06     0.16   0.10  -0.08
   5   8     0.33   0.06  -0.04     0.08  -0.09  -0.08    -0.06   0.03   0.06
   6   8    -0.11   0.32   0.02    -0.10   0.11   0.07     0.03  -0.14   0.06
   7   6     0.07   0.02   0.02     0.07   0.12  -0.09     0.03   0.12  -0.19
   8   6     0.07  -0.05  -0.01     0.05   0.01  -0.05    -0.01   0.08  -0.06
   9   1    -0.02   0.07   0.01    -0.04  -0.30   0.16     0.02   0.21  -0.11
  10   1    -0.01   0.05  -0.01    -0.08   0.01  -0.13     0.05  -0.01   0.09
  11   1     0.03  -0.04   0.09    -0.11   0.09  -0.20     0.07  -0.06   0.14
  12   1     0.29  -0.02   0.04    -0.26   0.10  -0.18     0.16  -0.07   0.12
  13   1    -0.14   0.19   0.12     0.15  -0.35  -0.01    -0.09   0.23  -0.00
  14   1     0.01   0.09   0.04     0.02  -0.05  -0.09    -0.02   0.03   0.06
  15   1    -0.00   0.02  -0.22    -0.07  -0.04   0.08     0.05   0.03  -0.04
  16   1     0.06   0.01   0.06    -0.09   0.11   0.24    -0.21   0.16   0.31
  17   1     0.02  -0.05  -0.00     0.07  -0.28  -0.04     0.08  -0.40  -0.07
  18   1     0.01   0.01   0.01    -0.02  -0.05   0.06    -0.05  -0.07   0.10
  19   1     0.03  -0.01   0.01    -0.15   0.08   0.15    -0.26   0.14   0.23
  20   1     0.04  -0.03  -0.00     0.14  -0.22  -0.02     0.17  -0.31  -0.02
                     16                     17                     18
                        a                      a                      a 
 Frequencies --   882.6028               911.7722               921.0296
 Red. masses --     7.9536                 7.9924                 7.5097
 Frc consts  --     0.0000                 0.0000                 0.0000
 IR Inten    --    20.0210                 6.0845                 0.3596
 Raman Activ --     0.0000                 0.0000                 0.0000
 Depolar     --     0.0000                 0.0000                 0.0000
 Atom AN      X      Y      Z        X      Y      Z        X      Y      Z
   1   6    -0.04   0.14  -0.06    -0.02  -0.22   0.17    -0.10  -0.01   0.24
   2   6     0.01  -0.02   0.07    -0.16   0.12  -0.03    -0.23   0.10   0.05
   3   6     0.06  -0.29   0.17     0.09   0.27  -0.26     0.08  -0.19  -0.37
   4   6     0.09   0.04  -0.23     0.08  -0.15   0.12     0.16   0.07   0.17
   5   8     0.06  -0.17  -0.02    -0.01  -0.04  -0.08    -0.03   0.25   0.15
   6   8     0.07   0.32   0.31     0.29   0.16   0.18     0.14  -0.20  -0.10
   7   6    -0.18  -0.11  -0.15    -0.16  -0.12  -0.16    -0.01  -0.04  -0.04
   8   6    -0.17  -0.02  -0.07    -0.22   0.01  -0.06    -0.02   0.06   0.03
   9   1     0.03  -0.02  -0.06    -0.00   0.02   0.02     0.06  -0.18   0.01
  10   1     0.02  -0.09   0.02     0.02  -0.04   0.08     0.04  -0.33   0.15
  11   1     0.01   0.11  -0.16     0.02  -0.10   0.13     0.02   0.17  -0.29
  12   1     0.02   0.06  -0.12    -0.10  -0.03   0.11     0.03   0.16  -0.22
  13   1     0.05  -0.05  -0.03    -0.05   0.05  -0.00    -0.12  -0.08   0.12
  14   1    -0.13   0.16   0.29     0.24  -0.11  -0.27    -0.00   0.04  -0.01
  15   1    -0.01   0.06  -0.26    -0.05  -0.06   0.18     0.09   0.02  -0.22
  16   1     0.07  -0.05  -0.01     0.07  -0.05  -0.02    -0.05   0.00  -0.02
  17   1     0.06  -0.03  -0.02     0.05  -0.04  -0.02    -0.03  -0.00  -0.01
  18   1    -0.19   0.25   0.14    -0.20   0.25   0.15     0.02  -0.04  -0.02
  19   1     0.16  -0.06   0.02     0.13  -0.04   0.02    -0.06   0.03   0.01
  20   1     0.15  -0.02   0.01     0.13  -0.01   0.01    -0.05   0.01   0.00
                     19                     20                     21
                        a                      a                      a 
 Frequencies --   969.0819              1061.0240              1070.7018
 Red. masses --     9.0075                 6.6678                 8.3395
 Frc consts  --     0.0000                 0.0000                 0.0000
 IR Inten    --     3.9292                20.6532                78.1325
 Raman Activ --     0.0000                 0.0000                 0.0000
 Depolar     --     0.0000                 0.0000                 0.0000
 Atom AN      X      Y      Z        X      Y      Z        X      Y      Z
   1   6    -0.16  -0.16   0.23    -0.13   0.13  -0.03     0.10  -0.19   0.10
   2   6    -0.08   0.16  -0.03     0.11  -0.15   0.06    -0.02   0.20  -0.15
   3   6     0.38   0.08   0.06     0.01   0.18   0.04    -0.05  -0.19   0.03
   4   6    -0.19  -0.05  -0.16    -0.19  -0.05   0.07     0.14   0.08  -0.09
   5   8     0.04  -0.24  -0.15    -0.01  -0.03  -0.06     0.00   0.04   0.07
   6   8    -0.35   0.18   0.00    -0.04  -0.15  -0.16    -0.33  -0.04  -0.13
   7   6     0.02   0.11   0.10     0.41  -0.08   0.08     0.43  -0.11   0.05
   8   6     0.16  -0.08  -0.00    -0.30   0.13   0.01    -0.24   0.17   0.07
   9   1     0.08   0.07  -0.11     0.05   0.07  -0.12    -0.03  -0.06   0.09
  10   1     0.10  -0.29   0.26     0.05  -0.13   0.10    -0.02   0.06  -0.03
  11   1     0.09   0.02  -0.04     0.05   0.10  -0.12    -0.02  -0.10   0.12
  12   1    -0.02   0.06  -0.03     0.09  -0.00  -0.04    -0.05   0.04  -0.03
  13   1     0.08   0.11  -0.16     0.05   0.02  -0.03     0.01   0.02  -0.06
  14   1     0.21   0.06   0.02    -0.30  -0.11  -0.07     0.31   0.12   0.10
  15   1     0.18   0.04   0.01     0.31   0.05   0.14    -0.31  -0.05  -0.13
  16   1    -0.01   0.03   0.02     0.18  -0.05  -0.01     0.16  -0.06  -0.01
  17   1    -0.03   0.03   0.02     0.19  -0.07   0.02     0.13  -0.08   0.00
  18   1     0.10  -0.10  -0.06    -0.18   0.21   0.13    -0.11   0.13   0.07
  19   1    -0.00  -0.01  -0.02     0.04   0.01   0.06    -0.02   0.04   0.04
  20   1    -0.02  -0.01  -0.01     0.05   0.03   0.02    -0.01   0.06   0.03
                     22                     23                     24
                        a                      a                      a 
 Frequencies --  1082.4753              1117.1106              1123.7352
 Red. masses --     4.4079                 8.2896                 8.5488
 Frc consts  --     0.0000                 0.0000                 0.0000
 IR Inten    --     3.9264                13.4454                50.8444
 Raman Activ --     0.0000                 0.0000                 0.0000
 Depolar     --     0.0000                 0.0000                 0.0000
 Atom AN      X      Y      Z        X      Y      Z        X      Y      Z
   1   6    -0.22  -0.11  -0.01     0.05  -0.14   0.18     0.09  -0.15   0.22
   2   6     0.35   0.13   0.04     0.10   0.10  -0.31     0.08   0.11  -0.38
   3   6    -0.16  -0.08  -0.13    -0.21   0.03   0.16    -0.22   0.10   0.24
   4   6     0.03  -0.04   0.12     0.02   0.03   0.00    -0.16   0.04  -0.06
   5   8     0.02   0.12   0.08    -0.02   0.07   0.05     0.00  -0.07  -0.04
   6   8     0.07   0.01   0.01     0.05  -0.17  -0.12     0.22   0.04   0.15
   7   6    -0.05  -0.05  -0.05    -0.10   0.32   0.30    -0.03  -0.24  -0.26
   8   6     0.03   0.03   0.03     0.02  -0.27  -0.27     0.00   0.18   0.19
   9   1     0.06   0.23  -0.21     0.01  -0.11   0.07     0.01  -0.15   0.11
  10   1     0.11  -0.15   0.23    -0.00  -0.06   0.02    -0.01  -0.06   0.00
  11   1     0.13  -0.04   0.08    -0.00  -0.02   0.00    -0.02  -0.02  -0.01
  12   1    -0.15   0.01  -0.01     0.16   0.10  -0.18     0.22   0.12  -0.22
  13   1     0.34   0.01  -0.33     0.01   0.11  -0.08    -0.01   0.14  -0.08
  14   1    -0.27  -0.05  -0.02    -0.09  -0.01   0.03    -0.12  -0.01   0.03
  15   1    -0.39  -0.09  -0.04    -0.03   0.01   0.04     0.10   0.05   0.10
  16   1    -0.04  -0.01  -0.02    -0.07   0.09   0.03     0.04  -0.06  -0.02
  17   1    -0.01   0.00  -0.01    -0.01   0.11   0.08     0.01  -0.07  -0.06
  18   1     0.03  -0.05  -0.02    -0.13   0.16   0.11     0.10  -0.12  -0.09
  19   1    -0.04   0.02  -0.00     0.21  -0.11   0.02    -0.16   0.08  -0.02
  20   1    -0.04   0.01   0.00     0.27  -0.13  -0.04    -0.20   0.09   0.02
                     25                     26                     27
                        a                      a                      a 
 Frequencies --  1137.1438              1165.9708              1199.4387
 Red. masses --     5.1934                 8.8458                 7.2466
 Frc consts  --     0.0000                 0.0000                 0.0000
 IR Inten    --    23.5131               311.3166               167.2844
 Raman Activ --     0.0000                 0.0000                 0.0000
 Depolar     --     0.0000                 0.0000                 0.0000
 Atom AN      X      Y      Z        X      Y      Z        X      Y      Z
   1   6     0.02  -0.02  -0.01     0.11  -0.19  -0.07    -0.13   0.15   0.02
   2   6    -0.03   0.04   0.01    -0.14   0.33   0.14     0.19  -0.22   0.02
   3   6     0.03  -0.03   0.01     0.17  -0.20  -0.06    -0.14   0.00   0.06
   4   6    -0.09   0.02  -0.01    -0.47   0.15  -0.06    -0.42   0.22  -0.16
   5   8     0.02  -0.01  -0.01     0.04   0.07   0.06     0.03   0.06   0.08
   6   8     0.08   0.12  -0.11     0.27  -0.22  -0.03     0.28  -0.19  -0.01
   7   6    -0.12  -0.35   0.30    -0.00   0.06  -0.03    -0.04   0.01  -0.01
   8   6     0.08   0.23  -0.19    -0.04  -0.04   0.01    -0.01  -0.01  -0.00
   9   1    -0.01  -0.00   0.02    -0.05   0.06   0.05     0.05   0.02  -0.09
  10   1    -0.01   0.03  -0.02    -0.02   0.17  -0.06     0.02  -0.12   0.07
  11   1    -0.01  -0.02   0.02    -0.02  -0.16   0.22     0.04   0.12  -0.14
  12   1    -0.02   0.00   0.01    -0.21   0.06   0.03     0.04  -0.10   0.09
  13   1     0.00   0.00  -0.01     0.10  -0.02  -0.12     0.03  -0.03   0.03
  14   1     0.02   0.02   0.02    -0.13   0.05   0.10     0.59   0.12   0.01
  15   1     0.03   0.01  -0.02     0.27   0.06  -0.14    -0.16  -0.03   0.03
  16   1    -0.22  -0.12  -0.34     0.05   0.02   0.05     0.04  -0.00   0.02
  17   1     0.33   0.24   0.16     0.03  -0.04  -0.00     0.05  -0.01   0.01
  18   1    -0.03  -0.11   0.10    -0.03   0.05   0.01    -0.01   0.02   0.01
  19   1    -0.26   0.18   0.19     0.05  -0.03  -0.02     0.01  -0.01  -0.01
  20   1     0.15  -0.27  -0.06    -0.01   0.03   0.01    -0.00   0.00  -0.00
                     28                     29                     30
                        a                      a                      a 
 Frequencies --  1233.7757              1246.7639              1307.1859
 Red. masses --     2.2672                 3.4379                 4.4477
 Frc consts  --     0.0000                 0.0000                 0.0000
 IR Inten    --     2.6039                15.1734                68.7288
 Raman Activ --     0.0000                 0.0000                 0.0000
 Depolar     --     0.0000                 0.0000                 0.0000
 Atom AN      X      Y      Z        X      Y      Z        X      Y      Z
   1   6    -0.02  -0.02  -0.02     0.17   0.20   0.21    -0.04  -0.01  -0.03
   2   6     0.02   0.02   0.02    -0.16  -0.12  -0.14    -0.03  -0.01  -0.12
   3   6    -0.02   0.00  -0.00     0.18  -0.04  -0.05     0.42   0.09   0.07
   4   6    -0.01   0.00   0.00    -0.09   0.01   0.02    -0.17   0.05  -0.00
   5   8    -0.00   0.00   0.00     0.02   0.03   0.02     0.02  -0.00   0.00
   6   8    -0.01  -0.09   0.09     0.01  -0.03  -0.01     0.00  -0.08  -0.07
   7   6    -0.03  -0.05   0.06    -0.00   0.01   0.01    -0.20   0.10   0.01
   8   6     0.08   0.18  -0.21     0.00   0.01  -0.02     0.03   0.04   0.04
   9   1    -0.00   0.03  -0.01     0.02  -0.26   0.16    -0.00  -0.00  -0.01
  10   1     0.01   0.01   0.01    -0.06  -0.06  -0.10     0.01  -0.04   0.03
  11   1     0.01  -0.02   0.02    -0.10   0.15  -0.21     0.01  -0.03   0.05
  12   1     0.00   0.02  -0.03    -0.12  -0.27   0.40     0.09   0.03  -0.08
  13   1    -0.00  -0.03   0.02     0.12   0.35  -0.36    -0.21  -0.12   0.28
  14   1     0.01   0.00  -0.00    -0.19  -0.04   0.00    -0.26  -0.03   0.04
  15   1     0.03   0.01   0.00    -0.17  -0.04  -0.05    -0.47  -0.11   0.05
  16   1     0.58  -0.16   0.07     0.07  -0.01   0.01     0.33  -0.07   0.04
  17   1    -0.58   0.15  -0.07    -0.04   0.01  -0.00     0.30  -0.09   0.05
  18   1    -0.03  -0.06   0.07    -0.00  -0.00   0.01     0.05  -0.07  -0.04
  19   1    -0.17   0.14   0.15    -0.01   0.01   0.01     0.02  -0.01  -0.04
  20   1     0.14  -0.22  -0.06     0.01  -0.02  -0.00     0.01  -0.04   0.00
                     31                     32                     33
                        a                      a                      a 
 Frequencies --  1323.3535              1335.4913              1395.5812
 Red. masses --     4.4346                 4.6731                 3.3533
 Frc consts  --     0.0000                 0.0000                 0.0000
 IR Inten    --    20.7530                12.3655                 7.5280
 Raman Activ --     0.0000                 0.0000                 0.0000
 Depolar     --     0.0000                 0.0000                 0.0000
 Atom AN      X      Y      Z        X      Y      Z        X      Y      Z
   1   6    -0.03   0.01  -0.01    -0.12   0.05   0.04    -0.00   0.00  -0.00
   2   6     0.01   0.02  -0.12     0.26   0.26  -0.36    -0.00  -0.00   0.00
   3   6     0.26   0.05   0.05    -0.13  -0.12   0.05     0.02   0.00  -0.00
   4   6    -0.21   0.04  -0.04     0.08  -0.00   0.01    -0.04   0.00  -0.01
   5   8     0.02  -0.00   0.00    -0.01  -0.02  -0.02     0.00   0.00   0.00
   6   8     0.10   0.04   0.07    -0.02   0.01  -0.00     0.04   0.02   0.03
   7   6     0.34  -0.16  -0.01    -0.04   0.02   0.00     0.10  -0.04   0.00
   8   6    -0.03  -0.07  -0.08    -0.00   0.01   0.01    -0.35   0.26   0.10
   9   1     0.00  -0.02  -0.01     0.02  -0.08  -0.01    -0.00  -0.01   0.00
  10   1     0.01  -0.04   0.03     0.05  -0.15   0.13     0.00  -0.00   0.00
  11   1     0.02  -0.01   0.03     0.06   0.00   0.04     0.00  -0.00   0.01
  12   1     0.02  -0.01   0.01    -0.31  -0.26   0.45     0.01   0.00  -0.01
  13   1    -0.14  -0.09   0.20    -0.18  -0.20   0.32    -0.00  -0.00   0.00
  14   1    -0.15   0.00   0.05    -0.07   0.02   0.06    -0.00   0.01   0.01
  15   1    -0.26  -0.07   0.04     0.24   0.05  -0.04    -0.02  -0.01   0.02
  16   1    -0.47   0.10  -0.04     0.04  -0.01  -0.00    -0.12   0.01  -0.08
  17   1    -0.46   0.14  -0.07     0.05  -0.02   0.01    -0.14  -0.03  -0.03
  18   1    -0.10   0.14   0.09     0.01  -0.02  -0.01     0.20  -0.40  -0.27
  19   1    -0.06   0.02   0.07     0.01  -0.00  -0.01     0.46  -0.14  -0.10
  20   1    -0.03   0.08  -0.01     0.01  -0.01   0.00     0.40  -0.27   0.04
                     34                     35                     36
                        a                      a                      a 
 Frequencies --  1411.3556              1429.2681              1462.8851
 Red. masses --     3.1722                 2.0467                 1.5173
 Frc consts  --     0.0000                 0.0000                 0.0000
 IR Inten    --     1.7888                 6.2833                 4.9742
 Raman Activ --     0.0000                 0.0000                 0.0000
 Depolar     --     0.0000                 0.0000                 0.0000
 Atom AN      X      Y      Z        X      Y      Z        X      Y      Z
   1   6    -0.00  -0.31   0.29     0.02  -0.05   0.06     0.00  -0.00  -0.00
   2   6     0.06   0.04  -0.07     0.01  -0.01  -0.01     0.00  -0.00  -0.00
   3   6     0.03  -0.00   0.06    -0.02  -0.06  -0.29     0.00  -0.00  -0.00
   4   6    -0.02   0.00   0.00     0.04  -0.01  -0.01    -0.00   0.00   0.00
   5   8     0.00  -0.00  -0.00    -0.00   0.00   0.01     0.00  -0.00  -0.00
   6   8     0.00  -0.00   0.00    -0.01   0.00  -0.01     0.00   0.00  -0.00
   7   6     0.00  -0.00   0.00    -0.01   0.01   0.00    -0.01  -0.02   0.04
   8   6    -0.00   0.00   0.00     0.01  -0.00  -0.00    -0.06  -0.13   0.15
   9   1     0.13   0.40  -0.26     0.02   0.08  -0.04    -0.00   0.01   0.00
  10   1    -0.19   0.39  -0.24    -0.04   0.03  -0.06     0.00  -0.00   0.00
  11   1     0.04   0.22  -0.46    -0.04   0.03  -0.07    -0.01  -0.00  -0.00
  12   1    -0.11  -0.03   0.03    -0.05   0.00  -0.02    -0.00  -0.00  -0.00
  13   1    -0.08   0.02   0.10    -0.02   0.05   0.00    -0.00   0.00   0.00
  14   1    -0.03  -0.08  -0.06    -0.07   0.47   0.43    -0.00   0.01   0.01
  15   1    -0.02   0.04  -0.10     0.08  -0.29   0.61     0.00  -0.00   0.01
  16   1    -0.00   0.00  -0.00     0.01  -0.00   0.00     0.01  -0.02  -0.04
  17   1    -0.01   0.00  -0.00     0.01  -0.01   0.00    -0.02  -0.01   0.01
  18   1     0.00  -0.01  -0.00    -0.00  -0.00   0.01     0.19   0.46  -0.52
  19   1     0.01  -0.00   0.00    -0.00   0.00   0.00    -0.42   0.07  -0.19
  20   1     0.01  -0.00   0.00    -0.01   0.00  -0.00     0.46   0.03   0.08
                     37                     38                     39
                        a                      a                      a 
 Frequencies --  1466.1315              1475.5017              1481.0837
 Red. masses --     1.8812                 1.9363                 1.5742
 Frc consts  --     0.0000                 0.0000                 0.0000
 IR Inten    --     0.5040                 1.2330                 3.9947
 Raman Activ --     0.0000                 0.0000                 0.0000
 Depolar     --     0.0000                 0.0000                 0.0000
 Atom AN      X      Y      Z        X      Y      Z        X      Y      Z
   1   6    -0.00   0.00   0.00    -0.00   0.03  -0.04    -0.00   0.00   0.00
   2   6     0.01  -0.01   0.00     0.21  -0.18   0.06     0.00  -0.00   0.00
   3   6    -0.00  -0.00  -0.00     0.01  -0.01   0.02     0.00  -0.00  -0.00
   4   6     0.01  -0.01  -0.00    -0.01   0.02   0.01    -0.00   0.00   0.00
   5   8    -0.01   0.01   0.00    -0.00  -0.02  -0.01    -0.00  -0.00  -0.00
   6   8    -0.05  -0.02  -0.04     0.00  -0.00   0.00    -0.00   0.00  -0.00
   7   6     0.02  -0.20  -0.17     0.00   0.01   0.01     0.05   0.01   0.03
   8   6    -0.04   0.02   0.02     0.00  -0.00  -0.00     0.10   0.13   0.15
   9   1     0.01  -0.01  -0.01    -0.00  -0.08   0.03     0.01  -0.00  -0.01
  10   1    -0.00  -0.00  -0.00     0.03  -0.02   0.03    -0.00   0.00  -0.00
  11   1     0.01  -0.00   0.01     0.04  -0.03   0.07     0.00  -0.00   0.00
  12   1    -0.02   0.00  -0.01    -0.58   0.09  -0.34    -0.01   0.00  -0.00
  13   1    -0.01   0.02   0.01    -0.24   0.59   0.18    -0.00   0.00   0.00
  14   1     0.00   0.00   0.00     0.01  -0.02  -0.02    -0.00   0.00   0.00
  15   1     0.01   0.00   0.00     0.00   0.02  -0.04     0.00  -0.00   0.00
  16   1    -0.01   0.13   0.67    -0.00  -0.00  -0.03    -0.04   0.01  -0.02
  17   1     0.19   0.64   0.08    -0.01  -0.02  -0.00    -0.04   0.00  -0.00
  18   1     0.02  -0.01  -0.05    -0.00  -0.00   0.00    -0.10   0.20   0.14
  19   1     0.02  -0.01  -0.03    -0.00   0.00   0.01    -0.06  -0.10  -0.65
  20   1     0.05  -0.04   0.01    -0.00   0.01   0.00    -0.26  -0.60  -0.09
                     40                     41                     42
                        a                      a                      a 
 Frequencies --  1495.3830              1502.3964              1695.0485
 Red. masses --     1.5447                 1.5586                13.3316
 Frc consts  --     0.0000                 0.0000                 0.0000
 IR Inten    --     2.9196                 0.5571               618.3043
 Raman Activ --     0.0000                 0.0000                 0.0000
 Depolar     --     0.0000                 0.0000                 0.0000
 Atom AN      X      Y      Z        X      Y      Z        X      Y      Z
   1   6     0.19   0.06   0.07     0.10  -0.13  -0.14    -0.00   0.00   0.00
   2   6     0.06   0.02   0.00     0.03  -0.02  -0.04     0.01  -0.00  -0.01
   3   6    -0.01   0.00   0.02    -0.00   0.00   0.01     0.04   0.05   0.05
   4   6    -0.01  -0.00  -0.00    -0.01   0.00  -0.01    -0.07  -0.63  -0.48
   5   8     0.00   0.00   0.00     0.00   0.00   0.00     0.03   0.47   0.35
   6   8     0.00  -0.00   0.00     0.00  -0.00  -0.00    -0.02   0.05   0.02
   7   6     0.00  -0.00  -0.00     0.00  -0.00  -0.00    -0.01  -0.01  -0.01
   8   6    -0.00   0.00  -0.00    -0.00   0.00   0.00     0.01   0.01   0.01
   9   1     0.02   0.37  -0.11    -0.44   0.32   0.46     0.00  -0.01  -0.00
  10   1    -0.13  -0.51  -0.25     0.29   0.10   0.43     0.00  -0.00   0.00
  11   1    -0.66  -0.13   0.07    -0.25   0.10  -0.31     0.01  -0.00   0.00
  12   1    -0.04   0.01  -0.01    -0.02  -0.02   0.02    -0.02  -0.00  -0.01
  13   1    -0.02  -0.00   0.04    -0.02   0.02   0.02    -0.02   0.01   0.02
  14   1     0.01  -0.03  -0.03     0.00  -0.00  -0.00     0.00  -0.01  -0.01
  15   1     0.00   0.02  -0.04    -0.01   0.00  -0.00     0.06   0.01   0.03
  16   1    -0.00   0.00   0.00    -0.00   0.00   0.01     0.02  -0.01  -0.01
  17   1    -0.00   0.00  -0.00     0.00   0.01   0.00     0.02  -0.02  -0.00
  18   1    -0.00  -0.00   0.00    -0.00  -0.00   0.01     0.00  -0.00  -0.00
  19   1     0.01  -0.00   0.00     0.01  -0.00  -0.01    -0.01   0.00  -0.00
  20   1    -0.00  -0.00  -0.00    -0.01  -0.01  -0.00    -0.01   0.00   0.00
                     43                     44                     45
                        a                      a                      a 
 Frequencies --  2925.4212              2947.4864              2978.4748
 Red. masses --     1.9841                 1.4590                 1.7469
 Frc consts  --     0.0000                 0.0000                 0.0000
 IR Inten    --    41.0719                38.4783                 9.0645
 Raman Activ --     0.0000                 0.0000                 0.0000
 Depolar     --     0.0000                 0.0000                 0.0000
 Atom AN      X      Y      Z        X      Y      Z        X      Y      Z
   1   6     0.00   0.00   0.00     0.00   0.00   0.00    -0.00   0.00  -0.00
   2   6    -0.00  -0.00  -0.00     0.00  -0.00  -0.00    -0.02   0.01   0.00
   3   6    -0.00   0.00  -0.00     0.00  -0.00  -0.00     0.04  -0.18   0.18
   4   6    -0.00   0.00  -0.00    -0.00   0.00   0.00     0.00  -0.00   0.01
   5   8    -0.00  -0.00   0.00    -0.00  -0.00  -0.00    -0.00  -0.00  -0.00
   6   8    -0.00  -0.00   0.00     0.02   0.00   0.01    -0.00   0.00   0.00
   7   6    -0.08  -0.18   0.22     0.01   0.16   0.12    -0.00  -0.00   0.00
   8   6     0.00   0.01  -0.01    -0.01  -0.01  -0.01    -0.00   0.00  -0.00
   9   1    -0.00  -0.00  -0.00    -0.00  -0.00  -0.00     0.01   0.00   0.00
  10   1     0.00   0.00  -0.00    -0.00   0.00   0.00     0.00  -0.00  -0.00
  11   1     0.00  -0.00  -0.00     0.00  -0.00  -0.00     0.00  -0.00  -0.00
  12   1    -0.00   0.00   0.00    -0.00   0.01   0.00     0.01  -0.09  -0.05
  13   1     0.00  -0.00   0.00    -0.00  -0.00  -0.00     0.08   0.02   0.06
  14   1     0.00  -0.00   0.00     0.00  -0.00   0.00    -0.14   0.65  -0.68
  15   1    -0.00   0.00   0.00    -0.00   0.00   0.00    -0.00   0.00   0.04
  16   1     0.16   0.61  -0.10    -0.19  -0.68   0.17    -0.00  -0.00   0.00
  17   1     0.11   0.05  -0.70     0.11   0.09  -0.64     0.00   0.00  -0.01
  18   1     0.00   0.00  -0.00     0.02   0.00   0.01     0.00   0.00   0.00
  19   1    -0.01  -0.04   0.00     0.01   0.03  -0.01    -0.00  -0.00   0.00
  20   1    -0.01  -0.00   0.04    -0.01  -0.00   0.03    -0.00  -0.00   0.00
                     46                     47                     48
                        a                      a                      a 
 Frequencies --  2983.8193              2997.2915              3012.2413
 Red. masses --     1.9260                 1.5282                 1.7480
 Frc consts  --     0.0000                 0.0000                 0.0000
 IR Inten    --    31.2170                41.7137                25.6243
 Raman Activ --     0.0000                 0.0000                 0.0000
 Depolar     --     0.0000                 0.0000                 0.0000
 Atom AN      X      Y      Z        X      Y      Z        X      Y      Z
   1   6     0.01   0.02   0.03     0.04   0.00   0.00     0.01  -0.02  -0.01
   2   6    -0.08  -0.21  -0.17    -0.18   0.07  -0.07     0.00   0.04   0.02
   3   6    -0.01   0.02   0.02    -0.01   0.01  -0.03    -0.05   0.23   0.11
   4   6     0.00   0.00   0.00     0.00   0.00   0.00    -0.00   0.01   0.00
   5   8    -0.00   0.00   0.00     0.00  -0.00  -0.00     0.00  -0.00  -0.00
   6   8     0.00  -0.00  -0.00    -0.00   0.00  -0.00     0.00  -0.00   0.00
   7   6    -0.00  -0.00  -0.00     0.00   0.00   0.00    -0.00   0.00   0.00
   8   6    -0.00  -0.00   0.00    -0.00   0.00   0.00    -0.00  -0.00  -0.00
   9   1    -0.08  -0.01  -0.06    -0.10  -0.02  -0.08     0.00  -0.00  -0.00
  10   1     0.01   0.00   0.00    -0.06  -0.00   0.04    -0.03  -0.00   0.02
  11   1     0.02  -0.08  -0.04     0.00   0.02   0.01    -0.01   0.06   0.03
  12   1    -0.10   0.72   0.37     0.02  -0.41  -0.23     0.01  -0.13  -0.07
  13   1     0.36   0.05   0.26     0.65   0.15   0.49    -0.02   0.00  -0.01
  14   1    -0.01   0.03  -0.03     0.02  -0.10   0.10    -0.01   0.04  -0.00
  15   1     0.03  -0.13  -0.06    -0.01   0.05   0.02     0.18  -0.85  -0.38
  16   1     0.00   0.00  -0.00    -0.00  -0.00   0.00    -0.00  -0.00   0.00
  17   1    -0.00  -0.00   0.00     0.00   0.00  -0.00     0.00   0.00  -0.00
  18   1    -0.00  -0.00  -0.00     0.00   0.00   0.00     0.00   0.00   0.00
  19   1     0.00   0.00  -0.00    -0.00  -0.00   0.00     0.00   0.00  -0.00
  20   1    -0.00  -0.00   0.00     0.00   0.00  -0.00    -0.00  -0.00   0.00
                     49                     50                     51
                        a                      a                      a 
 Frequencies --  3021.7443              3035.2267              3045.8299
 Red. masses --     1.8696                 1.7903                 1.4923
 Frc consts  --     0.0000                 0.0000                 0.0000
 IR Inten    --    96.0185                65.4133                40.5609
 Raman Activ --     0.0000                 0.0000                 0.0000
 Depolar     --     0.0000                 0.0000                 0.0000
 Atom AN      X      Y      Z        X      Y      Z        X      Y      Z
   1   6     0.21   0.09   0.15    -0.13   0.20   0.12    -0.16  -0.05   0.13
   2   6     0.04   0.02   0.04    -0.01   0.03   0.01    -0.01   0.00   0.00
   3   6     0.00  -0.00   0.00    -0.00   0.02   0.00    -0.00   0.00   0.00
   4   6    -0.00  -0.00   0.00    -0.00   0.00   0.00     0.00   0.00   0.00
   5   8     0.00   0.00  -0.00     0.00  -0.00  -0.00     0.00  -0.00  -0.00
   6   8     0.00   0.00  -0.00     0.00  -0.00   0.00    -0.00   0.00  -0.00
   7   6     0.00  -0.00  -0.00     0.00   0.00  -0.00     0.00   0.00   0.00
   8   6     0.00  -0.00   0.00    -0.00  -0.00  -0.00    -0.00  -0.00   0.00
   9   1    -0.71  -0.16  -0.56     0.12   0.06   0.13    -0.17  -0.04  -0.10
  10   1    -0.08   0.01   0.09     0.23   0.03  -0.14     0.78   0.02  -0.49
  11   1     0.06  -0.18  -0.08     0.10  -0.80  -0.41    -0.06   0.22   0.13
  12   1     0.01  -0.04  -0.02     0.01  -0.09  -0.05     0.00  -0.02  -0.01
  13   1    -0.13  -0.03  -0.10     0.01   0.01   0.01     0.03   0.01   0.02
  14   1    -0.00   0.01  -0.02     0.00  -0.01   0.01    -0.00  -0.00   0.00
  15   1     0.00  -0.00   0.00     0.01  -0.05  -0.03     0.00  -0.01  -0.01
  16   1     0.00   0.00  -0.00    -0.00  -0.00   0.00    -0.00  -0.00   0.00
  17   1    -0.00  -0.00   0.00    -0.00   0.00  -0.00     0.00   0.00  -0.00
  18   1    -0.00  -0.00  -0.00     0.00   0.00   0.00     0.00   0.00   0.00
  19   1    -0.00  -0.00   0.00     0.00   0.00  -0.00     0.00   0.00  -0.00
  20   1     0.00   0.00  -0.00    -0.00  -0.00   0.00     0.00   0.00  -0.00
                     52                     53                     54
                        a                      a                      a 
 Frequencies --  3055.7319              3058.8128              3064.8487
 Red. masses --     1.9372                 1.4044                 1.8348
 Frc consts  --     0.0000                 0.0000                 0.0000
 IR Inten    --    29.9983                19.4113                23.6582
 Raman Activ --     0.0000                 0.0000                 0.0000
 Depolar     --     0.0000                 0.0000                 0.0000
 Atom AN      X      Y      Z        X      Y      Z        X      Y      Z
   1   6    -0.00  -0.00  -0.00    -0.00   0.00   0.00    -0.00   0.00   0.00
   2   6     0.00  -0.00  -0.00     0.00  -0.00   0.00    -0.00   0.00   0.00
   3   6     0.00   0.00   0.00    -0.00   0.00   0.00     0.00   0.00   0.00
   4   6    -0.00  -0.00   0.00     0.00  -0.00  -0.00    -0.00   0.00   0.00
   5   8     0.00   0.00  -0.00     0.00  -0.00  -0.00    -0.00  -0.00  -0.00
   6   8     0.00   0.00  -0.00    -0.00   0.00   0.00     0.00  -0.00  -0.00
   7   6    -0.01  -0.01   0.02    -0.00   0.01   0.00     0.01   0.01   0.01
   8   6    -0.07  -0.15   0.24     0.01   0.18   0.07     0.22   0.08   0.14
   9   1     0.00   0.00   0.00     0.00   0.00   0.00     0.00   0.00   0.00
  10   1    -0.00  -0.00   0.00     0.00   0.00  -0.00     0.00   0.00  -0.00
  11   1     0.00  -0.00  -0.00     0.00  -0.00  -0.00    -0.00  -0.00  -0.00
  12   1     0.00   0.00   0.00     0.00   0.00   0.00     0.00  -0.00  -0.00
  13   1    -0.00  -0.00  -0.00    -0.00  -0.00  -0.00     0.00   0.00   0.00
  14   1    -0.00   0.00  -0.00     0.00   0.00  -0.00    -0.00   0.00  -0.00
  15   1     0.00  -0.00  -0.00     0.00  -0.00  -0.00     0.00  -0.00  -0.00
  16   1     0.01   0.03  -0.01    -0.01  -0.03   0.01    -0.00  -0.02   0.00
  17   1     0.01   0.01  -0.04     0.00   0.00  -0.02     0.00   0.00  -0.02
  18   1     0.01  -0.02   0.04     0.15   0.05   0.09    -0.81  -0.18  -0.46
  19   1     0.15   0.47  -0.07    -0.24  -0.76   0.17    -0.01  -0.11   0.05
  20   1     0.10   0.07  -0.80     0.07   0.08  -0.50     0.04   0.02  -0.09
