
                                 *****************
                                 * O   R   C   A *
                                 *****************

                                            #,                                       
                                            ###                                      
                                            ####                                     
                                            #####                                    
                                            ######                                   
                                           ########,                                 
                                     ,,################,,,,,                         
                               ,,#################################,,                 
                          ,,##########################################,,             
                       ,#########################################, ''#####,          
                    ,#############################################,,   '####,        
                  ,##################################################,,,,####,       
                ,###########''''           ''''###############################       
              ,#####''   ,,,,##########,,,,          '''####'''          '####       
            ,##' ,,,,###########################,,,                        '##       
           ' ,,###''''                  '''############,,,                           
         ,,##''                                '''############,,,,        ,,,,,,###''
      ,#''                                            '''#######################'''  
     '                                                          ''''####''''         
             ,#######,   #######,   ,#######,      ##                                
            ,#'     '#,  ##    ##  ,#'     '#,    #''#        ,####,   ,####,        
            ##       ##  ##   ,#'  ##            #'  '#       #'       #'  '#        
            ##       ##  #######   ##           ,######,      #####,   #    #        
            '#,     ,#'  ##    ##  '#,     ,#' ,#      #,     #,   #   #,  ,#        
             '#######'   ##     ##  '#######'  #'      '#     '####' # '####'        



                #########################################################
                #                        -***-                          #
                #          Department of theory and spectroscopy        #
                #                                                       #
                #                      Frank Neese                      #
                #                                                       #
                #     Directorship, Architecture, Infrastructure        #
                #                    SHARK, DRIVERS                     #
                #        Core code/Algorithms in most modules           #
                #                                                       #
                #        Max Planck Institute fuer Kohlenforschung      #
                #                Kaiser Wilhelm Platz 1                 #
                #                 D-45470 Muelheim/Ruhr                 #
                #                      Germany                          #
                #                                                       #
                #                  All rights reserved                  #
                #                        -***-                          #
                #########################################################


                         Program Version 6.0.0  -   RELEASE  -


 With contributions from (in alphabetic order):
   Daniel Aravena         : Magnetic Suceptibility
   Michael Atanasov       : Ab Initio Ligand Field Theory (pilot matlab implementation)
   Alexander A. Auer      : GIAO ZORA, VPT2 properties, NMR spectrum
   Ute Becker             : All parallelization in ORCA, NUMFREQ, NUMCALC
   Giovanni Bistoni       : ED, misc. LED, open-shell LED, HFLD
   Martin Brehm           : Molecular dynamics
   Dmytro Bykov           : pre 5.0 version of the SCF Hessian
   Marcos Casanova-Páez   : Triplet and SCS-CIS(D). UHF-(DLPNO)-IP/EA/STEOM-CCSD. UHF-CVS-IP/STEOM-CCSD
   Vijay G. Chilkuri      : MRCI spin determinant printing, contributions to CSF-ICE
   Pauline Colinet        : FMM embedding
   Dipayan Datta          : RHF DLPNO-CCSD density
   Achintya Kumar Dutta   : EOM-CC, STEOM-CC
   Nicolas Foglia         : Exact transition moments, OPA infrastructure, MCD improvements
   Dmitry Ganyushin       : Spin-Orbit,Spin-Spin,Magnetic field MRCI
   Miquel Garcia          : C-PCM and meta-GGA Hessian, CCSD/C-PCM, Gaussian charge scheme
   Tiago L. C. Gouveia    : GS-ROHF, GS-ROCIS
   Yang Guo               : DLPNO-NEVPT2, F12-NEVPT2, CIM, IAO-localization
   Andreas Hansen         : Spin unrestricted coupled pair/coupled cluster methods
   Ingolf Harden          : AUTO-CI MPn and infrastructure 
   Benjamin Helmich-Paris : MC-RPA, TRAH-(SCF,CASSCF), AVAS, COSX integrals, SCF dyn. polar.
   Lee Huntington         : MR-EOM, pCC
   Robert Izsak           : Overlap fitted RIJCOSX, COSX-SCS-MP3, EOM
   Riya Kayal             : Wick's Theorem for AUTO-CI, AUTO-CI UHF-CCSDT
   Emily Kempfer          : AUTO-CI, RHF CISDT and CCSDT
   Christian Kollmar      : KDIIS, OOCD, Brueckner-CCSD(T), CCSD density, CASPT2, CASPT2-K, improved NEVPT2
   Axel Koslowski         : Symmetry handling
   Simone Kossmann        : Meta GGA functionals, TD-DFT gradient, OOMP2, (MP2 Hessian; deprecated post 5.0)
   Lucas Lang             : DCDCAS
   Marvin Lechner         : AUTO-CI (C++ implementation), FIC-MRCC
   Spencer Leger          : CASSCF response
   Dagmar Lenk            : GEPOL surface, SMD, ORCA-2-JSON
   Dimitrios Liakos       : Extrapolation schemes; Compound Job, initial MDCI parallelization
   Dimitrios Manganas     : Further ROCIS development; embedding schemes. LFT, Crystal Embedding
   Dimitrios Pantazis     : SARC Basis sets
   Anastasios Papadopoulos: AUTO-CI, single reference methods and gradients
   Taras Petrenko         : pre 6.0 DFT Hessian and TD-DFT gradient, (ASA, deprecated), ECA, 1-Electron XAS/XES, NRVS
   Peter Pinski           : DLPNO-MP2, DLPNO-MP2 Gradient
   Christoph Reimann      : Effective Core Potentials
   Marius Retegan         : Local ZFS, SOC
   Christoph Riplinger    : Optimizer, TS searches, QM/MM, DLPNO-CCSD(T), (RO)-DLPNO pert. Triples
   Michael Roemelt        : Original ROCIS implementation
   Masaaki Saitow         : Open-shell DLPNO-CCSD energy and density
   Barbara Sandhoefer     : DKH picture change effects
   Kantharuban Sivalingam : CASSCF convergence/infrastructure, NEVPT2 and variants, FIC-MRCI
   Bernardo de Souza      : ESD, SOC TD-DFT
   Georgi Stoychev        : AutoAux, RI-MP2 NMR, DLPNO-MP2 response, X2C
   Van Anh Tran           : RI-MP2 g-tensors
   Willem Van den Heuvel  : Paramagnetic NMR
   Zikuan Wang            : NOTCH, Electric field optimization 
   Frank Wennmohs         : Technical directorship and infrastructure
   Hang Xu                : AUTO-CI-Response properties 


 We gratefully acknowledge several colleagues who have allowed us to
 interface, adapt or use parts of their codes:
   Stefan Grimme, W. Hujo, H. Kruse, P. Pracht,  : VdW corrections, initial TS optimization,
                  C. Bannwarth, S. Ehlert,         DFT functionals, gCP, sTDA/sTD-DF
                  L. Wittmann, M. Mueller
   Ed Valeev, F. Pavosevic, A. Kumar             : LibInt (2-el integral package), F12 methods
   Garnet Chan, S. Sharma, J. Yang, R. Olivares  : DMRG
   Ulf Ekstrom                                   : XCFun DFT Library
   Mihaly Kallay                                 : mrcc  (arbitrary order and MRCC methods)
   Frank Weinhold                                : gennbo (NPA and NBO analysis)
   Simon Mueller                                 : openCOSMO-RS
   Christopher J. Cramer and Donald G. Truhlar   : smd solvation model
   Lars Goerigk                                  : TD-DFT with DH, B97 family of functionals
   V. Asgeirsson, H. Jonsson                     : NEB implementation
   FAccTs GmbH                                   : IRC, NEB, NEB-TS, DLPNO-Multilevel, CI-OPT
                                                   MM, QMMM, 2- and 3-layer-ONIOM, Crystal-QMMM,
                                                   LR-CPCM, SF, NACMEs, symmetry and pop. for TD-DFT,
                                                   nearIR, NL-DFT gradient (VV10), updates on ESD,
                                                   ML-optimized integration grids, MBIS, APM,
                                                   GOAT, DOCKER, SOLVATOR, interface openCOSMO-RS
   S Lehtola, MJT Oliveira, MAL Marques          : LibXC Library
   Liviu Ungur et al                             : ANISO software


 Your calculation uses the libint2 library for the computation of 2-el integrals
 For citations please refer to: http://libint.valeyev.net

 Your ORCA version has been built with support for libXC version: 6.2.2
 For citations please refer to: https://libxc.gitlab.io

 This ORCA versions uses:
   CBLAS   interface :  Fast vector & matrix operations
   LAPACKE interface :  Fast linear algebra routines
   SCALAPACK package :  Parallel linear algebra routines
   Shared memory     :  Shared parallel matrices
   BLAS/LAPACK       :  OpenBLAS 0.3.27  USE64BITINT DYNAMIC_ARCH NO_AFFINITY SkylakeX SINGLE_THREADED
        Core in use  :  SkylakeX
   Copyright (c) 2011-2014, The OpenBLAS Project


Your calculation utilizes the geometrical counterpoise correction gCP
Please cite in your paper:
H.Kruse, S. Grimme J.Chem.Phys., 136, (2012), 154101 
   

Your calculation utilizes the atom-pairwise dispersion correction
based on EEQ partial charges (D4)


================================================================================

----- Orbital basis set information -----
Your calculation utilizes the basis: def2-mTZVPP
   Stefan Grimme, Andreas Hansen, Sebastian Ehlert, and Jan-Michael Mewes 
   J. Chem. Phys. 154, 064103 (2021). DOI: 10.1063/5.0040021

----- AuxJ basis set information -----
Your calculation utilizes the auxiliary basis: def2/J
   F. Weigend, Phys. Chem. Chem. Phys. 8, 1057 (2006).

================================================================================
                                        WARNINGS
                       Please study these warnings very carefully!
================================================================================

Using LibXC functional ID 497 : Re-regularized SCAN exchange by Furness et al
[ 1]  J. W. Furness, A. D. Kaplan, J. Ning, J. P. Perdew, and J. Sun.,  J. Phys. Chem. Lett. 11, 8208-8215 (2020)
[ 2]  J. W. Furness, A. D. Kaplan, J. Ning, J. P. Perdew, and J. Sun.,  J. Phys. Chem. Lett. 11, 9248-9248 (2020)
Using LibXC functional ID 498 : Re-regularized SCAN correlation by Furness et al
[ 1]  J. W. Furness, A. D. Kaplan, J. Ning, J. P. Perdew, and J. Sun.,  J. Phys. Chem. Lett. 11, 8208-8215 (2020)
[ 2]  J. W. Furness, A. D. Kaplan, J. Ning, J. P. Perdew, and J. Sun.,  J. Phys. Chem. Lett. 11, 9248-9248 (2020)
Using LibXC functional ID 497 : Re-regularized SCAN exchange by Furness et al
[ 1]  J. W. Furness, A. D. Kaplan, J. Ning, J. P. Perdew, and J. Sun.,  J. Phys. Chem. Lett. 11, 8208-8215 (2020)
[ 2]  J. W. Furness, A. D. Kaplan, J. Ning, J. P. Perdew, and J. Sun.,  J. Phys. Chem. Lett. 11, 9248-9248 (2020)
Using LibXC functional ID 498 : Re-regularized SCAN correlation by Furness et al
[ 1]  J. W. Furness, A. D. Kaplan, J. Ning, J. P. Perdew, and J. Sun.,  J. Phys. Chem. Lett. 11, 8208-8215 (2020)
[ 2]  J. W. Furness, A. D. Kaplan, J. Ning, J. P. Perdew, and J. Sun.,  J. Phys. Chem. Lett. 11, 9248-9248 (2020)

================================================================================
                                       INPUT FILE
================================================================================
NAME = sp_gas.inp
|  1> ! r2scan-3c def2/J RI DEFGRID2 scfconv6 printgap
|  2> %output
|  3>     printlevel normal
|  4> end
|  5> * xyz 0 1
|  6> C -2.5344942489 -1.2953028375 -0.2315808051
|  7> C -2.5517650805 0.190485995 0.106433856
|  8> C -1.2623927861 0.6238710939 0.8118983387
|  9> C -0.0808425532 0.515974401 -0.1179450967
| 10> O -0.0047215204 1.0522886637 -1.2048096104
| 11> O 0.8759669637 -0.2414955017 0.398400585
| 12> C 2.0998648776 -0.4297036668 -0.332947111
| 13> C 3.2696395732 -0.3358659564 0.6308106846
| 14> H -2.399837457 -1.8905275133 0.6683665854
| 15> H -3.4685473365 -1.5871605516 -0.7040420331
| 16> H -1.7196277707 -1.5191738211 -0.9177114163
| 17> H -3.3985250786 0.4086892898 0.757574518
| 18> H -2.6615923662 0.7745807655 -0.8092593323
| 19> H -1.0715284109 0.0096804211 1.690953127
| 20> H -1.3476068642 1.6700443923 1.1102997136
| 21> H 2.0505757497 -1.4193226125 -0.796193562
| 22> H 2.1553413186 0.3309980851 -1.1180696248
| 23> H 3.1623326627 -1.07869729 1.4157240378
| 24> H 4.1937483508 -0.5146860707 0.0909996572
| 25> H 3.3068726796 0.6508001104 1.0843108004
| 26> *
| 27> 
| 28>                          ****END OF INPUT****
================================================================================

                       ****************************
                       * Single Point Calculation *
                       ****************************

---------------------------------
CARTESIAN COORDINATES (ANGSTROEM)
---------------------------------
  C     -2.534494   -1.295303   -0.231581
  C     -2.551765    0.190486    0.106434
  C     -1.262393    0.623871    0.811898
  C     -0.080843    0.515974   -0.117945
  O     -0.004722    1.052289   -1.204810
  O      0.875967   -0.241496    0.398401
  C      2.099865   -0.429704   -0.332947
  C      3.269640   -0.335866    0.630811
  H     -2.399837   -1.890528    0.668367
  H     -3.468547   -1.587161   -0.704042
  H     -1.719628   -1.519174   -0.917711
  H     -3.398525    0.408689    0.757575
  H     -2.661592    0.774581   -0.809259
  H     -1.071528    0.009680    1.690953
  H     -1.347607    1.670044    1.110300
  H      2.050576   -1.419323   -0.796194
  H      2.155341    0.330998   -1.118070
  H      3.162333   -1.078697    1.415724
  H      4.193748   -0.514686    0.091000
  H      3.306873    0.650800    1.084311

----------------------------
CARTESIAN COORDINATES (A.U.)
----------------------------
  NO LB      ZA    FRAG     MASS         X           Y           Z
   0 C     6.0000    0    12.011   -4.789500   -2.447768   -0.437624
   1 C     6.0000    0    12.011   -4.822137    0.359966    0.201131
   2 C     6.0000    0    12.011   -2.385577    1.178946    1.534266
   3 C     6.0000    0    12.011   -0.152770    0.975050   -0.222884
   4 O     8.0000    0    15.999   -0.008922    1.988537   -2.276760
   5 O     8.0000    0    15.999    1.655338   -0.456360    0.752868
   6 C     6.0000    0    12.011    3.968170   -0.812022   -0.629179
   7 C     6.0000    0    12.011    6.178723   -0.634695    1.192059
   8 H     1.0000    0     1.008   -4.535036   -3.572579    1.263030
   9 H     1.0000    0     1.008   -6.554605   -2.999299   -1.330447
  10 H     1.0000    0     1.008   -3.249626   -2.870822   -1.734223
  11 H     1.0000    0     1.008   -6.422282    0.772311    1.431608
  12 H     1.0000    0     1.008   -5.029681    1.463746   -1.529279
  13 H     1.0000    0     1.008   -2.024895    0.018293    3.195438
  14 H     1.0000    0     1.008   -2.546608    3.155927    2.098162
  15 H     1.0000    0     1.008    3.875027   -2.682131   -1.504588
  16 H     1.0000    0     1.008    4.073005    0.625496   -2.112845
  17 H     1.0000    0     1.008    5.975943   -2.038442    2.675331
  18 H     1.0000    0     1.008    7.925036   -0.972616    0.171964
  19 H     1.0000    0     1.008    6.249084    1.229834    2.049050

--------------------------------
INTERNAL COORDINATES (ANGSTROEM)
--------------------------------
 C      0   0   0     0.000000000000     0.00000000     0.00000000
 C      1   0   0     1.523850598820     0.00000000     0.00000000
 C      2   1   0     1.532313184002   111.61400612     0.00000000
 C      3   2   1     1.507418808282   110.81290542    66.51007741
 O      4   3   2     1.214373036241   124.72219098    55.35319439
 O      4   3   2     1.325087909588   111.50166261   235.30140985
 C      6   4   3     1.438129990475   119.41659711   181.69582035
 C      7   6   4     1.518554392486   108.94951864   137.63373437
 H      1   2   3     1.087350068724   110.58231351    58.10014439
 H      1   2   3     1.086671849133   110.39987161   178.33284301
 H      1   2   3     1.088531492525   110.41560740   298.07351940
 H      2   1   3     1.090229028211   109.65939705   239.38279611
 H      2   1   3     1.091660546465   109.68000155   120.44419260
 H      3   2   1     1.089218395506   111.07103984   305.61570369
 H      3   2   1     1.091230218576   109.35009435   184.67151822
 H      7   6   4     1.093788073706   107.18368807   257.89466296
 H      7   6   4     1.094605934812   108.47806056    15.57411075
 H      8   7   6     1.086002824697   109.89621071    57.89714673
 H      8   7   6     1.085057423097   109.27705400   177.86358855
 H      8   7   6     1.086535129031   110.32866830   297.88123951

---------------------------
INTERNAL COORDINATES (A.U.)
---------------------------
 C      0   0   0     0.000000000000     0.00000000     0.00000000
 C      1   0   0     2.879660300782     0.00000000     0.00000000
 C      2   1   0     2.895652269160   111.61400612     0.00000000
 C      3   2   1     2.848608716774   110.81290542    66.51007741
 O      4   3   2     2.294832462915   124.72219098    55.35319439
 O      4   3   2     2.504053252492   111.50166261   235.30140985
 C      6   4   3     2.717671826977   119.41659711   181.69582035
 C      7   6   4     2.869651921262   108.94951864   137.63373437
 H      1   2   3     2.054793841589   110.58231351    58.10014439
 H      1   2   3     2.053512192303   110.39987161   178.33284301
 H      1   2   3     2.057026409020   110.41560740   298.07351940
 H      2   1   3     2.060234286570   109.65939705   239.38279611
 H      2   1   3     2.062939464026   109.68000155   120.44419260
 H      3   2   1     2.058324467535   111.07103984   305.61570369
 H      3   2   1     2.062126262168   109.35009435   184.67151822
 H      7   6   4     2.066959907854   107.18368807   257.89466296
 H      7   6   4     2.068505441359   108.47806056    15.57411075
 H      8   7   6     2.052247919343   109.89621071    57.89714673
 H      8   7   6     2.050461369232   109.27705400   177.86358855
 H      8   7   6     2.053253828752   110.32866830   297.88123951

---------------------
BASIS SET INFORMATION
---------------------
There are 3 groups of distinct atoms

 Group   1 Type C   : 11s6p1d contracted to 5s3p1d pattern {62111/411/1}
 Group   2 Type O   : 11s6p2d contracted to 5s3p2d pattern {62111/411/11}
 Group   3 Type H   : 4s1p contracted to 2s1p pattern {31/1}

Atom   0C    basis set group =>   1
Atom   1C    basis set group =>   1
Atom   2C    basis set group =>   1
Atom   3C    basis set group =>   1
Atom   4O    basis set group =>   2
Atom   5O    basis set group =>   2
Atom   6C    basis set group =>   1
Atom   7C    basis set group =>   1
Atom   8H    basis set group =>   3
Atom   9H    basis set group =>   3
Atom  10H    basis set group =>   3
Atom  11H    basis set group =>   3
Atom  12H    basis set group =>   3
Atom  13H    basis set group =>   3
Atom  14H    basis set group =>   3
Atom  15H    basis set group =>   3
Atom  16H    basis set group =>   3
Atom  17H    basis set group =>   3
Atom  18H    basis set group =>   3
Atom  19H    basis set group =>   3
---------------------------------
AUXILIARY/J BASIS SET INFORMATION
---------------------------------
There are 3 groups of distinct atoms

 Group   1 Type C   : 12s5p4d2f1g contracted to 6s4p3d1f1g pattern {711111/2111/211/2/1}
 Group   2 Type O   : 12s5p4d2f1g contracted to 6s4p3d1f1g pattern {711111/2111/211/2/1}
 Group   3 Type H   : 5s2p1d contracted to 3s1p1d pattern {311/2/1}

Atom   0C    basis set group =>   1
Atom   1C    basis set group =>   1
Atom   2C    basis set group =>   1
Atom   3C    basis set group =>   1
Atom   4O    basis set group =>   2
Atom   5O    basis set group =>   2
Atom   6C    basis set group =>   1
Atom   7C    basis set group =>   1
Atom   8H    basis set group =>   3
Atom   9H    basis set group =>   3
Atom  10H    basis set group =>   3
Atom  11H    basis set group =>   3
Atom  12H    basis set group =>   3
Atom  13H    basis set group =>   3
Atom  14H    basis set group =>   3
Atom  15H    basis set group =>   3
Atom  16H    basis set group =>   3
Atom  17H    basis set group =>   3
Atom  18H    basis set group =>   3
Atom  19H    basis set group =>   3

Checking for AutoStart:
The File: sp_gas.gbw exists
Trying to determine its content:
     ... Fine, the file contains calculation information
     ... Fine, the calculation information was read
     ... Fine, the file contains a basis set
     ... Fine, the basis set was read
     ... Fine, the file contains a geometry
     ... Fine, the geometry was read
     ... Fine, the file contains a set of orbitals
     ... Fine, the orbitals can be read
     => possible old guess file was deleted
     => GBW file was renamed to GES file
     => GES file is set as startup file
     => Guess is set to MORead
     ... now leaving AutoStart

------------------------------------------------------------------------------
                             ORCA STARTUP CALCULATIONS
                           -- RI-GTO INTEGRALS CHOSEN --
------------------------------------------------------------------------------
------------------------------------------------------------------------------
                   ___                                                        
                  /   \      - P O W E R E D   B Y -                         
                 /     \                                                     
                 |  |  |   _    _      __       _____    __    __             
                 |  |  |  | |  | |    /  \     |  _  \  |  |  /  |          
                  \  \/   | |  | |   /    \    | | | |  |  | /  /          
                 / \  \   | |__| |  /  /\  \   | |_| |  |  |/  /          
                |  |  |   |  __  | /  /__\  \  |    /   |      \           
                |  |  |   | |  | | |   __   |  |    \   |  |\   \          
                \     /   | |  | | |  |  |  |  | |\  \  |  | \   \       
                 \___/    |_|  |_| |__|  |__|  |_| \__\ |__|  \__/        
                                                                              
                      - O R C A' S   B I G   F R I E N D -                    
                                      &                                       
                       - I N T E G R A L  F E E D E R -                       
                                                                              
 v1 FN, 2020, v2 2021, v3 2022-2024                                           
------------------------------------------------------------------------------


----------------------
SHARK INTEGRAL PACKAGE
----------------------

Number of atoms                             ...     20
Number of basis functions                   ...    222
Number of shells                            ...    110
Maximum angular momentum                    ...      2
Integral batch strategy                     ... SHARK/LIBINT Hybrid
RI-J (if used) integral strategy            ... SPLIT-RIJ (Revised 2003 algorithm where possible)
Printlevel                                  ...      1
Contraction scheme used                     ... SEGMENTED contraction
Prescreening option                         ... SCHWARTZ
   Thresh                                   ... 1.000e-10
   Tcut                                     ... 1.000e-11
   Tpresel                                  ... 1.000e-11 
Coulomb Range Separation                    ... NOT USED
Exchange Range Separation                   ... NOT USED
Multipole approximations                    ... NOT USED
Finite Nucleus Model                        ... NOT USED
CABS basis                                  ... NOT available
Auxiliary Coulomb fitting basis             ... AVAILABLE
   # of basis functions in Aux-J            ...    524
   # of shells in Aux-J                     ...    180
   Maximum angular momentum in Aux-J        ...      4
Auxiliary J/K fitting basis                 ... NOT available
Auxiliary Correlation fitting basis         ... NOT available
Auxiliary 'external' fitting basis          ... NOT available

Checking pre-screening integrals            ... done (  0.0 sec) Dimension = 110
Check shell pair data                       ... done (  0.0 sec)
Shell pair information
Shell pair cut-off parameter TPreSel        ...   1.0e-11
Total number of shell pairs                 ...      6105
Shell pairs after pre-screening             ...      5283
Total number of primitive shell pairs       ...     21533
Primitive shell pairs kept                  ...     13132
          la=0 lb=0:   1771 shell pairs
          la=1 lb=0:   1994 shell pairs
          la=1 lb=1:    582 shell pairs
          la=2 lb=0:    566 shell pairs
          la=2 lb=1:    317 shell pairs
          la=2 lb=2:     53 shell pairs

Calculating one electron integrals          ... done (  0.0 sec)
Calculating RI/J V-Matrix + Cholesky decomp.... done (  0.1 sec)
Calculating Nuclear repulsion               ... done (  0.0 sec) ENN=    392.738678266974 Eh

Diagonalization of the overlap matrix:
Smallest eigenvalue                        ... 1.926e-04
Time for diagonalization                   ...    0.012 sec
Threshold for overlap eigenvalues          ... 1.000e-07
Number of eigenvalues below threshold      ... 0
Time for construction of square roots      ...    0.017 sec
Total time needed                          ...    0.038 sec

-------------------
DFT GRID GENERATION
-------------------

General Integration Accuracy     IntAcc      ... 4.388
Radial Grid Type                 RadialGrid  ... OptM3 with GC (2021)
Angular Grid (max. ang.)         AngularGrid ... 4 (Lebedev-302)
Angular grid pruning method      GridPruning ... 4 (adaptive)
Weight generation scheme         WeightScheme... mBecke (2022)
Basis function cutoff            BFCut       ... 1.0000e-10
Integration weight cutoff        WCut        ... 1.0000e-14
Partially contracted basis set               ... off
Rotationally invariant grid construction     ... off
Angular grids for H and He will be reduced by one unit
Diffuse basis detected: some atoms will have their outermost
                        angular grid increased by 1.

Total number of grid points                  ...    87433
Total number of batches                      ...     1376
Average number of points per batch           ...       63
Average number of grid points per atom       ...     4372
Initializing property integral containers    ... done (  0.0 sec)

SHARK setup successfully completed in   1.4 seconds

Maximum memory used throughout the entire STARTUP-calculation: 39.3 MB
-------------------------------------------------------------------------------
                                 ORCA GUESS
                   Start orbitals & Density for SCF / CASSCF
-------------------------------------------------------------------------------

------------
SCF SETTINGS
------------
Hamiltonian:
 Density Functional     Method          .... DFT(GTOs)
  Functional kind                       .... Exchange
  Functional name                       .... Re-regularized SCAN exchange by Furness et al
  Functional family                     .... MGGA
  Functional refs                              
    [ 0] J. W. Furness, A. D. Kaplan, J. Ning, J. P. Perdew, and J. Sun.,  J. Phys. Chem. Lett. 11, 8208-8215 (2020), doi: 10.1021/acs.jpclett.0c02405
    [ 1] J. W. Furness, A. D. Kaplan, J. Ning, J. P. Perdew, and J. Sun.,  J. Phys. Chem. Lett. 11, 9248-9248 (2020), doi: 10.1021/acs.jpclett.0c03077
  Functional external parameters        .... 6
    Parameter  0 _c1        =  6.670000e-01 : c1 parameter        
    Parameter  1 _c2        =  8.000000e-01 : c2 parameter        
    Parameter  2 _d         =  1.240000e+00 : d parameter         
    Parameter  3 _k1        =  6.500000e-02 : k1 parameter        
    Parameter  4 _eta       =  1.000000e-03 : eta parameter       
    Parameter  5 _dp2       =  3.610000e-01 : dp2 parameter       
  Functional kind                       .... Correlation
  Functional name                       .... Re-regularized SCAN correlation by Furness et al
  Functional family                     .... MGGA
  Functional refs                              
    [ 0] J. W. Furness, A. D. Kaplan, J. Ning, J. P. Perdew, and J. Sun.,  J. Phys. Chem. Lett. 11, 8208-8215 (2020), doi: 10.1021/acs.jpclett.0c02405
    [ 1] J. W. Furness, A. D. Kaplan, J. Ning, J. P. Perdew, and J. Sun.,  J. Phys. Chem. Lett. 11, 9248-9248 (2020), doi: 10.1021/acs.jpclett.0c03077
  Functional external parameters        .... 1
    Parameter  0 _eta       =  1.000000e-03 : Regularization parameter
 Gradients option       PostSCFGGA      .... off
 RI-approximation to the Coulomb term is turned on
   Number of AuxJ basis functions       .... 524


General Settings:
 Integral files         IntName         .... sp_gas
 Hartree-Fock type      HFTyp           .... RHF
 Total Charge           Charge          ....    0
 Multiplicity           Mult            ....    1
 Number of Electrons    NEL             ....   64
 Basis Dimension        Dim             ....  222
 Nuclear Repulsion      ENuc            ....    392.7386782670 Eh

Convergence Acceleration:
 AO-DIIS                CNVDIIS         .... on
   Start iteration      DIISMaxIt       ....    12
   Startup error        DIISStart       ....  0.200000
   # of expansion vecs  DIISMaxEq       ....     5
   Bias factor          DIISBfac        ....   1.050
   Max. coefficient     DIISMaxC        ....  10.000
 MO-DIIS                CNVKDIIS        .... off
 Trust-Rad. Augm. Hess. CNVTRAH         .... auto
   Auto Start mean grad. ratio tolernc. ....  1.125000
   Auto Start start iteration           ....     1
   Auto Start num. interpolation iter.  ....    10
   Max. Number of Micro iterations      ....    24
   Max. Number of Macro iterations      .... Maxiter - #DIIS iter
   Number of Davidson start vectors     ....     2
   Converg. threshold    (grad. norm)   ....   3.330e-04
   Grad. Scal. Fac. for Micro threshold ....   0.100
   Minimum threshold for Micro iter.    ....   1.000e-02
   NR start threshold (gradient norm)   ....   1.000e-04
   Initial trust radius                 ....   0.400
   Minimum AH scaling param. (alpha)    ....   1.000
   Maximum AH scaling param. (alpha)    .... 1000.000
   Quad. conv. algorithm                .... NR
   White noise on init. David. guess    .... on
   Maximum white noise                  ....   0.010
   Pseudo random numbers                .... off
   Inactive MOs                         .... canonical
   Orbital update algorithm             .... Taylor
   Preconditioner                       .... Diag
   Full preconditioner red. dimension   ....   250
   COSX micro iterations for RIJONX calc.... off
 SOSCF                  CNVSOSCF        .... on
   Start iteration      SOSCFMaxIt      ....   150
   Startup grad/error   SOSCFStart      ....  0.003300
   Hessian update       SOSCFHessUp     .... L-BFGS
 Level Shifting         CNVShift        .... on
   Level shift para.    LevelShift      ....    0.2500
   Turn off err/grad.   ShiftErr        ....    0.0010
 Zerner damping         CNVZerner       .... off
 Static damping         CNVDamp         .... on
   Fraction old density DampFac         ....    0.7000
   Max. Damping (<1)    DampMax         ....    0.9800
   Min. Damping (>=0)   DampMin         ....    0.0000
   Turn off err/grad.   DampErr         ....    0.1000

SCF Procedure:
 Maximum # iterations   MaxIter         ....   125
 SCF integral mode      SCFMode         .... Direct
   Integral package                     .... SHARK and LIBINT hybrid scheme
 Reset frequency        DirectResetFreq ....    20
 Integral Threshold     Thresh          ....  1.000e-10 Eh
 Primitive CutOff       TCut            ....  1.000e-11 Eh

Convergence Tolerance:
 Convergence Check Mode ConvCheckMode   .... Total+1el-Energy
 Convergence forced     ConvForced      .... 0
 Energy Change          TolE            ....  1.000e-06 Eh
 1-El. energy change                    ....  1.000e-03 Eh
 Orbital Gradient       TolG            ....  3.330e-04
 Orbital Rotation angle TolX            ....  3.330e-04
 DIIS Error             TolErr          ....  1.000e-06

---------------------
INITIAL GUESS: MOREAD
---------------------
Guess MOs are being read from file: sp_gas.ges
Input Geometry matches current geometry (good)
Atom 0: N(Shells)= 9 and 6 - projection required
Input basis set needs projection
NBasis(read)= 136
NBasis(calc)= 222
Basis set overlap was calculated
Using GuessMode=FMatrix for the initial guess
C*T matrix was formed
Effective Fockian was calculated
Effective Fockian was diagonalized
Initial density was built
                      ------------------
                      INITIAL GUESS DONE (   0.1 sec)
                      ------------------
             **** ENERGY FILE WAS UPDATED (sp_gas.en.tmp) ****
Finished Guess after   0.3 sec
Maximum memory used throughout the entire GUESS-calculation: 15.0 MB

-------------------------------------------------------------------------------------------
                                      ORCA LEAN-SCF
                              memory conserving SCF solver
-------------------------------------------------------------------------------------------

----------------------------------------D-I-I-S--------------------------------------------
Iteration    Energy (Eh)           Delta-E    RMSDP     MaxDP     DIISErr   Damp  Time(sec)
-------------------------------------------------------------------------------------------
               ***  Starting incremental Fock matrix formation  ***
    1    -386.0464685528059476     0.00e+00  3.63e-03  1.20e-01  6.26e-01  0.700   3.0
    2    -386.1045552116385693    -5.81e-02  2.97e-03  8.87e-02  4.40e-01  0.700   2.8
    3    -386.1456055884871716    -4.11e-02  2.19e-03  6.28e-02  3.08e-01  0.700   2.9
    4    -386.1744214736325489    -2.88e-02  1.57e-03  4.44e-02  2.16e-01  0.700   2.7
                               ***Turning on AO-DIIS***
    5    -386.1946314112397545    -2.02e-02  1.14e-03  3.18e-02  1.51e-01  0.700   2.6
    6    -386.2087967150759482    -1.42e-02  8.06e-04  2.24e-02  1.06e-01  0.700   2.6
    7    -386.2187258555795211    -9.93e-03  5.68e-04  1.58e-02  7.41e-02  0.700   2.7
    8    -386.2256820407039299    -6.96e-03  1.33e-03  3.67e-02  5.19e-02  0.000   2.5
                              *** Initializing SOSCF ***
---------------------------------------S-O-S-C-F--------------------------------------
Iteration    Energy (Eh)           Delta-E    RMSDP     MaxDP     MaxGrad    Time(sec)
--------------------------------------------------------------------------------------
    9    -386.2419331589433682    -1.63e-02  7.90e-06  3.00e-04  9.49e-05     2.7
               *** Restarting incremental Fock matrix formation ***
   10    -386.2419333210788750    -1.62e-07  4.73e-06  1.26e-04  3.78e-05     3.3
                  *** Gradient check signals convergence ***

               *****************************************************
               *                     SUCCESS                       *
               *           SCF CONVERGED AFTER  10 CYCLES          *
               *****************************************************

             **** ENERGY FILE WAS UPDATED (sp_gas.en.tmp) ****

----------------
TOTAL SCF ENERGY
----------------

Total Energy       :       -386.24193332107887 Eh          -10510.17733 eV

Components:
Nuclear Repulsion  :        392.73867826697386 Eh           10686.96275 eV
Electronic Energy  :       -778.98061158805274 Eh          -21197.14008 eV
One Electron Energy:      -1302.64301502340459 Eh          -35446.71852 eV
Two Electron Energy:        523.66240343535185 Eh           14249.57843 eV

Virial components:
Potential Energy   :       -770.88636966861486 Eh          -20976.88456 eV
Kinetic Energy     :        384.64443634753599 Eh           10466.70723 eV
Virial Ratio       :          2.00415317842294

DFT components:
N(Alpha)           :       31.999965995905 electrons
N(Beta)            :       31.999965995905 electrons
N(Total)           :       63.999931991809 electrons
E(X)               :      -52.078560176452 Eh       
E(C)               :       -2.037476492447 Eh       
E(XC)              :      -54.116036668899 Eh       

---------------
SCF CONVERGENCE
---------------

  Last Energy change         ...    1.6214e-07  Tolerance :   1.0000e-06
  Last MAX-Density change    ...    1.2631e-04  Tolerance :   1.0000e-05
  Last RMS-Density change    ...    4.7348e-06  Tolerance :   1.0000e-06
  Last DIIS Error            ...    9.4918e-05  Tolerance :   1.0000e-06
  Last Orbital Gradient      ...    3.7803e-05  Tolerance :   3.3300e-04
  Last Orbital Rotation      ...    1.4774e-04  Tolerance :   3.3300e-04


----------------
ORBITAL ENERGIES
----------------

  NO   OCC          E(Eh)            E(eV) 
   0   2.0000     -18.997046      -516.9359 
   1   2.0000     -18.926155      -515.0069 
   2   2.0000     -10.151115      -276.2259 
   3   2.0000     -10.089977      -274.5622 
   4   2.0000     -10.039890      -273.1993 
   5   2.0000     -10.033560      -273.0270 
   6   2.0000     -10.031903      -272.9820 
   7   2.0000     -10.019089      -272.6333 
   8   2.0000      -1.070901       -29.1407 
   9   2.0000      -0.974343       -26.5132 
  10   2.0000      -0.773060       -21.0360 
  11   2.0000      -0.742270       -20.1982 
  12   2.0000      -0.677568       -18.4376 
  13   2.0000      -0.620267       -16.8783 
  14   2.0000      -0.564766       -15.3681 
  15   2.0000      -0.527112       -14.3434 
  16   2.0000      -0.474083       -12.9004 
  17   2.0000      -0.458993       -12.4898 
  18   2.0000      -0.432115       -11.7584 
  19   2.0000      -0.425947       -11.5906 
  20   2.0000      -0.410831       -11.1793 
  21   2.0000      -0.382563       -10.4101 
  22   2.0000      -0.377149       -10.2627 
  23   2.0000      -0.366070        -9.9613 
  24   2.0000      -0.359242        -9.7755 
  25   2.0000      -0.340653        -9.2696 
  26   2.0000      -0.318016        -8.6537 
  27   2.0000      -0.309160        -8.4127 
  28   2.0000      -0.308730        -8.4010 
  29   2.0000      -0.303658        -8.2630 
  30   2.0000      -0.270143        -7.3510 
  31   2.0000      -0.235196        -6.4000 
  32   0.0000      -0.014200        -0.3864 
  33   0.0000       0.075454         2.0532 
  34   0.0000       0.096181         2.6172 
  35   0.0000       0.106719         2.9040 
  36   0.0000       0.119713         3.2575 
  37   0.0000       0.130927         3.5627 
  38   0.0000       0.133555         3.6342 
  39   0.0000       0.138697         3.7741 
  40   0.0000       0.146892         3.9971 
  41   0.0000       0.162188         4.4134 
  42   0.0000       0.164225         4.4688 
*Only the first 10 virtual orbitals were printed.

                    ********************************
                    * MULLIKEN POPULATION ANALYSIS *
                    ********************************

-----------------------
MULLIKEN ATOMIC CHARGES
-----------------------
   0 C :   -0.493314
   1 C :   -0.219029
   2 C :   -0.297515
   3 C :    0.349261
   4 O :   -0.430425
   5 O :   -0.166700
   6 C :   -0.161979
   7 C :   -0.443950
   8 H :    0.146311
   9 H :    0.148493
  10 H :    0.155947
  11 H :    0.144467
  12 H :    0.161473
  13 H :    0.162766
  14 H :    0.164919
  15 H :    0.143206
  16 H :    0.184649
  17 H :    0.152935
  18 H :    0.146582
  19 H :    0.151904
Sum of atomic charges:    0.0000000

--------------------------------
MULLIKEN REDUCED ORBITAL CHARGES
--------------------------------
  0 C s       :     3.333220  s :     3.333220
      pz      :     1.082005  p :     3.133017
      px      :     1.105743
      py      :     0.945270
      dz2     :     0.002804  d :     0.027077
      dxz     :     0.005813
      dyz     :     0.007265
      dx2y2   :     0.007175
      dxy     :     0.004020

  1 C s       :     3.192496  s :     3.192496
      pz      :     1.069300  p :     2.989651
      px      :     0.972892
      py      :     0.947458
      dz2     :     0.004545  d :     0.036882
      dxz     :     0.008079
      dyz     :     0.008397
      dx2y2   :     0.009873
      dxy     :     0.005989

  2 C s       :     3.220668  s :     3.220668
      pz      :     0.974592  p :     3.042057
      px      :     0.946735
      py      :     1.120730
      dz2     :     0.004918  d :     0.034791
      dxz     :     0.010711
      dyz     :     0.005851
      dx2y2   :     0.009481
      dxy     :     0.003829

  3 C s       :     3.171976  s :     3.171976
      pz      :     0.752348  p :     2.353368
      px      :     0.844812
      py      :     0.756209
      dz2     :     0.027358  d :     0.125395
      dxz     :     0.040067
      dyz     :     0.021875
      dx2y2   :     0.017550
      dxy     :     0.018545

  4 O s       :     3.839206  s :     3.839206
      pz      :     1.335285  p :     4.570726
      px      :     1.753067
      py      :     1.482373
      dz2     :     0.007393  d :     0.020494
      dxz     :     0.000207
      dyz     :     0.008638
      dx2y2   :     0.002643
      dxy     :     0.001613

  5 O s       :     3.698905  s :     3.698905
      pz      :     1.652343  p :     4.440529
      px      :     1.185401
      py      :     1.602785
      dz2     :     0.002409  d :     0.027266
      dxz     :     0.013285
      dyz     :     0.011397
      dx2y2   :     0.002954
      dxy     :    -0.002779

  6 C s       :     3.286486  s :     3.286486
      pz      :     0.949618  p :     2.822284
      px      :     0.752874
      py      :     1.119792
      dz2     :     0.006202  d :     0.053209
      dxz     :     0.014970
      dyz     :     0.010808
      dx2y2   :     0.014281
      dxy     :     0.006949

  7 C s       :     3.311340  s :     3.311340
      pz      :     1.020653  p :     3.106795
      px      :     0.989007
      py      :     1.097135
      dz2     :     0.002050  d :     0.025815
      dxz     :     0.007534
      dyz     :     0.007434
      dx2y2   :     0.006921
      dxy     :     0.001876

  8 H s       :     0.835475  s :     0.835475
      pz      :     0.008494  p :     0.018213
      px      :     0.003818
      py      :     0.005901

  9 H s       :     0.833201  s :     0.833201
      pz      :     0.005110  p :     0.018306
      px      :     0.008986
      py      :     0.004210

 10 H s       :     0.825860  s :     0.825860
      pz      :     0.006593  p :     0.018192
      px      :     0.007690
      py      :     0.003909

 11 H s       :     0.837594  s :     0.837594
      pz      :     0.006036  p :     0.017938
      px      :     0.008100
      py      :     0.003802

 12 H s       :     0.820663  s :     0.820663
      pz      :     0.008935  p :     0.017863
      px      :     0.003352
      py      :     0.005577

 13 H s       :     0.819457  s :     0.819457
      pz      :     0.008478  p :     0.017777
      px      :     0.003507
      py      :     0.005792

 14 H s       :     0.816950  s :     0.816950
      pz      :     0.004055  p :     0.018131
      px      :     0.003589
      py      :     0.010487

 15 H s       :     0.839384  s :     0.839384
      pz      :     0.004875  p :     0.017410
      px      :     0.002479
      py      :     0.010056

 16 H s       :     0.797102  s :     0.797102
      pz      :     0.007833  p :     0.018249
      px      :     0.002764
      py      :     0.007652

 17 H s       :     0.828804  s :     0.828804
      pz      :     0.007642  p :     0.018261
      px      :     0.003611
      py      :     0.007007

 18 H s       :     0.834970  s :     0.834970
      pz      :     0.005269  p :     0.018449
      px      :     0.009238
      py      :     0.003941

 19 H s       :     0.829870  s :     0.829870
      pz      :     0.004989  p :     0.018226
      px      :     0.003504
      py      :     0.009733


------------------------
MULLIKEN OVERLAP CHARGES
------------------------
B(  0-C ,  1-C ) :   0.4287 B(  0-C ,  2-C ) :  -0.2073 B(  0-C ,  8-H ) :   0.8521 
B(  0-C ,  9-H ) :   0.7897 B(  0-C , 10-H ) :   0.8420 B(  0-C , 11-H ) :  -0.0510 
B(  0-C , 12-H ) :  -0.0513 B(  1-C ,  2-C ) :   0.4477 B(  1-C ,  3-C ) :  -0.1124 
B(  1-C ,  8-H ) :  -0.0965 B(  1-C ,  9-H ) :  -0.0687 B(  1-C , 10-H ) :  -0.0870 
B(  1-C , 11-H ) :   0.8280 B(  1-C , 12-H ) :   0.8379 B(  1-C , 13-H ) :  -0.0837 
B(  1-C , 14-H ) :  -0.0597 B(  2-C ,  3-C ) :   0.2620 B(  2-C ,  4-O ) :  -0.1311 
B(  2-C ,  5-O ) :  -0.0777 B(  2-C , 10-H ) :  -0.0530 B(  2-C , 11-H ) :  -0.1175 
B(  2-C , 12-H ) :  -0.0549 B(  2-C , 13-H ) :   0.9093 B(  2-C , 14-H ) :   0.7539 
B(  3-C ,  4-O ) :   0.9471 B(  3-C ,  5-O ) :   0.3512 B(  3-C ,  6-C ) :  -0.2570 
B(  3-C , 10-H ) :   0.0616 B(  3-C , 13-H ) :  -0.1705 B(  3-C , 16-H ) :  -0.0553 
B(  4-O ,  5-O ) :  -0.2142 B(  5-O ,  6-C ) :   0.2484 B(  5-O ,  7-C ) :  -0.0686 
B(  5-O , 15-H ) :  -0.0807 B(  5-O , 16-H ) :  -0.0670 B(  6-C ,  7-C ) :   0.4835 
B(  6-C , 15-H ) :   0.7532 B(  6-C , 16-H ) :   0.8738 B(  6-C , 18-H ) :  -0.0809 
B(  6-C , 19-H ) :  -0.0818 B(  7-C , 16-H ) :  -0.0652 B(  7-C , 17-H ) :   0.8156 
B(  7-C , 18-H ) :   0.8214 B(  7-C , 19-H ) :   0.8346 B( 15-H , 16-H ) :  -0.0514 



                     *******************************
                     * LOEWDIN POPULATION ANALYSIS *
                     *******************************

----------------------
LOEWDIN ATOMIC CHARGES
----------------------
   0 C :   -0.416926
   1 C :   -0.293126
   2 C :   -0.231935
   3 C :    0.356195
   4 O :   -0.442743
   5 O :   -0.597015
   6 C :    0.030670
   7 C :   -0.386909
   8 H :    0.150599
   9 H :    0.152752
  10 H :    0.155728
  11 H :    0.152721
  12 H :    0.167305
  13 H :    0.176779
  14 H :    0.181465
  15 H :    0.174775
  16 H :    0.193971
  17 H :    0.158231
  18 H :    0.159102
  19 H :    0.158358

-------------------------------
LOEWDIN REDUCED ORBITAL CHARGES
-------------------------------
  0 C s       :     2.970724  s :     2.970724
      pz      :     1.151872  p :     3.382982
      px      :     1.154278
      py      :     1.076832
      dz2     :     0.006760  d :     0.063220
      dxz     :     0.014572
      dyz     :     0.016402
      dx2y2   :     0.017403
      dxy     :     0.008082

  1 C s       :     2.934826  s :     2.934826
      pz      :     1.129613  p :     3.278539
      px      :     1.067538
      py      :     1.081388
      dz2     :     0.009779  d :     0.079761
      dxz     :     0.018729
      dyz     :     0.017869
      dx2y2   :     0.022084
      dxy     :     0.011301

  2 C s       :     2.923757  s :     2.923757
      pz      :     1.075664  p :     3.234306
      px      :     1.029276
      py      :     1.129365
      dz2     :     0.010433  d :     0.073872
      dxz     :     0.021914
      dyz     :     0.014108
      dx2y2   :     0.020548
      dxy     :     0.006870

  3 C s       :     2.737182  s :     2.737182
      pz      :     0.952279  p :     2.633676
      px      :     0.897041
      py      :     0.784357
      dz2     :     0.058801  d :     0.272947
      dxz     :     0.086718
      dyz     :     0.051200
      dx2y2   :     0.034928
      dxy     :     0.041300

  4 O s       :     3.549280  s :     3.549280
      pz      :     1.481677  p :     4.671980
      px      :     1.695741
      py      :     1.494562
      dz2     :     0.067257  d :     0.221483
      dxz     :     0.054691
      dyz     :     0.055008
      dx2y2   :     0.024185
      dxy     :     0.020341

  5 O s       :     3.463744  s :     3.463744
      pz      :     1.653472  p :     4.657615
      px      :     1.374839
      py      :     1.629304
      dz2     :     0.073247  d :     0.475657
      dxz     :     0.120095
      dyz     :     0.067686
      dx2y2   :     0.113344
      dxy     :     0.101284

  6 C s       :     2.868553  s :     2.868553
      pz      :     1.012345  p :     2.981320
      px      :     0.867652
      py      :     1.101323
      dz2     :     0.011416  d :     0.119457
      dxz     :     0.035603
      dyz     :     0.025977
      dx2y2   :     0.033794
      dxy     :     0.012667

  7 C s       :     2.973591  s :     2.973591
      pz      :     1.119076  p :     3.352389
      px      :     1.075531
      py      :     1.157781
      dz2     :     0.004469  d :     0.060929
      dxz     :     0.018033
      dyz     :     0.018368
      dx2y2   :     0.016694
      dxy     :     0.003364

  8 H s       :     0.806012  s :     0.806012
      pz      :     0.021063  p :     0.043389
      px      :     0.008420
      py      :     0.013906

  9 H s       :     0.803750  s :     0.803750
      pz      :     0.011789  p :     0.043498
      px      :     0.022217
      py      :     0.009492

 10 H s       :     0.800525  s :     0.800525
      pz      :     0.015889  p :     0.043747
      px      :     0.018953
      py      :     0.008905

 11 H s       :     0.803982  s :     0.803982
      pz      :     0.014879  p :     0.043297
      px      :     0.019507
      py      :     0.008911

 12 H s       :     0.788804  s :     0.788804
      pz      :     0.022598  p :     0.043891
      px      :     0.007605
      py      :     0.013688

 13 H s       :     0.779202  s :     0.779202
      pz      :     0.021135  p :     0.044019
      px      :     0.008333
      py      :     0.014551

 14 H s       :     0.774315  s :     0.774315
      pz      :     0.009175  p :     0.044221
      px      :     0.008761
      py      :     0.026285

 15 H s       :     0.784911  s :     0.784911
      pz      :     0.010804  p :     0.040314
      px      :     0.005689
      py      :     0.023821

 16 H s       :     0.761403  s :     0.761403
      pz      :     0.018580  p :     0.044626
      px      :     0.006688
      py      :     0.019358

 17 H s       :     0.798318  s :     0.798318
      pz      :     0.018489  p :     0.043450
      px      :     0.007846
      py      :     0.017115

 18 H s       :     0.797027  s :     0.797027
      pz      :     0.012682  p :     0.043870
      px      :     0.022431
      py      :     0.008758

 19 H s       :     0.798295  s :     0.798295
      pz      :     0.011505  p :     0.043347
      px      :     0.007549
      py      :     0.024293


---------------------------------
LOEWDIN BOND ORDERS (THRESH 0.050000)
---------------------------------
B(  0-C ,  1-C ) :   1.1419 B(  0-C ,  2-C ) :   0.0670 B(  0-C ,  8-H ) :   0.9294 
B(  0-C ,  9-H ) :   0.9295 B(  0-C , 10-H ) :   0.9211 B(  1-C ,  2-C ) :   1.0862 
B(  1-C ,  3-C ) :   0.0705 B(  1-C , 11-H ) :   0.8943 B(  1-C , 12-H ) :   0.8864 
B(  2-C ,  3-C ) :   0.9208 B(  2-C ,  4-O ) :   0.1800 B(  2-C ,  5-O ) :   0.1869 
B(  2-C , 13-H ) :   0.8648 B(  2-C , 14-H ) :   0.8641 B(  3-C ,  4-O ) :   2.1650 
B(  3-C ,  5-O ) :   1.4568 B(  3-C ,  6-C ) :   0.0856 B(  4-O ,  5-O ) :   0.4615 
B(  4-O ,  6-C ) :   0.0729 B(  5-O ,  6-C ) :   1.2925 B(  5-O ,  7-C ) :   0.1676 
B(  5-O , 15-H ) :   0.0957 B(  5-O , 16-H ) :   0.0895 B(  6-C ,  7-C ) :   1.0901 
B(  6-C , 15-H ) :   0.8327 B(  6-C , 16-H ) :   0.8113 B(  7-C , 17-H ) :   0.9225 
B(  7-C , 18-H ) :   0.9194 B(  7-C , 19-H ) :   0.9247 

------------------------------------------
LOEWDIN REDUCED ORBITAL POPULATIONS PER MO
-------------------------------------------
THRESHOLD FOR PRINTING IS 0.1%%
                      0         1         2         3         4         5   
                 -18.99705 -18.92615 -10.15111 -10.08998 -10.03989 -10.03356
                   2.00000   2.00000   2.00000   2.00000   2.00000   2.00000
                  --------  --------  --------  --------  --------  --------
 1 C  s               0.0       0.0       0.0       0.0       0.0      99.7
 2 C  s               0.0       0.0       0.0       0.0      99.7       0.0
 3 C  s               0.0       0.0      98.9       0.0       0.0       0.0
 4 O  s               0.0      99.9       0.0       0.0       0.0       0.0
 4 O  pz              0.0       0.0       0.2       0.0       0.0       0.0
 4 O  dz2             0.0       0.0       0.2       0.0       0.0       0.0
 4 O  dyz             0.0       0.0       0.2       0.0       0.0       0.0
 5 O  s              99.9       0.0       0.0       0.0       0.0       0.0
 5 O  dxz             0.0       0.0       0.1       0.2       0.0       0.0
 5 O  dx2y2           0.0       0.0       0.0       0.1       0.0       0.0
 5 O  dxy             0.0       0.0       0.2       0.0       0.0       0.0
 6 C  s               0.0       0.0       0.0      99.4       0.0       0.0

                      6         7         8         9        10        11   
                 -10.03190 -10.01909  -1.07090  -0.97434  -0.77306  -0.74227
                   2.00000   2.00000   2.00000   2.00000   2.00000   2.00000
                  --------  --------  --------  --------  --------  --------
 0 C  s               0.0      99.7       0.0       0.0       8.1       5.6
 0 C  pz              0.0       0.0       0.0       0.0       0.2       0.1
 0 C  py              0.0       0.0       0.0       0.0       2.1       0.8
 1 C  s               0.0       0.0       0.1       0.1      18.0       8.0
 1 C  pz              0.0       0.0       0.0       0.0       0.2       0.0
 1 C  px              0.0       0.0       0.2       0.1       1.5       0.1
 1 C  py              0.0       0.1       0.0       0.0       0.1       0.3
 2 C  s               0.0       0.0       1.0       0.3      19.5       1.7
 2 C  pz              0.0       0.0       0.6       0.5       0.6       0.1
 2 C  px              0.0       0.0       1.4       0.1       0.5       2.2
 2 C  py              0.0       0.0       0.0       0.1       0.4       0.0
 3 C  s               0.0       0.0      16.1       4.3       2.7       0.8
 3 C  pz              0.0       0.0       0.1      14.5       5.1       0.6
 3 C  px              0.0       0.0       4.2       1.6       4.1       1.1
 3 C  py              0.0       0.0       0.7       6.9       0.3       0.7
 3 C  dz2             0.0       0.0       0.0       1.0       0.0       0.0
 3 C  dxz             0.0       0.0       0.1       0.2       0.0       0.1
 3 C  dyz             0.0       0.0       0.5       0.4       0.0       0.0
 3 C  dxy             0.0       0.0       0.4       0.2       0.0       0.1
 4 O  s               0.0       0.0      11.4      42.9       1.6       0.1
 4 O  pz              0.0       0.0       2.3       3.1       0.3       0.0
 4 O  px              0.0       0.0       0.0       0.1       0.1       0.0
 4 O  py              0.0       0.0       0.7       0.6       0.0       0.0
 4 O  dz2             0.0       0.0       0.3       0.1       0.3       0.1
 4 O  dxz             0.0       0.0       0.1       0.1       0.2       0.0
 4 O  dyz             0.0       0.0       0.9       0.1       0.1       0.1
 5 O  s               0.0       0.0      42.7      15.4       0.0       1.0
 5 O  pz              0.0       0.0       1.7       0.2       0.3       0.2
 5 O  px              0.0       0.0       0.2       0.6       5.2       8.3
 5 O  py              0.0       0.0       0.9       0.3       0.6       1.1
 5 O  dxz             0.0       0.0       0.0       0.6       0.1       0.6
 5 O  dyz             0.0       0.0       0.2       0.6       0.0       0.0
 5 O  dx2y2           0.0       0.0       0.1       0.1       0.0       0.9
 5 O  dxy             0.0       0.0       0.4       0.2       0.1       0.0
 6 C  s               0.0       0.0       4.4       1.8       4.9      16.8
 6 C  pz              0.0       0.0       0.9       0.8       0.2       0.7
 6 C  px              0.1       0.0       4.3       0.9       0.2       2.9
 6 C  py              0.0       0.0       0.3       0.0       0.0       0.0
 6 C  dxz             0.0       0.0       0.2       0.1       0.0       0.1
 6 C  dx2y2           0.0       0.0       0.2       0.1       0.0       0.0
 7 C  s              99.7       0.0       0.3       0.2       3.1      20.1
 7 C  pz              0.0       0.0       0.1       0.0       0.2       0.8
 7 C  px              0.0       0.0       0.6       0.3       0.4       1.0
 8 H  s               0.0       0.0       0.0       0.0       1.1       0.8
 9 H  s               0.0       0.0       0.0       0.0       1.0       0.8
10 H  s               0.0       0.0       0.0       0.0       1.1       0.8
11 H  s               0.0       0.0       0.0       0.0       2.4       1.2
11 H  px              0.0       0.0       0.0       0.0       0.1       0.1
12 H  s               0.0       0.0       0.0       0.0       2.3       1.2
12 H  pz              0.0       0.0       0.0       0.0       0.2       0.1
13 H  s               0.0       0.0       0.1       0.0       3.0       0.1
13 H  pz              0.0       0.0       0.0       0.0       0.2       0.0
14 H  s               0.0       0.0       0.0       0.0       2.7       0.3
14 H  py              0.0       0.0       0.0       0.0       0.2       0.0
15 H  s               0.0       0.0       0.3       0.1       0.7       2.9
15 H  py              0.0       0.0       0.0       0.0       0.1       0.2
16 H  s               0.0       0.0       0.4       0.1       0.7       2.5
16 H  pz              0.0       0.0       0.0       0.0       0.0       0.1
16 H  py              0.0       0.0       0.0       0.0       0.0       0.1
17 H  s               0.0       0.0       0.0       0.0       0.5       3.2
17 H  pz              0.0       0.0       0.0       0.0       0.0       0.2
17 H  py              0.0       0.0       0.0       0.0       0.0       0.1
18 H  s               0.0       0.0       0.0       0.0       0.4       3.4
18 H  px              0.0       0.0       0.0       0.0       0.0       0.2
19 H  s               0.0       0.0       0.0       0.0       0.4       3.1
19 H  py              0.0       0.0       0.0       0.0       0.0       0.2

                     12        13        14        15        16        17   
                  -0.67757  -0.62027  -0.56477  -0.52711  -0.47408  -0.45899
                   2.00000   2.00000   2.00000   2.00000   2.00000   2.00000
                  --------  --------  --------  --------  --------  --------
 0 C  s              19.8       6.3       6.8       0.7       0.1       0.1
 0 C  pz              0.0       0.1       0.2       0.0       1.4       2.3
 0 C  px              0.1       0.0       0.3       0.1       0.7       0.4
 0 C  py              0.1       1.1       6.7       1.5       0.8       0.0
 0 C  dx2y2           0.0       0.0       0.1       0.0       0.0       0.0
 1 C  s               2.8       1.7      13.0       1.9       0.1       0.0
 1 C  pz              1.4       0.7       0.0       0.4       7.2       5.4
 1 C  px              2.5       0.3       2.7       1.0       0.9       0.1
 1 C  py              5.4       3.5       3.9       0.1       0.0       0.8
 1 C  dx2y2           0.2       0.1       0.0       0.0       0.0       0.0
 2 C  s              12.1       3.2       2.2       1.8       1.4       0.3
 2 C  pz              0.2       0.1       0.6       1.3      14.6       6.0
 2 C  px              2.3       2.5       6.8       0.1       1.9       1.5
 2 C  py              0.5       0.5       0.1       0.5       0.6       6.9
 2 C  dxz             0.1       0.0       0.2       0.0       0.1       0.1
 3 C  s               2.6       1.7       0.9       2.1       1.3       1.5
 3 C  pz              3.9       0.8       1.0       0.4       0.1       0.8
 3 C  px              2.8       1.2       2.1       2.2      10.2       0.4
 3 C  py              0.1       0.9       0.2       2.0       1.3       7.3
 3 C  dxz             0.1       0.1       0.1       0.0       0.0       0.0
 3 C  dx2y2           0.0       0.0       0.0       0.0       0.0       0.1
 4 O  s               0.7       0.2       0.3       1.7       0.9       4.6
 4 O  pz              0.5       0.2       0.3       0.7       1.0      10.7
 4 O  px              0.2       0.0       0.1       0.9       6.6       0.3
 4 O  py              0.0       0.1       0.0       1.4       0.8       0.1
 4 O  dz2             0.3       0.1       0.1       0.0       0.0       0.5
 4 O  dxz             0.2       0.0       0.1       0.1       0.7       0.0
 4 O  dyz             0.0       0.1       0.0       0.3       0.1       0.0
 4 O  dx2y2           0.0       0.1       0.0       0.0       0.0       0.2
 4 O  dxy             0.0       0.0       0.0       0.1       0.3       0.0
 5 O  s               0.8       0.0       1.4       4.1       0.3       0.2
 5 O  pz              0.3       0.7       0.4       6.2       0.4       0.1
 5 O  px              1.6      12.8       0.1      12.2       0.5       6.9
 5 O  py              0.4       3.2       0.0       5.3      10.1       8.3
 5 O  dz2             0.4       0.1       0.1       0.1       0.2       0.3
 5 O  dxz             0.0       1.0       0.7       0.4       0.3       0.1
 5 O  dyz             0.0       0.1       0.1       0.0       0.3       0.2
 5 O  dx2y2           0.5       0.0       0.3       0.0       0.2       0.0
 5 O  dxy             0.3       0.0       0.3       0.0       0.7       0.0
 6 C  s               0.3       4.7       4.6       4.4       0.0       0.1
 6 C  pz              0.2       1.1       3.0      16.2       0.4       1.3
 6 C  px              2.9       5.3       0.1       3.4       0.1       0.0
 6 C  py              0.0       0.2       0.2       0.1      11.6      10.6
 6 C  dxz             0.2       0.3       0.0       0.3       0.0       0.0
 6 C  dx2y2           0.0       0.0       0.1       0.2       0.0       0.0
 7 C  s               7.0      14.2       2.2       0.3       0.0       0.1
 7 C  pz              0.0       0.9       1.8       4.8       0.0       0.0
 7 C  px              0.1       2.6       1.0       0.0       0.1       1.5
 7 C  py              0.0       0.0       0.0       0.0       3.4       4.1
 8 H  s               3.9       1.8       3.4       0.6       0.9       0.4
 8 H  pz              0.2       0.1       0.2       0.0       0.0       0.0
 8 H  py              0.1       0.0       0.0       0.0       0.0       0.0
 9 H  s               4.4       1.9       2.6       0.3       0.2       0.5
 9 H  px              0.3       0.1       0.2       0.0       0.0       0.0
10 H  s               3.8       1.9       3.5       0.4       0.2       0.1
10 H  pz              0.1       0.1       0.1       0.0       0.0       0.0
10 H  px              0.2       0.1       0.1       0.0       0.0       0.0
11 H  s               0.6       0.6       6.5       1.0       0.9       0.2
11 H  pz              0.0       0.0       0.2       0.0       0.0       0.0
11 H  px              0.0       0.0       0.3       0.0       0.0       0.0
12 H  s               0.5       0.5       5.5       1.1       1.7       1.8
12 H  pz              0.0       0.0       0.3       0.1       0.0       0.0
13 H  s               2.7       0.4       1.3       1.1       3.8       4.8
13 H  pz              0.2       0.0       0.1       0.0       0.0       0.1
13 H  py              0.1       0.0       0.0       0.0       0.1       0.0
14 H  s               3.1       1.4       0.9       1.5       3.0       0.4
14 H  py              0.3       0.1       0.1       0.1       0.2       0.0
15 H  s               0.0       1.9       2.9       3.7       2.8       3.5
15 H  py              0.0       0.1       0.2       0.2       0.1       0.1
16 H  s               0.0       1.2       2.3       7.6       2.4       0.6
16 H  pz              0.0       0.1       0.1       0.1       0.1       0.1
16 H  py              0.0       0.1       0.1       0.3       0.0       0.0
17 H  s               1.4       4.0       1.2       1.1       0.5       0.7
17 H  pz              0.1       0.1       0.0       0.0       0.0       0.0
17 H  py              0.1       0.2       0.1       0.0       0.0       0.0
18 H  s               1.7       4.9       0.8       0.0       0.0       0.9
18 H  pz              0.0       0.1       0.0       0.0       0.0       0.0
18 H  px              0.1       0.2       0.0       0.0       0.0       0.0
19 H  s               1.5       4.4       1.2       0.5       0.8       0.7
19 H  py              0.1       0.3       0.1       0.0       0.0       0.0

                     18        19        20        21        22        23   
                  -0.43211  -0.42595  -0.41083  -0.38256  -0.37715  -0.36607
                   2.00000   2.00000   2.00000   2.00000   2.00000   2.00000
                  --------  --------  --------  --------  --------  --------
 0 C  s               0.0       0.2       0.1       0.0       0.0       0.0
 0 C  pz              0.5       0.0      15.3       2.2       4.8       8.3
 0 C  px              7.3       3.9       0.7       9.3       9.4       0.8
 0 C  py              0.0       2.1       0.6       1.1       1.9       7.2
 1 C  s               0.1       0.1       0.2       0.1       0.0       0.0
 1 C  pz              0.7       1.3       8.5       1.4       1.6       2.3
 1 C  px              9.4       3.5       1.7       3.7       3.3       0.1
 1 C  py              0.4       1.2       5.2       0.0       0.7       3.4
 2 C  s               0.3       0.1       0.6       0.0       0.1       0.1
 2 C  pz              0.6       1.1       0.1       0.7       3.3       7.6
 2 C  px              3.2       0.6       0.7       1.0       4.0       0.9
 2 C  py              3.8      10.9       8.2       0.3       2.0       4.5
 2 C  dz2             0.0       0.0       0.0       0.0       0.0       0.1
 2 C  dxz             0.0       0.0       0.1       0.1       0.0       0.0
 2 C  dyz             0.0       0.0       0.0       0.0       0.0       0.1
 3 C  s               0.2       0.7       1.5       0.1       0.1       0.1
 3 C  pz              5.9       2.1       0.8       0.1       0.0       1.7
 3 C  px              0.3       1.5       0.4       5.7       0.4       0.2
 3 C  py              3.3       0.7       1.5       0.6       1.6       0.9
 3 C  dxz             0.1       0.0       0.0       0.0       0.1       0.0
 3 C  dyz             0.1       0.0       0.0       0.0       0.0       0.0
 3 C  dxy             0.0       0.0       0.1       0.1       0.0       0.1
 4 O  s               3.7       4.6       2.1       0.0       0.0       0.9
 4 O  pz              2.9      12.1      10.8       0.0       0.8       5.4
 4 O  px              0.0       0.3       0.2       4.9       0.0       0.2
 4 O  py              9.8       2.3       0.3       0.4       1.6       0.8
 4 O  dz2             0.3       0.1       0.3       0.0       0.0       0.0
 4 O  dxz             0.0       0.0       0.0       0.3       0.0       0.1
 4 O  dyz             0.3       0.1       0.0       0.0       0.0       0.0
 5 O  s               0.9       0.3       0.2       0.8       1.3       0.1
 5 O  pz             15.9       7.9       2.5       0.0       2.2       0.2
 5 O  px              1.3       0.0       0.7       0.4       0.2       2.6
 5 O  py              0.4       0.2       0.8      11.0       0.6       0.0
 5 O  dz2             0.2       0.1       0.4       0.0       0.0       0.0
 5 O  dxz             0.3       0.2       0.0       0.0       0.0       0.1
 5 O  dyz             0.1       0.0       0.0       0.1       0.0       0.0
 5 O  dx2y2           0.1       0.6       0.2       0.0       0.6       0.0
 5 O  dxy             0.4       0.6       0.3       0.2       0.0       0.0
 6 C  s               0.3       0.2       0.2       0.0       0.1       0.1
 6 C  pz              0.0       0.0       2.7       1.1       0.2       0.7
 6 C  px              4.5       2.2       1.1       0.6       1.5       0.2
 6 C  py              3.1       7.9       0.1       0.7       0.0       0.0
 6 C  dx2y2           0.1       0.0       0.0       0.0       0.1       0.1
 6 C  dxy             0.0       0.0       0.0       0.2       0.0       0.0
 7 C  s               0.2       0.1       0.1       0.0       0.0       0.0
 7 C  pz              2.4       1.6       0.0       3.1      16.1      10.2
 7 C  px              1.3       1.8       6.1       7.8       6.1       6.1
 7 C  py              2.8       6.7       0.3      14.9       2.1       0.7
 7 C  dyz             0.0       0.0       0.0       0.2       0.0       0.0
 7 C  dx2y2           0.0       0.0       0.0       0.0       0.3       0.2
 8 H  s               0.2       0.3       2.1       0.8       4.2       7.6
 8 H  pz              0.0       0.0       0.0       0.0       0.1       0.1
 8 H  py              0.0       0.0       0.1       0.0       0.0       0.0
 9 H  s               2.5       2.1       0.9       2.3       4.6       0.8
10 H  s               0.7       0.2       4.6       3.6       0.7       0.1
10 H  pz              0.0       0.0       0.0       0.1       0.1       0.0
10 H  px              0.0       0.0       0.1       0.0       0.0       0.0
11 H  s               1.8       1.4       2.7       1.8       0.1       0.5
12 H  s               0.9       0.1       3.5       0.3       0.2       0.0
13 H  s               0.1       0.4       0.3       0.3       3.9       7.6
14 H  s               0.7       5.5       5.5       0.0       0.3       0.7
14 H  py              0.0       0.1       0.1       0.0       0.0       0.0
15 H  s               1.7       1.9       0.0       0.1       0.1       0.5
16 H  s               0.1       2.1       0.4       0.3       0.2       0.4
17 H  s               0.0       3.0       0.0       7.9       2.6       2.2
17 H  pz              0.0       0.1       0.0       0.2       0.0       0.0
17 H  py              0.0       0.0       0.0       0.0       0.2       0.1
18 H  s               0.0       0.6       2.1       3.6       9.5       8.1
18 H  px              0.0       0.0       0.0       0.0       0.2       0.1
18 H  py              0.0       0.0       0.0       0.2       0.0       0.0
19 H  s               2.4       0.7       0.3       3.8       4.4       2.4
19 H  pz              0.0       0.0       0.0       0.1       0.0       0.0
19 H  py              0.1       0.0       0.0       0.0       0.1       0.1

                     24        25        26        27        28        29   
                  -0.35924  -0.34065  -0.31802  -0.30916  -0.30873  -0.30366
                   2.00000   2.00000   2.00000   2.00000   2.00000   2.00000
                  --------  --------  --------  --------  --------  --------
 0 C  s               0.1       0.0       0.4       0.1       0.1       0.2
 0 C  pz              3.7       0.3       2.8       2.3      12.0       1.0
 0 C  px              0.2      10.3       3.5       9.1       0.1       1.3
 0 C  py              4.0       0.9       9.9       5.2       3.9       3.8
 0 C  dxz             0.0       0.1       0.1       0.2       0.1       0.0
 0 C  dyz             0.0       0.0       0.0       0.0       0.6       0.0
 0 C  dx2y2           0.1       0.0       0.1       0.1       0.1       0.0
 0 C  dxy             0.0       0.1       0.1       0.2       0.0       0.0
 1 C  s               0.1       0.1       0.2       0.1       0.1       0.1
 1 C  pz              0.6       0.1       1.3       1.4      21.2       0.7
 1 C  px              0.1       0.7       5.1      12.6       0.0       3.4
 1 C  py              5.2       0.3       9.8       5.2       5.0       3.1
 1 C  dz2             0.0       0.0       0.1       0.0       0.1       0.0
 1 C  dxz             0.0       0.0       0.1       0.3       0.1       0.1
 1 C  dyz             0.0       0.0       0.0       0.0       0.7       0.0
 1 C  dx2y2           0.0       0.0       0.2       0.2       0.1       0.2
 1 C  dxy             0.0       0.1       0.1       0.1       0.0       0.1
 2 C  s               0.0       0.4       0.2       0.5       0.1       0.0
 2 C  pz              1.8       2.4       0.3       3.3       3.8       0.1
 2 C  px              3.6       0.0       0.8      10.0       1.3       3.1
 2 C  py              0.5       0.3       3.9       8.2       0.9       3.1
 2 C  dz2             0.0       0.0       0.0       0.0       0.2       0.0
 2 C  dxz             0.0       0.0       0.0       0.2       0.1       0.1
 2 C  dyz             0.0       0.0       0.2       0.0       0.1       0.1
 2 C  dx2y2           0.0       0.0       0.1       0.2       0.0       0.1
 3 C  s               0.1       0.0       0.1       0.1       0.1       0.5
 3 C  pz              4.6       0.6       0.1       0.0       0.4       3.0
 3 C  px              0.4       1.7       1.5       0.9       0.6       0.1
 3 C  py              4.3       3.3       0.7       0.8       0.0       0.2
 3 C  dz2             0.2       0.0       0.1       0.1       0.1       0.2
 3 C  dxz             0.1       0.0       0.0       0.0       0.0       0.1
 3 C  dyz             0.0       0.2       0.0       0.2       0.0       0.1
 3 C  dx2y2           0.0       0.2       0.0       0.0       0.0       0.1
 4 O  s               0.5       0.3       0.2       0.0       0.1       0.6
 4 O  pz              0.4       7.5       1.4       2.1       0.3       2.5
 4 O  px              0.5       1.1       1.0       1.6       0.3       0.0
 4 O  py             12.2       2.6       0.0       3.0       0.7       4.0
 4 O  dz2             0.1       0.1       0.0       0.0       0.1       0.2
 4 O  dyz             0.1       0.2       0.0       0.0       0.0       0.1
 4 O  dx2y2           0.2       0.0       0.1       0.1       0.1       0.1
 5 O  s               0.1       0.2       0.3       0.1       0.0       2.6
 5 O  pz              1.7       3.4       5.4       1.9       0.0      20.1
 5 O  px              3.0       0.9       0.4       0.1       0.1       2.1
 5 O  py              0.9       1.3       0.4       1.4       0.0       3.6
 5 O  dz2             0.0       0.0       0.2       0.0       0.0       0.9
 5 O  dxz             0.7       0.1       0.2       0.0       0.1       0.0
 5 O  dyz             0.0       0.2       0.1       0.0       0.0       0.4
 5 O  dx2y2           0.5       0.9       0.0       0.3       0.0       0.2
 5 O  dxy             0.2       0.1       0.1       0.0       0.0       0.5
 6 C  s               0.1       0.2       0.1       0.0       0.0       0.3
 6 C  pz              5.8       1.8       4.5       0.5       0.1       6.9
 6 C  px             10.4       0.1       0.7       0.0       0.0       0.8
 6 C  py              0.0       7.5       4.0       2.2       0.2       2.6
 6 C  dz2             0.0       0.0       0.1       0.0       0.0       0.2
 6 C  dxz             0.2       0.0       0.1       0.0       0.0       0.0
 6 C  dyz             0.0       0.2       0.2       0.1       0.0       0.3
 6 C  dx2y2           0.0       0.2       0.1       0.1       0.0       0.1
 7 C  s               0.2       0.1       0.2       0.0       0.0       0.2
 7 C  pz              6.2       1.4       2.8       0.3       0.0       2.4
 7 C  px             12.3       0.2       1.9       0.2       0.0       0.2
 7 C  py              1.4      15.9       3.0       1.0       0.1       1.0
 7 C  dxz             0.2       0.0       0.0       0.0       0.0       0.0
 7 C  dyz             0.0       0.3       0.2       0.0       0.0       0.1
 7 C  dx2y2           0.0       0.1       0.0       0.0       0.0       0.0
 8 H  s               0.1       0.1       0.1       0.3      11.6       0.0
 9 H  s               0.5       4.3       0.1       9.8       0.5       0.1
 9 H  py              0.0       0.0       0.1       0.0       0.0       0.0
10 H  s               2.2       3.7       5.4       1.1       3.7       2.1
11 H  s               0.5       0.3       6.6       2.0       4.6       4.0
11 H  px              0.0       0.0       0.0       0.0       0.1       0.0
12 H  s               0.1       0.0       0.6       0.0      18.8       0.1
12 H  pz              0.0       0.0       0.0       0.0       0.1       0.0
12 H  px              0.0       0.0       0.0       0.1       0.0       0.0
13 H  s               0.1       0.2       1.7       0.0       5.1       0.5
14 H  s               0.7       0.2       3.5       5.1       0.2       2.9
14 H  px              0.1       0.0       0.0       0.2       0.0       0.0
15 H  s               0.4       7.1       0.6       2.3       0.0       0.2
15 H  pz              0.0       0.0       0.1       0.0       0.0       0.1
16 H  s               1.0       0.6       6.0       0.2       0.1       7.9
16 H  px              0.1       0.0       0.0       0.0       0.0       0.0
17 H  s               2.7       2.4       3.3       0.2       0.1       2.6
17 H  pz              0.0       0.1       0.0       0.0       0.0       0.0
17 H  px              0.1       0.0       0.0       0.0       0.0       0.0
18 H  s               2.2       0.6       0.2       0.0       0.0       0.3
18 H  pz              0.2       0.0       0.0       0.0       0.0       0.0
18 H  py              0.0       0.1       0.0       0.0       0.0       0.0
19 H  s               0.0      10.5       0.9       0.9       0.0       0.2
19 H  px              0.1       0.0       0.0       0.0       0.0       0.0

                     30        31        32        33        34        35   
                  -0.27014  -0.23520  -0.01420   0.07545   0.09618   0.10672
                   2.00000   2.00000   0.00000   0.00000   0.00000   0.00000
                  --------  --------  --------  --------  --------  --------
 0 C  s               0.0       0.0       0.2       8.1       1.2       8.5
 0 C  pz              0.0       0.0       0.2       0.3       0.0       0.0
 0 C  px              0.0       0.0       0.1       1.1       0.2       2.2
 0 C  py              0.0       0.1       0.2       0.7       0.0       1.7
 0 C  dz2             0.0       0.0       0.0       0.0       0.0       0.2
 0 C  dx2y2           0.0       0.0       0.1       0.2       0.0       0.2
 1 C  s               0.0       0.0       1.6       2.5       0.7       9.3
 1 C  pz              0.1       0.0       0.8       0.3       0.1       0.3
 1 C  px              0.0       0.3       1.4       1.1       0.3       4.5
 1 C  py              0.1       0.1       0.1       0.1       0.5       0.4
 1 C  dx2y2           0.0       0.0       0.1       0.0       0.1       0.1
 2 C  s               0.0       0.6       0.2       8.2       0.4       0.7
 2 C  pz              0.1       4.0       0.0       0.9       0.4       1.6
 2 C  px              0.0       3.1       0.5       1.4       0.1       2.5
 2 C  py              0.1       0.0       0.1       0.3       0.2       0.7
 2 C  dz2             0.0       0.0       0.1       0.0       0.1       0.1
 2 C  dxz             0.0       0.0       0.2       0.0       0.0       0.1
 2 C  dyz             0.0       0.0       0.3       0.0       0.1       0.1
 2 C  dx2y2           0.0       0.0       0.8       0.0       0.1       0.2
[...]
 3 C  pz              0.5       0.5       1.2       6.0       0.0       0.0
 3 C  px              0.4       0.4       3.8       0.1       0.0       0.0
 3 C  py              0.3       0.4       2.5       1.4       0.0       0.0
 3 C  dz2             0.4       0.2       1.3       3.1       0.0       0.0
 3 C  dxz             8.3       0.5       4.6       0.0       0.0       0.0
 3 C  dyz             2.3       0.1       1.3       3.2       0.0       0.0
 3 C  dx2y2           3.7       0.0       0.1       0.1       0.0       0.0
 3 C  dxy             0.0       0.6       5.4       0.0       0.0       0.0
 4 O  s               2.7       1.0       0.4      18.9       0.0       0.0
 4 O  pz              0.2       0.6       0.2      17.5       0.0       0.0
 4 O  px              7.9       0.1       0.3       0.1       0.0       0.0
 4 O  py              1.9       0.3       0.0       4.5       0.0       0.0
 4 O  dz2             2.4       0.8       0.0      16.4       0.0       0.0
 4 O  dxz            12.0       0.1       1.8       0.3       0.0       0.0
 4 O  dyz             1.6       1.1       0.1      15.9       0.0       0.0
 4 O  dx2y2           0.0       0.2       0.4       1.0       0.0       0.0
 4 O  dxy             5.6       0.0       0.0       0.1       0.0       0.0
 5 O  s               3.6      24.4       7.4       1.3       0.0       0.0
 5 O  pz              5.2       6.6       0.5       0.3       0.0       0.0
 5 O  px              0.1       8.0      22.7       0.4       0.0       0.0
 5 O  py              2.3       0.1       7.1       0.1       0.0       0.0
 5 O  dz2             3.8       1.4       1.8       0.0       0.0       0.0
 5 O  dxz             0.2       6.6      12.7       0.7       0.0       0.0
 5 O  dyz             5.3       0.0       3.8       0.0       0.0       0.0
 5 O  dx2y2           0.8      12.1       0.0       0.9       0.0       0.0
 5 O  dxy             0.0       5.4      10.9       0.3       0.0       0.0
 6 C  s               0.0       1.5       0.4       0.1      10.2       3.1
 6 C  pz              0.1       2.4       0.6       0.1       0.0       0.0
 6 C  px              0.0       5.4       1.2       0.2       0.0       0.0
 6 C  py              0.0       0.5       0.0       0.0       0.0       0.0
 6 C  dz2             0.5       0.1       0.1       0.0       0.0       0.0
 6 C  dxz             0.6       6.2       1.1       0.3       0.0       0.0
 6 C  dyz             0.2       0.0       0.3       0.0       0.0       0.0
 6 C  dx2y2           0.0       6.7       1.0       0.2       0.0       0.0
 6 C  dxy             0.5       0.5       0.1       0.0       0.0       0.0
 7 C  s               0.0       0.0       0.0       0.0      82.4       6.7
 7 C  pz              0.0       0.1       0.0       0.0       0.0       0.0
 7 C  py              0.3       0.0       0.0       0.0       0.0       0.0
 7 C  dxz             0.3       0.3       0.0       0.0       0.0       0.0
 7 C  dyz             0.9       0.0       0.0       0.0       0.0       0.0
 7 C  dx2y2           0.1       0.1       0.0       0.0       0.0       0.0
 9 H  s               0.2       0.0       0.0       0.0       0.0       0.0
 9 H  pz              0.1       0.0       0.0       0.0       0.0       0.0
 9 H  px              0.3       0.0       0.0       0.0       0.0       0.0
10 H  s               0.5       0.0       0.0       0.0       0.0       0.0
10 H  pz              0.5       0.0       0.0       0.0       0.0       0.0
10 H  px              0.5       0.0       0.0       0.0       0.0       0.0
10 H  py              0.1       0.0       0.0       0.0       0.0       0.0
11 H  s               0.5       0.0       0.0       0.0       0.0       0.0
11 H  pz              0.4       0.0       0.0       0.0       0.0       0.0
11 H  px              0.9       0.0       0.0       0.0       0.0       0.0
12 H  s               0.1       0.0       0.0       0.0       0.0       0.0
12 H  pz              0.2       0.0       0.0       0.0       0.0       0.0
13 H  s               1.1       0.0       0.1       0.0       0.0       0.0
13 H  pz              1.8       0.0       0.0       0.0       0.0       0.0
13 H  px              0.3       0.0       0.1       0.0       0.0       0.0
13 H  py              0.7       0.0       0.0       0.0       0.0       0.0
15 H  s               0.0       0.7       0.0       0.0       0.0       0.0
15 H  px              0.0       0.5       0.0       0.0       0.0       0.0
15 H  py              0.0       1.0       0.0       0.0       0.0       0.0
16 H  s               0.1       0.2       0.2       0.0       0.0       0.0
16 H  px              1.0       0.1       0.1       0.0       0.0       0.0
16 H  py              0.4       0.4       0.3       0.0       0.0       0.0
17 H  s               0.2       0.0       0.0       0.0       0.0       0.0
17 H  pz              0.3       0.0       0.0       0.0       0.0       0.0
17 H  py              0.2       0.0       0.0       0.0       0.0       0.0
18 H  px              0.1       0.2       0.0       0.0       0.0       0.0
19 H  s               0.3       0.0       0.0       0.0       0.0       0.0
19 H  py              0.5       0.0       0.0       0.0       0.0       0.0

                    216       217       218       219       220       221   
                  21.99729  22.02391  22.08686  22.29541  43.70140  43.76505
                   0.00000   0.00000   0.00000   0.00000   0.00000   0.00000
                  --------  --------  --------  --------  --------  --------
 0 C  s              12.3       0.5       1.0       0.1       0.0       0.0
 1 C  s               9.4      84.0       0.0       4.8       0.0       0.0
 2 C  s              21.3       1.6      66.7       0.5       0.0       0.0
 3 C  s               0.1       4.6       0.5      93.6       0.0       0.0
 4 O  s               0.0       0.0       0.0       0.2      99.8       0.1
 4 O  pz              0.0       0.0       0.0       0.1       0.0       0.0
 5 O  s               0.0       0.0       0.1       0.1       0.1      99.8
 6 C  s              50.5       4.7      31.1       0.0       0.0       0.0
 7 C  s               6.1       4.2       0.2       0.0       0.0       0.0



                      *****************************
                      * MAYER POPULATION ANALYSIS *
                      *****************************

  NA   - Mulliken gross atomic population
  ZA   - Total nuclear charge
  QA   - Mulliken gross atomic charge
  VA   - Mayer's total valence
  BVA  - Mayer's bonded valence
  FA   - Mayer's free valence

  ATOM       NA         ZA         QA         VA         BVA        FA
  0 C      6.4933     6.0000    -0.4933     3.8293     3.8293     0.0000
  1 C      6.2190     6.0000    -0.2190     3.6519     3.6519     0.0000
  2 C      6.2975     6.0000    -0.2975     3.6994     3.6994     0.0000
  3 C      5.6507     6.0000     0.3493     3.8120     3.8120     0.0000
  4 O      8.4304     8.0000    -0.4304     1.9375     1.9375     0.0000
  5 O      8.1667     8.0000    -0.1667     1.9052     1.9052     0.0000
  6 C      6.1620     6.0000    -0.1620     3.6286     3.6286    -0.0000
  7 C      6.4439     6.0000    -0.4439     3.8548     3.8548     0.0000
  8 H      0.8537     1.0000     0.1463     0.9635     0.9635     0.0000
  9 H      0.8515     1.0000     0.1485     0.9622     0.9622     0.0000
 10 H      0.8441     1.0000     0.1559     0.9632     0.9632     0.0000
 11 H      0.8555     1.0000     0.1445     0.9597     0.9597     0.0000
 12 H      0.8385     1.0000     0.1615     0.9608     0.9608     0.0000
 13 H      0.8372     1.0000     0.1628     0.9627     0.9627     0.0000
 14 H      0.8351     1.0000     0.1649     0.9571     0.9571     0.0000
 15 H      0.8568     1.0000     0.1432     0.9526     0.9526    -0.0000
 16 H      0.8154     1.0000     0.1846     0.9547     0.9547    -0.0000
 17 H      0.8471     1.0000     0.1529     0.9610     0.9610     0.0000
 18 H      0.8534     1.0000     0.1466     0.9644     0.9644     0.0000
 19 H      0.8481     1.0000     0.1519     0.9615     0.9615    -0.0000

  Mayer bond orders larger than 0.100000
B(  0-C ,  1-C ) :   0.9046 B(  0-C ,  8-H ) :   0.9819 B(  0-C ,  9-H ) :   0.9687 
B(  0-C , 10-H ) :   0.9732 B(  1-C ,  2-C ) :   0.8921 B(  1-C , 11-H ) :   0.9660 
B(  1-C , 12-H ) :   0.9675 B(  2-C ,  3-C ) :   0.9452 B(  2-C , 13-H ) :   1.0019 
B(  2-C , 14-H ) :   0.9356 B(  3-C ,  4-O ) :   1.8358 B(  3-C ,  5-O ) :   1.0634 
B(  5-O ,  6-C ) :   0.7814 B(  6-C ,  7-C ) :   0.9494 B(  6-C , 15-H ) :   0.9481 
B(  6-C , 16-H ) :   0.9670 B(  7-C , 17-H ) :   0.9703 B(  7-C , 18-H ) :   0.9672 
B(  7-C , 19-H ) :   0.9738 

-------
TIMINGS
-------

Total SCF time: 0 days 0 hours 0 min 28 sec 

Total time                  ....      28.243 sec
Sum of individual times     ....      27.704 sec  ( 98.1%)

SCF preparation             ....       0.219 sec  (  0.8%)
Fock matrix formation       ....      26.268 sec  ( 93.0%)
  Startup                   ....       0.085 sec  (  0.3% of F)
  Split-RI-J                ....       5.354 sec  ( 20.4% of F)
  XC integration            ....      20.160 sec  ( 76.7% of F)
    Basis function eval.    ....       3.719 sec  ( 18.4% of XC)
    Density eval.           ....       6.103 sec  ( 30.3% of XC)
    XC-Functional eval.     ....       2.581 sec  ( 12.8% of XC)
    XC-Potential eval.      ....       6.581 sec  ( 32.6% of XC)
Diagonalization             ....       0.000 sec  (  0.0%)
Density matrix formation    ....       0.313 sec  (  1.1%)
Total Energy calculation    ....       0.045 sec  (  0.2%)
Population analysis         ....       0.177 sec  (  0.6%)
Orbital Transformation      ....       0.090 sec  (  0.3%)
Orbital Orthonormalization  ....       0.000 sec  (  0.0%)
DIIS solution               ....       0.522 sec  (  1.8%)
  MO trafo                  ....       0.000 sec  (  0.0 % of DIIS)
  Orb grad                  ....       0.000 sec  (  0.0 % of DIIS)
  Energy W gradient         ....       0.000 sec  (  0.0 % of DIIS)
  DIIS error                ....       0.032 sec  (  6.1 % of DIIS)
  DIIS work                 ....       0.410 sec  ( 78.6 % of DIIS)
  Form Q                    ....       0.000 sec  (  0.0 % of DIIS)
  Form QpQm                 ....       0.000 sec  (  0.0 % of DIIS)
  Exp/Cayley                ....       0.000 sec  (  0.0 % of DIIS)
  Orb update                ....       0.000 sec  (  0.0 % of DIIS)
  Wake-sleep                ....       0.033 sec  (  6.4 % of DIIS)
SOSCF solution              ....       0.070 sec  (  0.2%)
  MO trafo                  ....       0.048 sec  ( 69.1 % of SOSCF)
  Orb grad                  ....       0.001 sec  (  1.0 % of SOSCF)
  Rot update                ....       0.000 sec  (  0.1 % of SOSCF)
  Step                      ....       0.021 sec  ( 29.7 % of SOSCF)
Finished LeanSCF after  28.4 sec

Maximum memory used throughout the entire LEANSCF-calculation: 23.8 MB


-------------------------------------------------------------------------------
                          DFT DISPERSION CORRECTION                            
                                                                               
                                DFTD4 V3.4.0                                   
-------------------------------------------------------------------------------
The R2SCAN3C composite method is recognized
Using three-body term ABC
Active option DFTDOPT                   ...         5   

-------------------------   ----------------
Dispersion correction           -0.005039255
-------------------------   ----------------

------------------   -----------------
gCP correction             0.011777176
------------------   -----------------

-------------------------   --------------------
FINAL SINGLE POINT ENERGY      -386.235195400849
-------------------------   --------------------


------------------------------------------------------------------------------
                              ORCA PROPERTY CALCULATIONS
------------------------------------------------------------------------------

GBWName                                 ... sp_gas.gbw
Number of atoms                         ...     20
Number of basis functions               ...    222
Max core memory                         ...   1024 MB

Electric properties:
Dipole moment                           ... YES
Quadrupole moment                       ...  NO
Static polarizability (Dipole/Dipole)   ...  NO
Static polarizability (Dipole/Quad.)    ...  NO
Static polarizability (Quad./Quad.)     ...  NO
Static polarizability (Velocity)        ...  NO

Atomic electric properties:
Dipole moment                           ...  NO
Quadrupole moment                       ...  NO
Static polarizability                   ...  NO

Choice of electric origin               ... Center of mass
Position of electric origin             ...    -0.000008    -0.000012     0.000009

General magnetic properties:
Magnetizability                         ...  NO

EPR properties:
g-Tensor (aka g-matrix)                 ...  NO
Zero-Field splitting spin-orbit         ...  NO
Zero-field splitting spin-spin          ...  NO
Hyperfine couplings                     ...  NO (   0 nuclei)
Quadrupole couplings                    ...  NO (   0 nuclei)
Contact density                         ...  NO (   0 nuclei)

NMR properties:
Chemical shifts                         ...  NO (   0 nuclei)
Spin-rotation constants                 ...  NO (   0 nuclei)
Spin-spin couplings                     ...  NO (   0 nuclei,    0 pairs)

Choice of magnetic origin               ... GIAO
Position of magnetic origin             ...     0.000000     0.000000     0.000000

Properties with geometric perturbations:
SCF Hessian                             ...  NO
IR spectrum                             ...  NO
VCD spectrum                            ...  NO
X-ray spectroscopy properties:
SCF XES/XAS/RIXS spectra                ...  NO


-------------
DIPOLE MOMENT
-------------

Method             : SCF
Type of density    : Electron Density
Multiplicity       :   1
Irrep              :   0
Energy             :  -386.2419333210788750 Eh
Relativity type    : 
Basis              : AO
                                X                 Y                 Z
Electronic contribution:      1.359310076       3.456626431      -1.690550208
Nuclear contribution   :     -1.111374860      -3.895230445       2.308084088
                        -----------------------------------------
Total Dipole Moment    :      0.247935216      -0.438604014       0.617533880
                        -----------------------------------------
Magnitude (a.u.)       :      0.796990242
Magnitude (Debye)      :      2.025788202



--------------------
Rotational spectrum 
--------------------
 
Rotational constants in cm-1:             0.141609             0.033311             0.031703 
Rotational constants in MHz :          4245.335551           998.642444           950.443911 

Dipole components along the rotational axes: 
x,y,z [a.u.] :     0.276588    -0.669916    -0.331520 
x,y,z [Debye]:     0.703030    -1.702791    -0.842656 

 

Dipole moment calculation done in   0.0 sec 

Maximum memory used throughout the entire PROP-calculation: 13.7 MB

--------------------------------
SUGGESTED CITATIONS FOR THIS RUN
--------------------------------

Below you find a list of papers that are relevant to this ORCA run
We neither can nor want to force you to cite these papers, but we appreciate if you do
You receive ORCA, which is the product of decades of hard work by many enthusiastic individuals, for free
The only thing we kindly ask in return is that you cite our papers,
We deeply appreciate it, if you show your appreciation for ORCA by not just citing the generic ORCA reference.

Please note that relegating all ORCA citations to the supporting information does *not* help us.
SI sections are not indexed - citations you put there will not count into any citation statistics
But we need these citations in order to attract the funding resources that allow us to do what we are doing

Therefore, if you are a happy ORCA user, please consider citing a few of the papers listed below in the main body of your paper

In addition to the list printed below, the program has created the file sp_gas.bibtex that contains the list in bibtex format
You can import this file easily into all common literature databanks and citation aid programs


List of essential papers. We consider these as the minimum necessary citations

  1. Neese,F.
     Software update: the ORCA program system, version 5.0
     WIRES Comput. Molec. Sci., 2022 12(1)e1606
     doi.org/10.1002/wcms.1606
  2. Grimme,S.; Hansen,A.; Ehlert,S.; Mewes,J.
     r2SCAN-3c: A 'Swiss army knife' composite electronic-structure method
     J. Chem. Phys., 2021 154 064103
     doi.org/10.1063/5.0040021

List of papers to cite with high priority. The work reported in these papers was absolutely
necessary for this run to complete.
Our perspective: the developers of density functionals and basis sets usually get cited in chemistry papers
Good! But without the algorithms to do something with them, the functionals or basis sets would not do anything.
Hence, in our opinion, the algorithm design and method developments papers are equally worthy of getting cited

  1. Neese,F.
     An improvement of the resolution of the identity approximation for the formation of the Coulomb matrix
     J. Comp. Chem., 2003 24(14)1740-1747
     doi.org/10.1002/jcc.10318
  2. Neese,F.
     The SHARK Integral Generation and Digestion System
     J. Comp. Chem., 2022  1-16
     doi.org/10.1002/jcc.26942
  3. Lehtola,S.; Steigemann,C.; Oliveira,M.; Marques,M.
     Recent developments in Libxc - A comprehensive library of functionals for density functional theory
     Software X, 2018 7 
     doi.org/10.1016/j.softx.2017.11.002
  4. Caldeweyher,E.; Bannwarth,C.; Grimme,S.
     Extension of the D3 dispersion coefficient model
     J. Chem. Phys., 2017 147 034112-XXXX
     doi.org/10.1063/1.4993215
  5. Caldeweyher,E.; Ehlert,S.; Hansen,A.; Neugebauer,H.; Spicher,S.; Bannwarth,C.; Grimme,S.
     A generally applicable atomic-charge dependent London dispersion correction
     J. Chem. Phys., 2019 150 154122-XXXX
     doi.org/10.1063/1.5090222
  6. Caldeweyher,E.; Mewes,J.; Ehlert,S.; Grimme,S.
     Extension and evaluation of the D4 London-dispersion model for periodic systems
     Phys. Chem. Chem. Phys., 2020 22(16)8499-8512
     doi.org/10.1039/D0CP00502A

List of suggested additional citations. These are papers that are important in the 'surrounding' of 
of this run, or papers that preceded the highly important papers. If you like your results we are grateful for a citation.

  1. Neese,F.
     The ORCA program system
     WIRES Comput. Molec. Sci., 2012 2(1)73-78
     doi.org/10.1002/wcms.81
  2. Neese,F.
     Software update: the ORCA program system, version 4.0
     WIRES Comput. Molec. Sci., 2018 8(1)1-6
     doi.org/10.1002/wcms.1327
  3. Neese,F.; Wennmohs,F.; Becker,U.; Riplinger,C.
     The ORCA quantum chemistry program package
     J. Chem. Phys., 2020 152 Art. No. L224108
     doi.org/10.1063/5.0004608

List of optional additional citations

  1. Neese,F.
     Approximate second-order SCF convergence for spin unrestricted wavefunctions
     Chem. Phys. Lett., 2000 325(1-3)93-98
     doi.org/10.1016/s0009-2614(00)00662-x

Timings for individual modules:

Sum of individual times          ...       30.311 sec (=   0.505 min)
Startup calculation              ...        1.427 sec (=   0.024 min)   4.7 %
SCF iterations                   ...       28.744 sec (=   0.479 min)  94.8 %
Property calculations            ...        0.140 sec (=   0.002 min)   0.5 %
                             ****ORCA TERMINATED NORMALLY****
TOTAL RUN TIME: 0 days 0 hours 0 minutes 31 seconds 285 msec
