      -----------------------------------------------------------      
     |                   =====================                   |     
     |                           x T B                           |     
     |                   =====================                   |     
     |                         S. Grimme                         |     
     |          Mulliken Center for Theoretical Chemistry        |     
     |                    University of Bonn                     |     
      -----------------------------------------------------------      

   * xtb version 6.7.1 (edcfbbe) compiled by 'albert@albert-system' on 2024-07-22

   xtb is free software: you can redistribute it and/or modify it under
   the terms of the GNU Lesser General Public License as published by
   the Free Software Foundation, either version 3 of the License, or
   (at your option) any later version.
   
   xtb is distributed in the hope that it will be useful,
   but WITHOUT ANY WARRANTY; without even the implied warranty of
   MERCHANTABILITY or FITNESS FOR A PARTICULAR PURPOSE.  See the
   GNU Lesser General Public License for more details.
   
   Cite this work as:
   * C. Bannwarth, E. Caldeweyher, S. Ehlert, A. Hansen, P. Pracht,
     J. Seibert, S. Spicher, S. Grimme, WIREs Comput. Mol. Sci., 2020, 11,
     e01493. DOI: 10.1002/wcms.1493
   
   for GFN2-xTB:
   * C. Bannwarth, S. Ehlert and S. Grimme., J. Chem. Theory Comput., 2019,
     15, 1652-1671. DOI: 10.1021/acs.jctc.8b01176
   for GFN1-xTB:
   * S. Grimme, C. Bannwarth, P. Shushkov, J. Chem. Theory Comput., 2017,
     13, 1989-2009. DOI: 10.1021/acs.jctc.7b00118
   for GFN0-xTB:
   * P. Pracht, E. Caldeweyher, S. Ehlert, S. Grimme, ChemRxiv, 2019, preprint.
     DOI: 10.26434/chemrxiv.8326202.v1
   for GFN-FF:
   * S. Spicher and S. Grimme, Angew. Chem. Int. Ed., 2020, 59, 15665-15673.
     DOI: 10.1002/anie.202004239
   
   for ALPB and GBSA implicit solvation:
   * S. Ehlert, M. Stahn, S. Spicher, S. Grimme, J. Chem. Theory Comput.,
     2021, 17, 4250-4261. DOI: 10.1021/acs.jctc.1c00471
   
   for ddCOSMO and CPCM-X implicit solvation:
   * M. Stahn, S. Ehlert, S. Grimme, J. Phys. Chem. A,
     2023, XX, XXXX-XXXX. DOI: 10.1021/acs.jpca.3c04382
   
   for DFT-D4:
   * E. Caldeweyher, C. Bannwarth and S. Grimme, J. Chem. Phys., 2017,
     147, 034112. DOI: 10.1063/1.4993215
   * E. Caldeweyher, S. Ehlert, A. Hansen, H. Neugebauer, S. Spicher,
     C. Bannwarth and S. Grimme, J. Chem. Phys., 2019, 150, 154122.
     DOI: 10.1063/1.5090222
   * E. Caldeweyher, J.-M. Mewes, S. Ehlert and S. Grimme, Phys. Chem. Chem. Phys.
     2020, 22, 8499-8512. DOI: 10.1039/D0CP00502A
   
   for sTDA-xTB:
   * S. Grimme and C. Bannwarth, J. Chem. Phys., 2016, 145, 054103.
     DOI: 10.1063/1.4959605
   
   in the mass-spec context:
   * V. Asgeirsson, C. Bauer and S. Grimme, Chem. Sci., 2017, 8, 4879.
     DOI: 10.1039/c7sc00601b
   * J. Koopman and S. Grimme, ACS Omega 2019, 4, 12, 15120-15133.
     DOI: 10.1021/acsomega.9b02011
   
   for metadynamics refer to:
   * S. Grimme, J. Chem. Theory Comput., 2019, 155, 2847-2862
     DOI: 10.1021/acs.jctc.9b00143
   
   for SPH calculations refer to:
   * S. Spicher and S. Grimme, J. Chem. Theory Comput., 2021, 17, 1701-1714
     DOI: 10.1021/acs.jctc.0c01306
   
   for ONIOM refer to:
   * C. Plett, A. Katbashev, S. Ehlert, S. Grimme, M. Bursch,
     Phys. Chem. Chem. Phys., 2023, 25, 17860-17868. DOI: 10.1039/D3CP02178E
   
   for DIPRO refer to:
   * J. Kohn, N. Gildemeister, S. Grimme, D. Fazzi, A. Hansen,
     J. Chem. Phys., 2023, just accepted.
   
   for PTB refer to:
   * S. Grimme, M. Mueller, A. Hansen, J. Chem. Phys., 2023, 158, 124111.
     DOI: 10.1063/5.0137838
   
   with help from (in alphabetical order)
   P. Atkinson, C. Bannwarth, F. Bohle, G. Brandenburg, E. Caldeweyher
   M. Checinski, S. Dohm, S. Ehlert, S. Ehrlich, I. Gerasimov, C. Hölzer
   A. Katbashev, J. Kohn, J. Koopman, C. Lavigne, S. Lehtola, F. März, M. Müller,
   F. Musil, H. Neugebauer, J. Pisarek, C. Plett, P. Pracht, F. Pultar,
   J. Seibert, P. Shushkov, S. Spicher, M. Stahn, M. Steiner, T. Strunk,
   J. Stückrath, T. Rose, and J. Unsleber
   
 * started run on 2025/04/11 at 12:31:08.006     
   ID    Z sym.   atoms
    1    6 C      1-4
    2    7 N      5
    3    1 H      6-16

           -------------------------------------------------
          |                Calculation Setup                |
           -------------------------------------------------

          program call               : /srv/scratch/z5358697/.xtb/bin/xtb xtb_opt.coord --opt normal --orca -I xtb_opt-xcontrol-inp
          hostname                   : k077
          coordinate file            : xtb_opt.coord
          omp threads                :                    16

           -------------------------------------------------
          |                   Orca driver                   |
           -------------------------------------------------
orca executable           : /apps/z_install_tree/linux-rocky8-ivybridge/gcc-12.2.0/orca-6.0.0-srtngmq3qlimg2qxbl6avaaiffipurdx/bin/orca
orca input file           : xtb_opt.inp
orca input line           : 
orca parallel             : true
orca number of threads    : 16
                         * ORCA takes the control...
  ------------------------------------------------------------------------

                                 *****************
                                 * O   R   C   A *
                                 *****************

                                            #,                                       
                                            ###                                      
                                            ####                                     
                                            #####                                    
                                            ######                                   
                                           ########,                                 
                                     ,,################,,,,,                         
                               ,,#################################,,                 
                          ,,##########################################,,             
                       ,#########################################, ''#####,          
                    ,#############################################,,   '####,        
                  ,##################################################,,,,####,       
                ,###########''''           ''''###############################       
              ,#####''   ,,,,##########,,,,          '''####'''          '####       
            ,##' ,,,,###########################,,,                        '##       
           ' ,,###''''                  '''############,,,                           
         ,,##''                                '''############,,,,        ,,,,,,###''
      ,#''                                            '''#######################'''  
     '                                                          ''''####''''         
             ,#######,   #######,   ,#######,      ##                                
            ,#'     '#,  ##    ##  ,#'     '#,    #''#        ,####,   ,####,        
            ##       ##  ##   ,#'  ##            #'  '#       #'       #'  '#        
            ##       ##  #######   ##           ,######,      #####,   #    #        
            '#,     ,#'  ##    ##  '#,     ,#' ,#      #,     #,   #   #,  ,#        
             '#######'   ##     ##  '#######'  #'      '#     '####' # '####'        



                #########################################################
                #                        -***-                          #
                #          Department of theory and spectroscopy        #
                #                                                       #
                #                      Frank Neese                      #
                #                                                       #
                #     Directorship, Architecture, Infrastructure        #
                #                    SHARK, DRIVERS                     #
                #        Core code/Algorithms in most modules           #
                #                                                       #
                #        Max Planck Institute fuer Kohlenforschung      #
                #                Kaiser Wilhelm Platz 1                 #
                #                 D-45470 Muelheim/Ruhr                 #
                #                      Germany                          #
                #                                                       #
                #                  All rights reserved                  #
                #                        -***-                          #
                #########################################################


                         Program Version 6.0.0  -   RELEASE  -


 With contributions from (in alphabetic order):
   Daniel Aravena         : Magnetic Suceptibility
   Michael Atanasov       : Ab Initio Ligand Field Theory (pilot matlab implementation)
   Alexander A. Auer      : GIAO ZORA, VPT2 properties, NMR spectrum
   Ute Becker             : All parallelization in ORCA, NUMFREQ, NUMCALC
   Giovanni Bistoni       : ED, misc. LED, open-shell LED, HFLD
   Martin Brehm           : Molecular dynamics
   Dmytro Bykov           : pre 5.0 version of the SCF Hessian
   Marcos Casanova-Páez   : Triplet and SCS-CIS(D). UHF-(DLPNO)-IP/EA/STEOM-CCSD. UHF-CVS-IP/STEOM-CCSD
   Vijay G. Chilkuri      : MRCI spin determinant printing, contributions to CSF-ICE
   Pauline Colinet        : FMM embedding
   Dipayan Datta          : RHF DLPNO-CCSD density
   Achintya Kumar Dutta   : EOM-CC, STEOM-CC
   Nicolas Foglia         : Exact transition moments, OPA infrastructure, MCD improvements
   Dmitry Ganyushin       : Spin-Orbit,Spin-Spin,Magnetic field MRCI
   Miquel Garcia          : C-PCM and meta-GGA Hessian, CCSD/C-PCM, Gaussian charge scheme
   Tiago L. C. Gouveia    : GS-ROHF, GS-ROCIS
   Yang Guo               : DLPNO-NEVPT2, F12-NEVPT2, CIM, IAO-localization
   Andreas Hansen         : Spin unrestricted coupled pair/coupled cluster methods
   Ingolf Harden          : AUTO-CI MPn and infrastructure 
   Benjamin Helmich-Paris : MC-RPA, TRAH-(SCF,CASSCF), AVAS, COSX integrals, SCF dyn. polar.
   Lee Huntington         : MR-EOM, pCC
   Robert Izsak           : Overlap fitted RIJCOSX, COSX-SCS-MP3, EOM
   Riya Kayal             : Wick's Theorem for AUTO-CI, AUTO-CI UHF-CCSDT
   Emily Kempfer          : AUTO-CI, RHF CISDT and CCSDT
   Christian Kollmar      : KDIIS, OOCD, Brueckner-CCSD(T), CCSD density, CASPT2, CASPT2-K, improved NEVPT2
   Axel Koslowski         : Symmetry handling
   Simone Kossmann        : Meta GGA functionals, TD-DFT gradient, OOMP2, (MP2 Hessian; deprecated post 5.0)
   Lucas Lang             : DCDCAS
   Marvin Lechner         : AUTO-CI (C++ implementation), FIC-MRCC
   Spencer Leger          : CASSCF response
   Dagmar Lenk            : GEPOL surface, SMD, ORCA-2-JSON
   Dimitrios Liakos       : Extrapolation schemes; Compound Job, initial MDCI parallelization
   Dimitrios Manganas     : Further ROCIS development; embedding schemes. LFT, Crystal Embedding
   Dimitrios Pantazis     : SARC Basis sets
   Anastasios Papadopoulos: AUTO-CI, single reference methods and gradients
   Taras Petrenko         : pre 6.0 DFT Hessian and TD-DFT gradient, (ASA, deprecated), ECA, 1-Electron XAS/XES, NRVS
   Peter Pinski           : DLPNO-MP2, DLPNO-MP2 Gradient
   Christoph Reimann      : Effective Core Potentials
   Marius Retegan         : Local ZFS, SOC
   Christoph Riplinger    : Optimizer, TS searches, QM/MM, DLPNO-CCSD(T), (RO)-DLPNO pert. Triples
   Michael Roemelt        : Original ROCIS implementation
   Masaaki Saitow         : Open-shell DLPNO-CCSD energy and density
   Barbara Sandhoefer     : DKH picture change effects
   Kantharuban Sivalingam : CASSCF convergence/infrastructure, NEVPT2 and variants, FIC-MRCI
   Bernardo de Souza      : ESD, SOC TD-DFT
   Georgi Stoychev        : AutoAux, RI-MP2 NMR, DLPNO-MP2 response, X2C
   Van Anh Tran           : RI-MP2 g-tensors
   Willem Van den Heuvel  : Paramagnetic NMR
   Zikuan Wang            : NOTCH, Electric field optimization 
   Frank Wennmohs         : Technical directorship and infrastructure
   Hang Xu                : AUTO-CI-Response properties 


 We gratefully acknowledge several colleagues who have allowed us to
 interface, adapt or use parts of their codes:
   Stefan Grimme, W. Hujo, H. Kruse, P. Pracht,  : VdW corrections, initial TS optimization,
                  C. Bannwarth, S. Ehlert,         DFT functionals, gCP, sTDA/sTD-DF
                  L. Wittmann, M. Mueller
   Ed Valeev, F. Pavosevic, A. Kumar             : LibInt (2-el integral package), F12 methods
   Garnet Chan, S. Sharma, J. Yang, R. Olivares  : DMRG
   Ulf Ekstrom                                   : XCFun DFT Library
   Mihaly Kallay                                 : mrcc  (arbitrary order and MRCC methods)
   Frank Weinhold                                : gennbo (NPA and NBO analysis)
   Simon Mueller                                 : openCOSMO-RS
   Christopher J. Cramer and Donald G. Truhlar   : smd solvation model
   Lars Goerigk                                  : TD-DFT with DH, B97 family of functionals
   V. Asgeirsson, H. Jonsson                     : NEB implementation
   FAccTs GmbH                                   : IRC, NEB, NEB-TS, DLPNO-Multilevel, CI-OPT
                                                   MM, QMMM, 2- and 3-layer-ONIOM, Crystal-QMMM,
                                                   LR-CPCM, SF, NACMEs, symmetry and pop. for TD-DFT,
                                                   nearIR, NL-DFT gradient (VV10), updates on ESD,
                                                   ML-optimized integration grids, MBIS, APM,
                                                   GOAT, DOCKER, SOLVATOR, interface openCOSMO-RS
   S Lehtola, MJT Oliveira, MAL Marques          : LibXC Library
   Liviu Ungur et al                             : ANISO software


 Your calculation uses the libint2 library for the computation of 2-el integrals
 For citations please refer to: http://libint.valeyev.net

 Your ORCA version has been built with support for libXC version: 6.2.2
 For citations please refer to: https://libxc.gitlab.io

 This ORCA versions uses:
   CBLAS   interface :  Fast vector & matrix operations
   LAPACKE interface :  Fast linear algebra routines
   SCALAPACK package :  Parallel linear algebra routines
   Shared memory     :  Shared parallel matrices
   BLAS/LAPACK       :  OpenBLAS 0.3.27  USE64BITINT DYNAMIC_ARCH NO_AFFINITY SkylakeX SINGLE_THREADED
        Core in use  :  SkylakeX
   Copyright (c) 2011-2014, The OpenBLAS Project




***************************************
The coordinates will be read from file: xtb_opt.xyz
***************************************


Your calculation utilizes the geometrical counterpoise correction gCP
Please cite in your paper:
H.Kruse, S. Grimme J.Chem.Phys., 136, (2012), 154101 
   

Your calculation utilizes the atom-pairwise dispersion correction
based on EEQ partial charges (D4)


Your calculation utilizes the SMD solvation module
Please cite in your paper:
A.V. Marenich, C.J. Cramer, D.G. Truhlar J. Phys. Chem. B, 113, (2009), 6378 

================================================================================

----- Orbital basis set information -----
Your calculation utilizes the basis: def2-mTZVPP
   Stefan Grimme, Andreas Hansen, Sebastian Ehlert, and Jan-Michael Mewes 
   J. Chem. Phys. 154, 064103 (2021). DOI: 10.1063/5.0040021

----- AuxJ basis set information -----
Your calculation utilizes the auxiliary basis: def2/J
   F. Weigend, Phys. Chem. Chem. Phys. 8, 1057 (2006).

================================================================================
                                        WARNINGS
                       Please study these warnings very carefully!
================================================================================

Using LibXC functional ID 497 : Re-regularized SCAN exchange by Furness et al
[ 1]  J. W. Furness, A. D. Kaplan, J. Ning, J. P. Perdew, and J. Sun.,  J. Phys. Chem. Lett. 11, 8208-8215 (2020)
[ 2]  J. W. Furness, A. D. Kaplan, J. Ning, J. P. Perdew, and J. Sun.,  J. Phys. Chem. Lett. 11, 9248-9248 (2020)
Using LibXC functional ID 498 : Re-regularized SCAN correlation by Furness et al
[ 1]  J. W. Furness, A. D. Kaplan, J. Ning, J. P. Perdew, and J. Sun.,  J. Phys. Chem. Lett. 11, 8208-8215 (2020)
[ 2]  J. W. Furness, A. D. Kaplan, J. Ning, J. P. Perdew, and J. Sun.,  J. Phys. Chem. Lett. 11, 9248-9248 (2020)
Using LibXC functional ID 497 : Re-regularized SCAN exchange by Furness et al
[ 1]  J. W. Furness, A. D. Kaplan, J. Ning, J. P. Perdew, and J. Sun.,  J. Phys. Chem. Lett. 11, 8208-8215 (2020)
[ 2]  J. W. Furness, A. D. Kaplan, J. Ning, J. P. Perdew, and J. Sun.,  J. Phys. Chem. Lett. 11, 9248-9248 (2020)
Using LibXC functional ID 498 : Re-regularized SCAN correlation by Furness et al
[ 1]  J. W. Furness, A. D. Kaplan, J. Ning, J. P. Perdew, and J. Sun.,  J. Phys. Chem. Lett. 11, 8208-8215 (2020)
[ 2]  J. W. Furness, A. D. Kaplan, J. Ning, J. P. Perdew, and J. Sun.,  J. Phys. Chem. Lett. 11, 9248-9248 (2020)

================================================================================
                                       INPUT FILE
================================================================================
NAME = xtb_opt.inp
|  1> ! r2scan-3c def2/J RI DEFGRID2 scfconv7 ENGRAD tightSCF miniprint
|  2> %cpcm
|  3>     smd true
|  4>     smdsolvent "water"
|  5> end
|  6> * xyzfile 0 1 xtb_opt.xyz
|  7> 
|  8>                          ****END OF INPUT****
================================================================================

                     *******************************
                     * Energy+Gradient Calculation *
                     *******************************

---------------------------------
CARTESIAN COORDINATES (ANGSTROEM)
---------------------------------
  C      2.551796   -0.323045   -0.000175
  C      1.282806    0.521678    0.000103
  C      0.024720   -0.342469    0.000282
  C     -1.255611    0.503755   -0.000092
  N     -2.494465   -0.260076   -0.000099
  H      2.586175   -0.958874   -0.882080
  H      3.433299    0.313062   -0.000445
  H      2.586643   -0.958782    0.881778
  H      1.274658    1.166563    0.881544
  H      1.274338    1.166636   -0.881283
  H      0.028399   -0.987906   -0.882874
  H      0.028262   -0.987375    0.883825
  H     -1.266168    1.147702   -0.884090
  H     -1.266427    1.148127    0.883594
  H     -2.520837   -0.862143   -0.816677
  H     -2.521031   -0.861856    0.816683

----------------------------
CARTESIAN COORDINATES (A.U.)
----------------------------
  NO LB      ZA    FRAG     MASS         X           Y           Z
   0 C     6.0000    0    12.011    4.822195   -0.610466   -0.000330
   1 C     6.0000    0    12.011    2.424152    0.985829    0.000194
   2 C     6.0000    0    12.011    0.046715   -0.647172    0.000532
   3 C     6.0000    0    12.011   -2.372761    0.951958   -0.000174
   4 N     7.0000    0    14.007   -4.713855   -0.491473   -0.000187
   5 H     1.0000    0     1.008    4.887163   -1.812009   -1.666889
   6 H     1.0000    0     1.008    6.487995    0.591602   -0.000842
   7 H     1.0000    0     1.008    4.888048   -1.811835    1.666318
   8 H     1.0000    0     1.008    2.408754    2.204484    1.665877
   9 H     1.0000    0     1.008    2.408151    2.204623   -1.665384
  10 H     1.0000    0     1.008    0.053667   -1.866872   -1.668389
  11 H     1.0000    0     1.008    0.053407   -1.865868    1.670187
  12 H     1.0000    0     1.008   -2.392710    2.168843   -1.670689
  13 H     1.0000    0     1.008   -2.393200    2.169645    1.669750
  14 H     1.0000    0     1.008   -4.763691   -1.629214   -1.543295
  15 H     1.0000    0     1.008   -4.764058   -1.628671    1.543308

------------------------------------------------------------------------------
                   ___                                                        
                  /   \      - P O W E R E D   B Y -                         
                 /     \                                                     
                 |  |  |   _    _      __       _____    __    __             
                 |  |  |  | |  | |    /  \     |  _  \  |  |  /  |          
                  \  \/   | |  | |   /    \    | | | |  |  | /  /          
                 / \  \   | |__| |  /  /\  \   | |_| |  |  |/  /          
                |  |  |   |  __  | /  /__\  \  |    /   |      \           
                |  |  |   | |  | | |   __   |  |    \   |  |\   \          
                \     /   | |  | | |  |  |  |  | |\  \  |  | \   \       
                 \___/    |_|  |_| |__|  |__|  |_| \__\ |__|  \__/        
                                                                              
                      - O R C A' S   B I G   F R I E N D -                    
                                      &                                       
                       - I N T E G R A L  F E E D E R -                       
                                                                              
 v1 FN, 2020, v2 2021, v3 2022-2024                                           
------------------------------------------------------------------------------


----------------------
SHARK INTEGRAL PACKAGE
----------------------

Number of atoms                             ...     16
Number of basis functions                   ...    155
Number of shells                            ...     79
Maximum angular momentum                    ...      2
Integral batch strategy                     ... SHARK/LIBINT Hybrid
RI-J (if used) integral strategy            ... SPLIT-RIJ (Revised 2003 algorithm where possible)
Printlevel                                  ...      1
Contraction scheme used                     ... SEGMENTED contraction
Prescreening option                         ... SCHWARTZ
   Thresh                                   ... 3.000e-11
   Tcut                                     ... 1.000e-12
   Tpresel                                  ... 1.000e-12 
Coulomb Range Separation                    ... NOT USED
Exchange Range Separation                   ... NOT USED
Multipole approximations                    ... NOT USED
Finite Nucleus Model                        ... NOT USED
CABS basis                                  ... NOT available
Auxiliary Coulomb fitting basis             ... AVAILABLE
   # of basis functions in Aux-J            ...    366
   # of shells in Aux-J                     ...    130
   Maximum angular momentum in Aux-J        ...      4
Auxiliary J/K fitting basis                 ... NOT available
Auxiliary Correlation fitting basis         ... NOT available
Auxiliary 'external' fitting basis          ... NOT available

Checking pre-screening integrals            ... done (  0.0 sec) Dimension = 79
Check shell pair data                       ... done (  0.0 sec)
Shell pair information
Shell pair cut-off parameter TPreSel        ...   1.0e-12
Total number of shell pairs                 ...      3160
Shell pairs after pre-screening             ...      2942
Total number of primitive shell pairs       ...     10874
Primitive shell pairs kept                  ...      7741
          la=0 lb=0:   1046 shell pairs
          la=1 lb=0:   1140 shell pairs
          la=1 lb=1:    325 shell pairs
          la=2 lb=0:    263 shell pairs
          la=2 lb=1:    148 shell pairs
          la=2 lb=2:     20 shell pairs

Calculating one electron integrals          ... done (  0.0 sec)
Calculating RI/J V-Matrix + Cholesky decomp.... done (  0.1 sec)
Calculating Nuclear repulsion               ... done (  0.0 sec) ENN=    186.294827745048 Eh

Diagonalization of the overlap matrix:
Smallest eigenvalue                        ... 1.918e-04
Time for diagonalization                   ...    0.002 sec
Threshold for overlap eigenvalues          ... 1.000e-07
Number of eigenvalues below threshold      ... 0
Time for construction of square roots      ...    0.022 sec
Total time needed                          ...    0.033 sec

-------------------
DFT GRID GENERATION
-------------------

General Integration Accuracy     IntAcc      ... 4.388
Radial Grid Type                 RadialGrid  ... OptM3 with GC (2021)
Angular Grid (max. ang.)         AngularGrid ... 4 (Lebedev-302)
Angular grid pruning method      GridPruning ... 4 (adaptive)
Weight generation scheme         WeightScheme... mBecke (2022)
Basis function cutoff            BFCut       ... 1.0000e-11
Integration weight cutoff        WCut        ... 1.0000e-14
Partially contracted basis set               ... off
Rotationally invariant grid construction     ... off
Angular grids for H and He will be reduced by one unit

Total number of grid points                  ...    65488
Total number of batches                      ...     1031
Average number of points per batch           ...       63
Average number of grid points per atom       ...     4093
Initializing property integral containers    ... done (  0.0 sec)

SHARK setup successfully completed in   1.0 seconds

Maximum memory used throughout the entire STARTUP-calculation: 27.1 MB
Occupation numbers will be reassigned to an Aufbau configuration
             **** ENERGY FILE WAS UPDATED (xtb_opt.en.tmp) ****
Finished Guess after   0.3 sec
Maximum memory used throughout the entire GUESS-calculation: 10.5 MB
--------------------
CPCM SOLVATION MODEL
--------------------
CPCM parameters:
  Epsilon                                         ...      78.3550
  Refrac                                          ...       1.3328
  Rsolv                                           ...       1.3000
  Surface type                                    ... GAUSSIAN VDW
  Discretization scheme                           ... Constant charge density
    Threshold for H atoms                         ...       5.0000 (charges/Ang^2)
    Threshold for non-H atoms                     ...       5.0000 (charges/Ang^2)
  Epsilon function type                           ...         CPCM
Solvent:                                          ... WATER
SMD-CDS solvent descriptors:
  Soln                                            ...       1.3328
  Soln25                                          ...       1.3323
  Sola                                            ...       0.0000
  Solb                                            ...       0.0000
  Solg                                            ...       0.0000
  Solc                                            ...       0.0000
  Solh                                            ...       0.0000
Radii:
  Scheme                                          ... Element-dependent radii
  Radius for C  used is    3.4960 Bohr (=   1.8500 Ang.)
  Radius for N  used is    3.5716 Bohr (=   1.8900 Ang.)
  Radius for H  used is    2.2677 Bohr (=   1.2000 Ang.)
Calculating surface                               ...        done! (  0.0s)
Cavity surface points                             ...         1185
Cavity Volume                                     ...     677.8374
Cavity Surface-area                               ...     462.5333
Calculating surface distance matrix               ...        done! (  0.0s)
Performing Cholesky decomposition & store         ...        done! (  0.1s)
Overall time for CPCM initialization              ...                 0.1s

----------------------------------------D-I-I-S--------------------------------------------
Iteration    Energy (Eh)           Delta-E    RMSDP     MaxDP     DIISErr   Damp  Time(sec)
-------------------------------------------------------------------------------------------
               ***  Starting incremental Fock matrix formation  ***
                              *** Initializing SOSCF ***
---------------------------------------S-O-S-C-F--------------------------------------
Iteration    Energy (Eh)           Delta-E    RMSDP     MaxDP     MaxGrad    Time(sec)
--------------------------------------------------------------------------------------
    1    -213.7392153270759820     0.00e+00  1.15e-06  2.43e-05  1.02e-06     2.1
               *** Restarting incremental Fock matrix formation ***
    2    -213.7392153277570799    -6.81e-10  8.38e-07  2.03e-05  2.74e-06     1.9
                  *** Gradient check signals convergence ***

               *****************************************************
               *                     SUCCESS                       *
               *           SCF CONVERGED AFTER   2 CYCLES          *
               *****************************************************


SMD CDS free energy correction energy :                 1.59969     Kcal/mol
Total Energy after SMD CDS correction =              -213.736666063 Eh
             **** ENERGY FILE WAS UPDATED (xtb_opt.en.tmp) ****

----------------
TOTAL SCF ENERGY
----------------

Total Energy       :       -213.73666606327535 Eh           -5816.07037 eV

Components:
Nuclear Repulsion  :        186.29482774504808 Eh            5069.33998 eV
Electronic Energy  :       -400.02437004266147 Eh          -10885.21650 eV
One Electron Energy:       -655.70283127174332 Eh          -17842.58114 eV
Two Electron Energy:        255.67846122908185 Eh            6957.36464 eV
CPCM Dielectric    :         -0.00967303014370 Eh              -0.26322 eV
SMD CDS (Gcds)     :          0.00254926448174 Eh               0.06937 eV

Virial components:
Potential Energy   :       -426.46020484018112 Eh          -11604.57214 eV
Kinetic Energy     :        212.72353877690577 Eh            5788.50177 eV
Virial Ratio       :          2.00476264776430

DFT components:
N(Alpha)           :       21.000080189924 electrons
N(Beta)            :       21.000080189924 electrons
N(Total)           :       42.000160379848 electrons
E(X)               :      -31.380870498119 Eh       
E(C)               :       -1.297081008332 Eh       
E(XC)              :      -32.677951506451 Eh       

CPCM Solvation Model Properties:
Surface-charge          :         -0.04041089763217
Corrected charge        :         -0.00000000000000
Outlying charge corr.   :          0.00013749962389 Eh               0.00374 eV
Free-energy (cav+disp)  :          0.00254926448174 Eh               0.06937 eV

---------------
SCF CONVERGENCE
---------------

  Last Energy change         ...    6.8110e-10  Tolerance :   1.0000e-07
  Last MAX-Density change    ...    2.0276e-05  Tolerance :   1.0000e-07
  Last RMS-Density change    ...    8.3769e-07  Tolerance :   5.0000e-09
  Last DIIS Error            ...    1.5610e-05  Tolerance :   1.0000e-07
  Last Orbital Gradient      ...    2.7443e-06  Tolerance :   1.0000e-04
  Last Orbital Rotation      ...    4.7661e-06  Tolerance :   1.0000e-04


----------------
ORBITAL ENERGIES
----------------

  NO   OCC          E(Eh)            E(eV) 
   0   2.0000     -14.128618      -384.4592 
   1   2.0000     -10.039491      -273.1884 
   2   2.0000     -10.015379      -272.5323 
   3   2.0000     -10.010995      -272.4130 
   4   2.0000     -10.007288      -272.3122 
   5   2.0000      -0.839724       -22.8500 
   6   2.0000      -0.744281       -20.2529 
   7   2.0000      -0.661979       -18.0134 
   8   2.0000      -0.577018       -15.7015 
   9   2.0000      -0.537888       -14.6367 
  10   2.0000      -0.460743       -12.5374 
  11   2.0000      -0.417111       -11.3502 
  12   2.0000      -0.398689       -10.8489 
  13   2.0000      -0.388293       -10.5660 
  14   2.0000      -0.355863        -9.6835 
  15   2.0000      -0.336637        -9.1604 
  16   2.0000      -0.313369        -8.5272 
  17   2.0000      -0.304832        -8.2949 
  18   2.0000      -0.293502        -7.9866 
  19   2.0000      -0.284414        -7.7393 
  20   2.0000      -0.202301        -5.5049 
  21   0.0000       0.085087         2.3153 
  22   0.0000       0.110934         3.0187 
  23   0.0000       0.125888         3.4256 
  24   0.0000       0.141904         3.8614 
  25   0.0000       0.146160         3.9772 
  26   0.0000       0.160757         4.3744 
  27   0.0000       0.171408         4.6643 
  28   0.0000       0.182603         4.9689 
  29   0.0000       0.189663         5.1610 
  30   0.0000       0.198848         5.4109 
  31   0.0000       0.205629         5.5955 
*Only the first 10 virtual orbitals were printed.
Total SCF time: 0 days 0 hours 0 min 4 sec 
Finished LeanSCF after   4.7 sec

Maximum memory used throughout the entire LEANSCF-calculation: 19.4 MB


-------------------------------------------------------------------------------
                          DFT DISPERSION CORRECTION                            
                                                                               
                                DFTD4 V3.4.0                                   
-------------------------------------------------------------------------------
-------------------------   ----------------
Dispersion correction           -0.003324875
-------------------------   ----------------

------------------   -----------------
gCP correction             0.010472275
------------------   -----------------

-------------------------   --------------------
FINAL SINGLE POINT ENERGY      -213.729518662965
-------------------------   --------------------

------------------------------------------------------------------------------
                         ORCA SCF GRADIENT CALCULATION
------------------------------------------------------------------------------

Nuc. rep. gradient        (SHARK) ... done (  0.0 sec)
HCore & Overlap gradient  (SHARK) ... done (  0.1 sec)
Split-RIJ-J gradient      (SHARK) ... done (  0.8 sec)
XC gradient                       ... done (  4.2 sec)
CPCM gradient                     ... done (  0.5 sec)
SMD gradient                      ... done (  0.0 sec)
Dispersion correction             ... done (  0.0 sec)

-------------------
DISPERSION GRADIENT
-------------------

   1   C   :    0.000071159   -0.000013823   -0.000000006
   2   C   :    0.000044499    0.000020943    0.000000003
   3   C   :   -0.000007491   -0.000010923    0.000000010
   4   C   :   -0.000041265    0.000020268   -0.000000002
   5   N   :   -0.000080498   -0.000025683   -0.000000003
   6   H   :    0.000028361   -0.000007651   -0.000005391
   7   H   :    0.000026758    0.000000619   -0.000000004
   8   H   :    0.000028357   -0.000007649    0.000005385
   9   H   :    0.000020386    0.000010984    0.000007188
  10   H   :    0.000020384    0.000010985   -0.000007183
  11   H   :   -0.000003546   -0.000007616   -0.000007900
  12   H   :   -0.000003549   -0.000007613    0.000007914
  13   H   :   -0.000025641    0.000008324   -0.000005568
  14   H   :   -0.000025639    0.000008325    0.000005563
  15   H   :   -0.000026139    0.000000254    0.000002556
  16   H   :   -0.000026136    0.000000253   -0.000002561

Difference to translation invariance:
           :   -0.0000000000   -0.0000000000    0.0000000000

Difference to rotation invariance:
           :    0.0000000000    0.0000000000    0.0000000000

Norm of the Dispersion gradient    ...    0.0001547214
RMS gradient                       ...    0.0000223321
MAX gradient                       ...    0.0000804982
gCP correction                   ... done

------------------
CARTESIAN GRADIENT
------------------

   1   C   :    0.003845392   -0.005198031   -0.000001916
   2   C   :    0.000025856    0.006739657   -0.000000027
   3   C   :    0.002669505   -0.009784439    0.000003712
   4   C   :   -0.006226719    0.005295168   -0.000003413
   5   N   :    0.012529313    0.001095235    0.000001067
   6   H   :   -0.001106975    0.003340370    0.003706518
   7   H   :   -0.005493908   -0.001369949    0.000000306
   8   H   :   -0.001108437    0.003340993   -0.003706578
   9   H   :    0.000125858   -0.003166710   -0.001931879
  10   H   :    0.000126084   -0.003164962    0.001933455
  11   H   :    0.000654618    0.002511428    0.001985098
  12   H   :    0.000653981    0.002511987   -0.001984872
  13   H   :   -0.002073562   -0.003004148    0.000421015
  14   H   :   -0.002074047   -0.003004741   -0.000420430
  15   H   :   -0.001273591    0.001929000   -0.001331372
  16   H   :   -0.001273368    0.001929140    0.001329316

Difference to translation invariance:
           :   -0.0000000000   -0.0000000000    0.0000000000

Difference to rotation invariance:
           :    0.0000009340   -0.0000006456   -0.0000193116

Norm of the Cartesian gradient     ...    0.0242802897
RMS gradient                       ...    0.0035045579
MAX gradient                       ...    0.0125293133

-------
TIMINGS
-------

Total SCF gradient time     ....        6.086 sec

Densities                   ....       0.000 sec  (  0.0%)
One electron gradient       ....       0.149 sec  (  2.4%)
RI-J Coulomb gradient       ....       0.758 sec  ( 12.4%)
XC gradient                 ....       4.245 sec  ( 69.8%)
CPCM gradient               ....       0.474 sec  (  7.8%)
   A-Matrix (El+Nuc)        ....       0.047 sec  (  0.8%)
   Potential                ....       0.428 sec  (  7.0%)
SMD gradient                ....       0.013 sec  (  0.2%)

Maximum memory used throughout the entire SCFGRAD-calculation: 30.5 MB

------------------------------------------------------------------------------
                              ORCA PROPERTY CALCULATIONS
------------------------------------------------------------------------------

GBWName                                 ... xtb_opt.gbw
Number of atoms                         ...     16
Number of basis functions               ...    155
Max core memory                         ...   1024 MB

Electric properties:
Dipole moment                           ... YES
Quadrupole moment                       ...  NO
Static polarizability (Dipole/Dipole)   ...  NO
Static polarizability (Dipole/Quad.)    ...  NO
Static polarizability (Quad./Quad.)     ...  NO
Static polarizability (Velocity)        ...  NO

Atomic electric properties:
Dipole moment                           ...  NO
Quadrupole moment                       ...  NO
Static polarizability                   ...  NO

Choice of electric origin               ... Center of mass
Position of electric origin             ...    -0.000010    -0.000004    -0.000000

General magnetic properties:
Magnetizability                         ...  NO

EPR properties:
g-Tensor (aka g-matrix)                 ...  NO
Zero-Field splitting spin-orbit         ...  NO
Zero-field splitting spin-spin          ...  NO
Hyperfine couplings                     ...  NO (   0 nuclei)
Quadrupole couplings                    ...  NO (   0 nuclei)
Contact density                         ...  NO (   0 nuclei)

NMR properties:
Chemical shifts                         ...  NO (   0 nuclei)
Spin-rotation constants                 ...  NO (   0 nuclei)
Spin-spin couplings                     ...  NO (   0 nuclei,    0 pairs)

Choice of magnetic origin               ... GIAO
Position of magnetic origin             ...     0.000000     0.000000     0.000000

Properties with geometric perturbations:
SCF Hessian                             ...  NO
IR spectrum                             ...  NO
VCD spectrum                            ...  NO
X-ray spectroscopy properties:
SCF XES/XAS/RIXS spectra                ...  NO


-------------
DIPOLE MOMENT
-------------

Method             : SCF
Type of density    : Electron Density
Multiplicity       :   1
Irrep              :   0
Energy             :  -213.7366660632753508 Eh
Relativity type    : 
Basis              : AO
                                X                 Y                 Z
Electronic contribution:     -2.861263790       0.186455018       0.000174713
Nuclear contribution   :      3.398759668      -0.634534961      -0.000024103
                        -----------------------------------------
Total Dipole Moment    :      0.537495878      -0.448079944       0.000150609
                        -----------------------------------------
Magnitude (a.u.)       :      0.699769588
Magnitude (Debye)      :      1.778672940



--------------------
Rotational spectrum 
--------------------
 
Rotational constants in cm-1:             0.594206             0.065749             0.062550 
Rotational constants in MHz :         17813.861665          1971.118417          1875.188381 

Dipole components along the rotational axes: 
x,y,z [a.u.] :    -0.537495    -0.448081     0.000151 
x,y,z [Debye]:    -1.366205    -1.138930     0.000383 

 

Dipole moment calculation done in   0.0 sec 

Maximum memory used throughout the entire PROP-calculation: 8.8 MB

--------------------------------
SUGGESTED CITATIONS FOR THIS RUN
--------------------------------

Below you find a list of papers that are relevant to this ORCA run
We neither can nor want to force you to cite these papers, but we appreciate if you do
You receive ORCA, which is the product of decades of hard work by many enthusiastic individuals, for free
The only thing we kindly ask in return is that you cite our papers,
We deeply appreciate it, if you show your appreciation for ORCA by not just citing the generic ORCA reference.

Please note that relegating all ORCA citations to the supporting information does *not* help us.
SI sections are not indexed - citations you put there will not count into any citation statistics
But we need these citations in order to attract the funding resources that allow us to do what we are doing

Therefore, if you are a happy ORCA user, please consider citing a few of the papers listed below in the main body of your paper

In addition to the list printed below, the program has created the file xtb_opt.bibtex that contains the list in bibtex format
You can import this file easily into all common literature databanks and citation aid programs


List of essential papers. We consider these as the minimum necessary citations

  1. Neese,F.
     Software update: the ORCA program system, version 5.0
     WIRES Comput. Molec. Sci., 2022 12(1)e1606
     doi.org/10.1002/wcms.1606
  2. Grimme,S.; Hansen,A.; Ehlert,S.; Mewes,J.
     r2SCAN-3c: A 'Swiss army knife' composite electronic-structure method
     J. Chem. Phys., 2021 154 064103
     doi.org/10.1063/5.0040021

List of papers to cite with high priority. The work reported in these papers was absolutely
necessary for this run to complete.
Our perspective: the developers of density functionals and basis sets usually get cited in chemistry papers
Good! But without the algorithms to do something with them, the functionals or basis sets would not do anything.
Hence, in our opinion, the algorithm design and method developments papers are equally worthy of getting cited

  1. Neese,F.
     An improvement of the resolution of the identity approximation for the formation of the Coulomb matrix
     J. Comp. Chem., 2003 24(14)1740-1747
     doi.org/10.1002/jcc.10318
  2. Garcia-Rates,M.; Neese,F.
     Effect of the Solute Cavity on the Solvation Energy and its Derivatives within the Framework of the Gaussian Charge Scheme
     J. Comput. Chem., 2020 41 922-939
     doi.org/10.1002/jcc.26139
  3. Neese,F.
     The SHARK Integral Generation and Digestion System
     J. Comp. Chem., 2022  1-16
     doi.org/10.1002/jcc.26942
  4. Lehtola,S.; Steigemann,C.; Oliveira,M.; Marques,M.
     Recent developments in Libxc - A comprehensive library of functionals for density functional theory
     Software X, 2018 7 
     doi.org/10.1016/j.softx.2017.11.002
  5. Caldeweyher,E.; Bannwarth,C.; Grimme,S.
     Extension of the D3 dispersion coefficient model
     J. Chem. Phys., 2017 147 034112-XXXX
     doi.org/10.1063/1.4993215
  6. Caldeweyher,E.; Ehlert,S.; Hansen,A.; Neugebauer,H.; Spicher,S.; Bannwarth,C.; Grimme,S.
     A generally applicable atomic-charge dependent London dispersion correction
     J. Chem. Phys., 2019 150 154122-XXXX
     doi.org/10.1063/1.5090222
  7. Caldeweyher,E.; Mewes,J.; Ehlert,S.; Grimme,S.
     Extension and evaluation of the D4 London-dispersion model for periodic systems
     Phys. Chem. Chem. Phys., 2020 22(16)8499-8512
     doi.org/10.1039/D0CP00502A

List of suggested additional citations. These are papers that are important in the 'surrounding' of 
of this run, or papers that preceded the highly important papers. If you like your results we are grateful for a citation.

  1. Neese,F.
     The ORCA program system
     WIRES Comput. Molec. Sci., 2012 2(1)73-78
     doi.org/10.1002/wcms.81
  2. Neese,F.
     Software update: the ORCA program system, version 4.0
     WIRES Comput. Molec. Sci., 2018 8(1)1-6
     doi.org/10.1002/wcms.1327
  3. Neese,F.; Wennmohs,F.; Becker,U.; Riplinger,C.
     The ORCA quantum chemistry program package
     J. Chem. Phys., 2020 152 Art. No. L224108
     doi.org/10.1063/5.0004608

List of optional additional citations

  1. Neese,F.
     Approximate second-order SCF convergence for spin unrestricted wavefunctions
     Chem. Phys. Lett., 2000 325(1-3)93-98
     doi.org/10.1016/s0009-2614(00)00662-x

Timings for individual modules:

Sum of individual times          ...       12.504 sec (=   0.208 min)
Startup calculation              ...        1.145 sec (=   0.019 min)   9.2 %
SCF iterations                   ...        5.091 sec (=   0.085 min)  40.7 %
Property calculations            ...        0.094 sec (=   0.002 min)   0.7 %
SCF Gradient evaluation          ...        6.175 sec (=   0.103 min)  49.4 %
                             ****ORCA TERMINATED NORMALLY****
TOTAL RUN TIME: 0 days 0 hours 0 minutes 13 seconds 372 msec
  ------------------------------------------------------------------------
          * successful ORCA run, taking over control again...

         :::::::::::::::::::::::::::::::::::::::::::::::::::::
         ::                  ORCA SUMMARY                   ::
         :::::::::::::::::::::::::::::::::::::::::::::::::::::
         :: total energy            -213.729518662965 Eh    ::
         :: gradient norm              0.024280289664 Eh/a0 ::
         :: HOMO-LUMO gap              0.000000000000 eV    ::
         :::::::::::::::::::::::::::::::::::::::::::::::::::::

      ----------------------------------------------------------- 
     |                       L-ANC optimizer                     |
      ----------------------------------------------------------- 
          low memory version by Sebastian Ehlert

          ...................................................
          :                      SETUP                      :
          :.................................................:
          :   energy convergence        0.5000000E-05 Eh    :
          :   grad. convergence         0.1000000E-02 Eh/a0 :
          :   optimization log               true           :
          :   writing optlog all                1     steps :
          :   Hessian reset                     8     steps :
          :   maximium step len.        1.0000000     a0    :
          :   LBFGS images                      8           :
          ...................................................
 * calculating model hessian...
Using Lindh-Hessian (1995)
 Shifting diagonal of input Hessian by   1.000000000000000E-002
 Lowest  eigenvalues of input Hessian
    0.000000    0.000000    0.000000    0.000000    0.000000    0.000000
    0.014165    0.014323    0.015391    0.021706    0.026769    0.028288
    0.029007    0.051697    0.054277    0.062522    0.064660    0.065677
 Highest eigenvalues
    1.177330    1.197103    1.218583    1.266439    1.352049    1.446296
 

........................................................................
.............................. CYCLE    1 ..............................
........................................................................
                         * ORCA takes the control...
  ------------------------------------------------------------------------

                                 *****************
                                 * O   R   C   A *
                                 *****************

                                            #,                                       
                                            ###                                      
                                            ####                                     
                                            #####                                    
                                            ######                                   
                                           ########,                                 
                                     ,,################,,,,,                         
                               ,,#################################,,                 
                          ,,##########################################,,             
                       ,#########################################, ''#####,          
                    ,#############################################,,   '####,        
                  ,##################################################,,,,####,       
                ,###########''''           ''''###############################       
              ,#####''   ,,,,##########,,,,          '''####'''          '####       
            ,##' ,,,,###########################,,,                        '##       
           ' ,,###''''                  '''############,,,                           
         ,,##''                                '''############,,,,        ,,,,,,###''
      ,#''                                            '''#######################'''  
     '                                                          ''''####''''         
             ,#######,   #######,   ,#######,      ##                                
            ,#'     '#,  ##    ##  ,#'     '#,    #''#        ,####,   ,####,        
            ##       ##  ##   ,#'  ##            #'  '#       #'       #'  '#        
            ##       ##  #######   ##           ,######,      #####,   #    #        
            '#,     ,#'  ##    ##  '#,     ,#' ,#      #,     #,   #   #,  ,#        
             '#######'   ##     ##  '#######'  #'      '#     '####' # '####'        



                #########################################################
                #                        -***-                          #
                #          Department of theory and spectroscopy        #
                #                                                       #
                #                      Frank Neese                      #
                #                                                       #
                #     Directorship, Architecture, Infrastructure        #
                #                    SHARK, DRIVERS                     #
                #        Core code/Algorithms in most modules           #
                #                                                       #
                #        Max Planck Institute fuer Kohlenforschung      #
                #                Kaiser Wilhelm Platz 1                 #
                #                 D-45470 Muelheim/Ruhr                 #
                #                      Germany                          #
                #                                                       #
                #                  All rights reserved                  #
                #                        -***-                          #
                #########################################################


                         Program Version 6.0.0  -   RELEASE  -


 With contributions from (in alphabetic order):
   Daniel Aravena         : Magnetic Suceptibility
   Michael Atanasov       : Ab Initio Ligand Field Theory (pilot matlab implementation)
   Alexander A. Auer      : GIAO ZORA, VPT2 properties, NMR spectrum
   Ute Becker             : All parallelization in ORCA, NUMFREQ, NUMCALC
   Giovanni Bistoni       : ED, misc. LED, open-shell LED, HFLD
   Martin Brehm           : Molecular dynamics
   Dmytro Bykov           : pre 5.0 version of the SCF Hessian
   Marcos Casanova-Páez   : Triplet and SCS-CIS(D). UHF-(DLPNO)-IP/EA/STEOM-CCSD. UHF-CVS-IP/STEOM-CCSD
   Vijay G. Chilkuri      : MRCI spin determinant printing, contributions to CSF-ICE
   Pauline Colinet        : FMM embedding
   Dipayan Datta          : RHF DLPNO-CCSD density
   Achintya Kumar Dutta   : EOM-CC, STEOM-CC
   Nicolas Foglia         : Exact transition moments, OPA infrastructure, MCD improvements
   Dmitry Ganyushin       : Spin-Orbit,Spin-Spin,Magnetic field MRCI
   Miquel Garcia          : C-PCM and meta-GGA Hessian, CCSD/C-PCM, Gaussian charge scheme
   Tiago L. C. Gouveia    : GS-ROHF, GS-ROCIS
   Yang Guo               : DLPNO-NEVPT2, F12-NEVPT2, CIM, IAO-localization
   Andreas Hansen         : Spin unrestricted coupled pair/coupled cluster methods
   Ingolf Harden          : AUTO-CI MPn and infrastructure 
   Benjamin Helmich-Paris : MC-RPA, TRAH-(SCF,CASSCF), AVAS, COSX integrals, SCF dyn. polar.
   Lee Huntington         : MR-EOM, pCC
   Robert Izsak           : Overlap fitted RIJCOSX, COSX-SCS-MP3, EOM
   Riya Kayal             : Wick's Theorem for AUTO-CI, AUTO-CI UHF-CCSDT
   Emily Kempfer          : AUTO-CI, RHF CISDT and CCSDT
   Christian Kollmar      : KDIIS, OOCD, Brueckner-CCSD(T), CCSD density, CASPT2, CASPT2-K, improved NEVPT2
   Axel Koslowski         : Symmetry handling
   Simone Kossmann        : Meta GGA functionals, TD-DFT gradient, OOMP2, (MP2 Hessian; deprecated post 5.0)
   Lucas Lang             : DCDCAS
   Marvin Lechner         : AUTO-CI (C++ implementation), FIC-MRCC
   Spencer Leger          : CASSCF response
   Dagmar Lenk            : GEPOL surface, SMD, ORCA-2-JSON
   Dimitrios Liakos       : Extrapolation schemes; Compound Job, initial MDCI parallelization
   Dimitrios Manganas     : Further ROCIS development; embedding schemes. LFT, Crystal Embedding
   Dimitrios Pantazis     : SARC Basis sets
   Anastasios Papadopoulos: AUTO-CI, single reference methods and gradients
   Taras Petrenko         : pre 6.0 DFT Hessian and TD-DFT gradient, (ASA, deprecated), ECA, 1-Electron XAS/XES, NRVS
   Peter Pinski           : DLPNO-MP2, DLPNO-MP2 Gradient
   Christoph Reimann      : Effective Core Potentials
   Marius Retegan         : Local ZFS, SOC
   Christoph Riplinger    : Optimizer, TS searches, QM/MM, DLPNO-CCSD(T), (RO)-DLPNO pert. Triples
   Michael Roemelt        : Original ROCIS implementation
   Masaaki Saitow         : Open-shell DLPNO-CCSD energy and density
   Barbara Sandhoefer     : DKH picture change effects
   Kantharuban Sivalingam : CASSCF convergence/infrastructure, NEVPT2 and variants, FIC-MRCI
   Bernardo de Souza      : ESD, SOC TD-DFT
   Georgi Stoychev        : AutoAux, RI-MP2 NMR, DLPNO-MP2 response, X2C
   Van Anh Tran           : RI-MP2 g-tensors
   Willem Van den Heuvel  : Paramagnetic NMR
   Zikuan Wang            : NOTCH, Electric field optimization 
   Frank Wennmohs         : Technical directorship and infrastructure
   Hang Xu                : AUTO-CI-Response properties 


 We gratefully acknowledge several colleagues who have allowed us to
 interface, adapt or use parts of their codes:
   Stefan Grimme, W. Hujo, H. Kruse, P. Pracht,  : VdW corrections, initial TS optimization,
                  C. Bannwarth, S. Ehlert,         DFT functionals, gCP, sTDA/sTD-DF
                  L. Wittmann, M. Mueller
   Ed Valeev, F. Pavosevic, A. Kumar             : LibInt (2-el integral package), F12 methods
   Garnet Chan, S. Sharma, J. Yang, R. Olivares  : DMRG
   Ulf Ekstrom                                   : XCFun DFT Library
   Mihaly Kallay                                 : mrcc  (arbitrary order and MRCC methods)
   Frank Weinhold                                : gennbo (NPA and NBO analysis)
   Simon Mueller                                 : openCOSMO-RS
   Christopher J. Cramer and Donald G. Truhlar   : smd solvation model
   Lars Goerigk                                  : TD-DFT with DH, B97 family of functionals
   V. Asgeirsson, H. Jonsson                     : NEB implementation
   FAccTs GmbH                                   : IRC, NEB, NEB-TS, DLPNO-Multilevel, CI-OPT
                                                   MM, QMMM, 2- and 3-layer-ONIOM, Crystal-QMMM,
                                                   LR-CPCM, SF, NACMEs, symmetry and pop. for TD-DFT,
                                                   nearIR, NL-DFT gradient (VV10), updates on ESD,
                                                   ML-optimized integration grids, MBIS, APM,
                                                   GOAT, DOCKER, SOLVATOR, interface openCOSMO-RS
   S Lehtola, MJT Oliveira, MAL Marques          : LibXC Library
   Liviu Ungur et al                             : ANISO software


 Your calculation uses the libint2 library for the computation of 2-el integrals
 For citations please refer to: http://libint.valeyev.net

 Your ORCA version has been built with support for libXC version: 6.2.2
 For citations please refer to: https://libxc.gitlab.io

 This ORCA versions uses:
   CBLAS   interface :  Fast vector & matrix operations
   LAPACKE interface :  Fast linear algebra routines
   SCALAPACK package :  Parallel linear algebra routines
   Shared memory     :  Shared parallel matrices
   BLAS/LAPACK       :  OpenBLAS 0.3.27  USE64BITINT DYNAMIC_ARCH NO_AFFINITY SkylakeX SINGLE_THREADED
        Core in use  :  SkylakeX
   Copyright (c) 2011-2014, The OpenBLAS Project




***************************************
The coordinates will be read from file: xtb_opt.xyz
***************************************


Your calculation utilizes the geometrical counterpoise correction gCP
Please cite in your paper:
H.Kruse, S. Grimme J.Chem.Phys., 136, (2012), 154101 
   

Your calculation utilizes the atom-pairwise dispersion correction
based on EEQ partial charges (D4)


Your calculation utilizes the SMD solvation module
Please cite in your paper:
A.V. Marenich, C.J. Cramer, D.G. Truhlar J. Phys. Chem. B, 113, (2009), 6378 

================================================================================

----- Orbital basis set information -----
Your calculation utilizes the basis: def2-mTZVPP
   Stefan Grimme, Andreas Hansen, Sebastian Ehlert, and Jan-Michael Mewes 
   J. Chem. Phys. 154, 064103 (2021). DOI: 10.1063/5.0040021

----- AuxJ basis set information -----
Your calculation utilizes the auxiliary basis: def2/J
   F. Weigend, Phys. Chem. Chem. Phys. 8, 1057 (2006).

================================================================================
                                        WARNINGS
                       Please study these warnings very carefully!
================================================================================

WARNING: Old DensityContainer found on disk!
         Will remove this file - 
         If you want to keep old densities, please start your calculation with a different basename. 

Using LibXC functional ID 497 : Re-regularized SCAN exchange by Furness et al
[ 1]  J. W. Furness, A. D. Kaplan, J. Ning, J. P. Perdew, and J. Sun.,  J. Phys. Chem. Lett. 11, 8208-8215 (2020)
[ 2]  J. W. Furness, A. D. Kaplan, J. Ning, J. P. Perdew, and J. Sun.,  J. Phys. Chem. Lett. 11, 9248-9248 (2020)
Using LibXC functional ID 498 : Re-regularized SCAN correlation by Furness et al
[ 1]  J. W. Furness, A. D. Kaplan, J. Ning, J. P. Perdew, and J. Sun.,  J. Phys. Chem. Lett. 11, 8208-8215 (2020)
[ 2]  J. W. Furness, A. D. Kaplan, J. Ning, J. P. Perdew, and J. Sun.,  J. Phys. Chem. Lett. 11, 9248-9248 (2020)
Using LibXC functional ID 497 : Re-regularized SCAN exchange by Furness et al
[ 1]  J. W. Furness, A. D. Kaplan, J. Ning, J. P. Perdew, and J. Sun.,  J. Phys. Chem. Lett. 11, 8208-8215 (2020)
[ 2]  J. W. Furness, A. D. Kaplan, J. Ning, J. P. Perdew, and J. Sun.,  J. Phys. Chem. Lett. 11, 9248-9248 (2020)
Using LibXC functional ID 498 : Re-regularized SCAN correlation by Furness et al
[ 1]  J. W. Furness, A. D. Kaplan, J. Ning, J. P. Perdew, and J. Sun.,  J. Phys. Chem. Lett. 11, 8208-8215 (2020)
[ 2]  J. W. Furness, A. D. Kaplan, J. Ning, J. P. Perdew, and J. Sun.,  J. Phys. Chem. Lett. 11, 9248-9248 (2020)

================================================================================
                                       INPUT FILE
================================================================================
NAME = xtb_opt.inp
|  1> ! r2scan-3c def2/J RI DEFGRID2 scfconv7 ENGRAD tightSCF miniprint
|  2> %cpcm
|  3>     smd true
|  4>     smdsolvent "water"
|  5> end
|  6> * xyzfile 0 1 xtb_opt.xyz
|  7> 
|  8>                          ****END OF INPUT****
================================================================================

                     *******************************
                     * Energy+Gradient Calculation *
                     *******************************

---------------------------------
CARTESIAN COORDINATES (ANGSTROEM)
---------------------------------
  C      2.560443   -0.320195   -0.000161
  C      1.285459    0.519713    0.000088
  C      0.018234   -0.333459    0.000260
  C     -1.265286    0.499557   -0.000085
  N     -2.517485   -0.262482   -0.000086
  H      2.598493   -0.963085   -0.884289
  H      3.454419    0.308966   -0.000412
  H      2.598927   -0.963004    0.884006
  H      1.277287    1.173561    0.880059
  H      1.276991    1.173611   -0.879843
  H      0.017931   -0.986221   -0.882341
  H      0.017809   -0.985720    0.883231
  H     -1.260683    1.154534   -0.879146
  H     -1.260920    1.154950    0.878669
  H     -2.527435   -0.873009   -0.811011
  H     -2.527624   -0.872720    0.811054

----------------------------
CARTESIAN COORDINATES (A.U.)
----------------------------
  NO LB      ZA    FRAG     MASS         X           Y           Z
   0 C     6.0000    0    12.011    4.838535   -0.605081   -0.000305
   1 C     6.0000    0    12.011    2.429165    0.982115    0.000167
   2 C     6.0000    0    12.011    0.034458   -0.630146    0.000491
   3 C     6.0000    0    12.011   -2.391044    0.944025   -0.000160
   4 N     7.0000    0    14.007   -4.757358   -0.496019   -0.000162
   5 H     1.0000    0     1.008    4.910440   -1.819966   -1.671064
   6 H     1.0000    0     1.008    6.527905    0.583861   -0.000779
   7 H     1.0000    0     1.008    4.911260   -1.819813    1.670529
   8 H     1.0000    0     1.008    2.413724    2.217708    1.663071
   9 H     1.0000    0     1.008    2.413164    2.217804   -1.662662
  10 H     1.0000    0     1.008    0.033885   -1.863688   -1.667383
  11 H     1.0000    0     1.008    0.033655   -1.862740    1.669065
  12 H     1.0000    0     1.008   -2.382346    2.181754   -1.661345
  13 H     1.0000    0     1.008   -2.382794    2.182539    1.660443
  14 H     1.0000    0     1.008   -4.776161   -1.649748   -1.532588
  15 H     1.0000    0     1.008   -4.776518   -1.649201    1.532670

------------------------------------------------------------------------------
                   ___                                                        
                  /   \      - P O W E R E D   B Y -                         
                 /     \                                                     
                 |  |  |   _    _      __       _____    __    __             
                 |  |  |  | |  | |    /  \     |  _  \  |  |  /  |          
                  \  \/   | |  | |   /    \    | | | |  |  | /  /          
                 / \  \   | |__| |  /  /\  \   | |_| |  |  |/  /          
                |  |  |   |  __  | /  /__\  \  |    /   |      \           
                |  |  |   | |  | | |   __   |  |    \   |  |\   \          
                \     /   | |  | | |  |  |  |  | |\  \  |  | \   \       
                 \___/    |_|  |_| |__|  |__|  |_| \__\ |__|  \__/        
                                                                              
                      - O R C A' S   B I G   F R I E N D -                    
                                      &                                       
                       - I N T E G R A L  F E E D E R -                       
                                                                              
 v1 FN, 2020, v2 2021, v3 2022-2024                                           
------------------------------------------------------------------------------


----------------------
SHARK INTEGRAL PACKAGE
----------------------

Number of atoms                             ...     16
Number of basis functions                   ...    155
Number of shells                            ...     79
Maximum angular momentum                    ...      2
Integral batch strategy                     ... SHARK/LIBINT Hybrid
RI-J (if used) integral strategy            ... SPLIT-RIJ (Revised 2003 algorithm where possible)
Printlevel                                  ...      1
Contraction scheme used                     ... SEGMENTED contraction
Prescreening option                         ... SCHWARTZ
   Thresh                                   ... 3.000e-11
   Tcut                                     ... 1.000e-12
   Tpresel                                  ... 1.000e-12 
Coulomb Range Separation                    ... NOT USED
Exchange Range Separation                   ... NOT USED
Multipole approximations                    ... NOT USED
Finite Nucleus Model                        ... NOT USED
CABS basis                                  ... NOT available
Auxiliary Coulomb fitting basis             ... AVAILABLE
   # of basis functions in Aux-J            ...    366
   # of shells in Aux-J                     ...    130
   Maximum angular momentum in Aux-J        ...      4
Auxiliary J/K fitting basis                 ... NOT available
Auxiliary Correlation fitting basis         ... NOT available
Auxiliary 'external' fitting basis          ... NOT available

Checking pre-screening integrals            ... done (  0.0 sec) Dimension = 79
Check shell pair data                       ... done (  0.0 sec)
Shell pair information
Shell pair cut-off parameter TPreSel        ...   1.0e-12
Total number of shell pairs                 ...      3160
Shell pairs after pre-screening             ...      2942
Total number of primitive shell pairs       ...     10874
Primitive shell pairs kept                  ...      7736
          la=0 lb=0:   1046 shell pairs
          la=1 lb=0:   1140 shell pairs
          la=1 lb=1:    325 shell pairs
          la=2 lb=0:    263 shell pairs
          la=2 lb=1:    148 shell pairs
          la=2 lb=2:     20 shell pairs

Calculating one electron integrals          ... done (  0.0 sec)
Calculating RI/J V-Matrix + Cholesky decomp.... done (  0.1 sec)
Calculating Nuclear repulsion               ... done (  0.0 sec) ENN=    185.676902002852 Eh

Diagonalization of the overlap matrix:
Smallest eigenvalue                        ... 1.989e-04
Time for diagonalization                   ...    0.002 sec
Threshold for overlap eigenvalues          ... 1.000e-07
Number of eigenvalues below threshold      ... 0
Time for construction of square roots      ...    0.014 sec
Total time needed                          ...    0.028 sec

-------------------
DFT GRID GENERATION
-------------------

General Integration Accuracy     IntAcc      ... 4.388
Radial Grid Type                 RadialGrid  ... OptM3 with GC (2021)
Angular Grid (max. ang.)         AngularGrid ... 4 (Lebedev-302)
Angular grid pruning method      GridPruning ... 4 (adaptive)
Weight generation scheme         WeightScheme... mBecke (2022)
Basis function cutoff            BFCut       ... 1.0000e-11
Integration weight cutoff        WCut        ... 1.0000e-14
Partially contracted basis set               ... off
Rotationally invariant grid construction     ... off
Angular grids for H and He will be reduced by one unit

Total number of grid points                  ...    65503
Total number of batches                      ...     1032
Average number of points per batch           ...       63
Average number of grid points per atom       ...     4094
Initializing property integral containers    ... done (  0.0 sec)

SHARK setup successfully completed in   1.2 seconds

Maximum memory used throughout the entire STARTUP-calculation: 27.1 MB
Occupation numbers will be reassigned to an Aufbau configuration
             **** ENERGY FILE WAS UPDATED (xtb_opt.en.tmp) ****
Finished Guess after   0.3 sec
Maximum memory used throughout the entire GUESS-calculation: 10.5 MB
--------------------
CPCM SOLVATION MODEL
--------------------
CPCM parameters:
  Epsilon                                         ...      78.3550
  Refrac                                          ...       1.3328
  Rsolv                                           ...       1.3000
  Surface type                                    ... GAUSSIAN VDW
  Discretization scheme                           ... Constant charge density
    Threshold for H atoms                         ...       5.0000 (charges/Ang^2)
    Threshold for non-H atoms                     ...       5.0000 (charges/Ang^2)
  Epsilon function type                           ...         CPCM
Solvent:                                          ... WATER
SMD-CDS solvent descriptors:
  Soln                                            ...       1.3328
  Soln25                                          ...       1.3323
  Sola                                            ...       0.0000
  Solb                                            ...       0.0000
  Solg                                            ...       0.0000
  Solc                                            ...       0.0000
  Solh                                            ...       0.0000
Radii:
  Scheme                                          ... Element-dependent radii
  Radius for C  used is    3.4960 Bohr (=   1.8500 Ang.)
  Radius for N  used is    3.5716 Bohr (=   1.8900 Ang.)
  Radius for H  used is    2.2677 Bohr (=   1.2000 Ang.)
Calculating surface                               ...        done! (  0.0s)
Cavity surface points                             ...         1194
Cavity Volume                                     ...     680.0868
Cavity Surface-area                               ...     464.9854
Calculating surface distance matrix               ...        done! (  0.0s)
Performing Cholesky decomposition & store         ...        done! (  0.1s)
Overall time for CPCM initialization              ...                 0.1s

----------------------------------------D-I-I-S--------------------------------------------
Iteration    Energy (Eh)           Delta-E    RMSDP     MaxDP     DIISErr   Damp  Time(sec)
-------------------------------------------------------------------------------------------
               ***  Starting incremental Fock matrix formation  ***
    1    -213.7396020209893663     0.00e+00  8.49e-05  1.33e-03  3.34e-03  0.700   2.0
                              *** Initializing SOSCF ***
---------------------------------------S-O-S-C-F--------------------------------------
Iteration    Energy (Eh)           Delta-E    RMSDP     MaxDP     MaxGrad    Time(sec)
--------------------------------------------------------------------------------------
    2    -213.7396628453653307    -6.08e-05  2.62e-04  4.62e-03  2.60e-03     1.8
               *** Restarting incremental Fock matrix formation ***
    3    -213.7398033527735492    -1.41e-04  5.94e-05  1.49e-03  2.75e-04     1.9
    4    -213.7398024033665820     9.49e-07  2.46e-05  4.67e-04  3.45e-04     1.7
    5    -213.7398072480185647    -4.84e-06  6.55e-06  1.47e-04  2.73e-05     1.7
    6    -213.7398072414865169     6.53e-09  2.59e-06  7.16e-05  3.65e-05     1.6
                 **** Energy Check signals convergence ****

               *****************************************************
               *                     SUCCESS                       *
               *           SCF CONVERGED AFTER   6 CYCLES          *
               *****************************************************


SMD CDS free energy correction energy :                 1.56489     Kcal/mol
Total Energy after SMD CDS correction =              -213.737313429 Eh
             **** ENERGY FILE WAS UPDATED (xtb_opt.en.tmp) ****

----------------
TOTAL SCF ENERGY
----------------

Total Energy       :       -213.73731342897733 Eh           -5816.08798 eV

Components:
Nuclear Repulsion  :        185.67690200285222 Eh            5052.52537 eV
Electronic Energy  :       -399.40693373504843 Eh          -10868.41521 eV
One Electron Energy:       -654.46304562504713 Eh          -17808.84486 eV
Two Electron Energy:        255.05611188999870 Eh            6940.42965 eV
CPCM Dielectric    :         -0.00977550929029 Eh              -0.26601 eV
SMD CDS (Gcds)     :          0.00249381250920 Eh               0.06786 eV

Virial components:
Potential Energy   :       -426.38617066186930 Eh          -11602.55757 eV
Kinetic Energy     :        212.64885723289197 Eh            5786.46958 eV
Virial Ratio       :          2.00511856122929

DFT components:
N(Alpha)           :       21.000089471801 electrons
N(Beta)            :       21.000089471801 electrons
N(Total)           :       42.000178943602 electrons
E(X)               :      -31.361152453495 Eh       
E(C)               :       -1.296168421449 Eh       
E(XC)              :      -32.657320874944 Eh       

CPCM Solvation Model Properties:
Surface-charge          :         -0.04054747869578
Corrected charge        :         -0.00000000000000
Outlying charge corr.   :          0.00013816225183 Eh               0.00376 eV
Free-energy (cav+disp)  :          0.00249381250920 Eh               0.06786 eV

---------------
SCF CONVERGENCE
---------------

  Last Energy change         ...   -6.5320e-09  Tolerance :   1.0000e-07
  Last MAX-Density change    ...    7.1629e-05  Tolerance :   1.0000e-07
  Last RMS-Density change    ...    2.5872e-06  Tolerance :   5.0000e-09
  Last DIIS Error            ...    2.5995e-03  Tolerance :   1.0000e-07
  Last Orbital Gradient      ...    3.6517e-05  Tolerance :   1.0000e-04
  Last Orbital Rotation      ...    2.3769e-05  Tolerance :   1.0000e-04


----------------
ORBITAL ENERGIES
----------------

  NO   OCC          E(Eh)            E(eV) 
   0   2.0000     -14.131157      -384.5283 
   1   2.0000     -10.041045      -273.2307 
   2   2.0000     -10.017712      -272.5958 
   3   2.0000     -10.012723      -272.4601 
   4   2.0000     -10.010175      -272.3907 
   5   2.0000      -0.838902       -22.8277 
   6   2.0000      -0.743750       -20.2385 
   7   2.0000      -0.663093       -18.0437 
   8   2.0000      -0.577295       -15.7090 
   9   2.0000      -0.537449       -14.6247 
  10   2.0000      -0.458534       -12.4773 
  11   2.0000      -0.415347       -11.3022 
  12   2.0000      -0.399147       -10.8613 
  13   2.0000      -0.387996       -10.5579 
  14   2.0000      -0.355366        -9.6700 
  15   2.0000      -0.335631        -9.1330 
  16   2.0000      -0.316431        -8.6105 
  17   2.0000      -0.303504        -8.2588 
  18   2.0000      -0.293003        -7.9730 
  19   2.0000      -0.282503        -7.6873 
  20   2.0000      -0.206527        -5.6199 
  21   0.0000       0.085294         2.3210 
  22   0.0000       0.110586         3.0092 
  23   0.0000       0.123544         3.3618 
  24   0.0000       0.141143         3.8407 
  25   0.0000       0.145631         3.9628 
  26   0.0000       0.160490         4.3672 
  27   0.0000       0.170540         4.6406 
  28   0.0000       0.180001         4.8981 
  29   0.0000       0.188774         5.1368 
  30   0.0000       0.198743         5.4081 
  31   0.0000       0.202955         5.5227 
*Only the first 10 virtual orbitals were printed.
Total SCF time: 0 days 0 hours 0 min 11 sec 
Finished LeanSCF after  11.2 sec

Maximum memory used throughout the entire LEANSCF-calculation: 19.6 MB


-------------------------------------------------------------------------------
                          DFT DISPERSION CORRECTION                            
                                                                               
                                DFTD4 V3.4.0                                   
-------------------------------------------------------------------------------
-------------------------   ----------------
Dispersion correction           -0.003316183
-------------------------   ----------------

------------------   -----------------
gCP correction             0.010352580
------------------   -----------------

-------------------------   --------------------
FINAL SINGLE POINT ENERGY      -213.730277032205
-------------------------   --------------------

------------------------------------------------------------------------------
                         ORCA SCF GRADIENT CALCULATION
------------------------------------------------------------------------------

Nuc. rep. gradient        (SHARK) ... done (  0.0 sec)
HCore & Overlap gradient  (SHARK) ... done (  0.1 sec)
Split-RIJ-J gradient      (SHARK) ... done (  0.8 sec)
XC gradient                       ... done (  4.1 sec)
CPCM gradient                     ... done (  0.5 sec)
SMD gradient                      ... done (  0.0 sec)
Dispersion correction             ... done (  0.0 sec)

-------------------
DISPERSION GRADIENT
-------------------

   1   C   :    0.000071386   -0.000013920   -0.000000006
   2   C   :    0.000044511    0.000021098    0.000000003
   3   C   :   -0.000007975   -0.000010888    0.000000009
   4   C   :   -0.000041413    0.000020182   -0.000000002
   5   N   :   -0.000079467   -0.000026161   -0.000000002
   6   H   :    0.000028375   -0.000007596   -0.000005298
   7   H   :    0.000026526    0.000000429   -0.000000004
   8   H   :    0.000028372   -0.000007594    0.000005292
   9   H   :    0.000020250    0.000011028    0.000007167
  10   H   :    0.000020249    0.000011029   -0.000007163
  11   H   :   -0.000003751   -0.000007520   -0.000007886
  12   H   :   -0.000003753   -0.000007517    0.000007899
  13   H   :   -0.000025420    0.000008376   -0.000005552
  14   H   :   -0.000025418    0.000008377    0.000005547
  15   H   :   -0.000026238    0.000000340    0.000002543
  16   H   :   -0.000026235    0.000000339   -0.000002548

Difference to translation invariance:
           :    0.0000000000    0.0000000000   -0.0000000000

Difference to rotation invariance:
           :    0.0000000000   -0.0000000000   -0.0000000000

Norm of the Dispersion gradient    ...    0.0001543416
RMS gradient                       ...    0.0000222773
MAX gradient                       ...    0.0000794671
gCP correction                   ... done

------------------
CARTESIAN GRADIENT
------------------

   1   C   :    0.002177697   -0.000927708   -0.000000674
   2   C   :    0.000305577    0.000826183   -0.000000108
   3   C   :    0.001568273   -0.000525206    0.000000468
   4   C   :   -0.005158160   -0.000661974   -0.000000655
   5   N   :    0.004400098   -0.001151966    0.000000168
   6   H   :   -0.000554022    0.000907170    0.000848760
   7   H   :   -0.000970848   -0.000408318   -0.000000750
   8   H   :   -0.000553212    0.000907406   -0.000848866
   9   H   :   -0.000052892   -0.001063731   -0.000534117
[...]

Virial components:
Potential Energy   :       -426.35965984131786 Eh          -11601.83617 eV
Kinetic Energy     :        212.62218755873960 Eh            5785.74387 eV
Virial Ratio       :          2.00524538260397

DFT components:
N(Alpha)           :       21.000090118626 electrons
N(Beta)            :       21.000090118626 electrons
N(Total)           :       42.000180237252 electrons
E(X)               :      -31.353270106876 Eh       
E(C)               :       -1.295869037739 Eh       
E(XC)              :      -32.649139144614 Eh       

CPCM Solvation Model Properties:
Surface-charge          :         -0.04053400332779
Corrected charge        :          0.00000000000000
Outlying charge corr.   :          0.00013803522863 Eh               0.00376 eV
Free-energy (cav+disp)  :          0.00239162871347 Eh               0.06508 eV

---------------
SCF CONVERGENCE
---------------

  Last Energy change         ...    2.3182e-09  Tolerance :   1.0000e-07
  Last MAX-Density change    ...    3.2046e-05  Tolerance :   1.0000e-07
  Last RMS-Density change    ...    1.3793e-06  Tolerance :   5.0000e-09
  Last DIIS Error            ...    4.1450e-05  Tolerance :   1.0000e-07
  Last Orbital Gradient      ...    1.0417e-05  Tolerance :   1.0000e-04
  Last Orbital Rotation      ...    1.5511e-05  Tolerance :   1.0000e-04


----------------
ORBITAL ENERGIES
----------------

  NO   OCC          E(Eh)            E(eV) 
   0   2.0000     -14.131924      -384.5492 
   1   2.0000     -10.041487      -273.2428 
   2   2.0000     -10.018385      -272.6141 
   3   2.0000     -10.013660      -272.4855 
   4   2.0000     -10.010743      -272.4062 
   5   2.0000      -0.838050       -22.8045 
   6   2.0000      -0.743791       -20.2396 
   7   2.0000      -0.663317       -18.0498 
   8   2.0000      -0.576962       -15.6999 
   9   2.0000      -0.537803       -14.6344 
  10   2.0000      -0.456462       -12.4210 
  11   2.0000      -0.413857       -11.2616 
  12   2.0000      -0.398407       -10.8412 
  13   2.0000      -0.387415       -10.5421 
  14   2.0000      -0.354411        -9.6440 
  15   2.0000      -0.335625        -9.1328 
  16   2.0000      -0.316829        -8.6214 
  17   2.0000      -0.302899        -8.2423 
  18   2.0000      -0.293848        -7.9960 
  19   2.0000      -0.282264        -7.6808 
  20   2.0000      -0.209247        -5.6939 
  21   0.0000       0.084766         2.3066 
  22   0.0000       0.110260         3.0003 
  23   0.0000       0.122929         3.3451 
  24   0.0000       0.140322         3.8184 
  25   0.0000       0.144317         3.9271 
  26   0.0000       0.160367         4.3638 
  27   0.0000       0.170219         4.6319 
  28   0.0000       0.179873         4.8946 
  29   0.0000       0.188790         5.1372 
  30   0.0000       0.198501         5.4015 
  31   0.0000       0.202740         5.5168 
*Only the first 10 virtual orbitals were printed.
Total SCF time: 0 days 0 hours 0 min 4 sec 
Finished LeanSCF after   4.4 sec

Maximum memory used throughout the entire LEANSCF-calculation: 19.6 MB


-------------------------------------------------------------------------------
                          DFT DISPERSION CORRECTION                            
                                                                               
                                DFTD4 V3.4.0                                   
-------------------------------------------------------------------------------
-------------------------   ----------------
Dispersion correction           -0.003318656
-------------------------   ----------------

------------------   -----------------
gCP correction             0.010349017
------------------   -----------------

-------------------------   --------------------
FINAL SINGLE POINT ENERGY      -213.730441922136
-------------------------   --------------------

------------------------------------------------------------------------------
                         ORCA SCF GRADIENT CALCULATION
------------------------------------------------------------------------------

Nuc. rep. gradient        (SHARK) ... done (  0.0 sec)
HCore & Overlap gradient  (SHARK) ... done (  0.2 sec)
Split-RIJ-J gradient      (SHARK) ... done (  0.8 sec)
XC gradient                       ... done (  3.9 sec)
CPCM gradient                     ... done (  0.5 sec)
SMD gradient                      ... done (  0.0 sec)
Dispersion correction             ... done (  0.0 sec)

-------------------
DISPERSION GRADIENT
-------------------

   1   C   :    0.000071726   -0.000014072   -0.000000003
   2   C   :    0.000044495    0.000021271    0.000000000
   3   C   :   -0.000008408   -0.000011111    0.000000006
   4   C   :   -0.000041500    0.000020384   -0.000000002
   5   N   :   -0.000078398   -0.000026823    0.000000002
   6   H   :    0.000028464   -0.000007652   -0.000005295
   7   H   :    0.000026541    0.000000351   -0.000000002
   8   H   :    0.000028463   -0.000007651    0.000005291
   9   H   :    0.000020238    0.000011090    0.000007171
  10   H   :    0.000020237    0.000011090   -0.000007170
  11   H   :   -0.000003954   -0.000007499   -0.000007863
  12   H   :   -0.000003956   -0.000007497    0.000007871
  13   H   :   -0.000025328    0.000008546   -0.000005545
  14   H   :   -0.000025326    0.000008548    0.000005542
  15   H   :   -0.000026647    0.000000513    0.000002577
  16   H   :   -0.000026646    0.000000513   -0.000002579

Difference to translation invariance:
           :    0.0000000000    0.0000000000    0.0000000000

Difference to rotation invariance:
           :   -0.0000000000    0.0000000000   -0.0000000000

Norm of the Dispersion gradient    ...    0.0001543708
RMS gradient                       ...    0.0000222815
MAX gradient                       ...    0.0000783977
gCP correction                   ... done

------------------
CARTESIAN GRADIENT
------------------

   1   C   :   -0.000002190   -0.000015539   -0.000000112
   2   C   :    0.000037065   -0.000005107   -0.000000003
   3   C   :   -0.000025453   -0.000020316    0.000000067
   4   C   :    0.000032526    0.000025370   -0.000000125
   5   N   :    0.000021691    0.000046061   -0.000000644
   6   H   :    0.000008484    0.000031353    0.000028295
   7   H   :   -0.000030353    0.000011921   -0.000000444
   8   H   :    0.000009135    0.000031389   -0.000028629
   9   H   :   -0.000012194   -0.000026553   -0.000013123
  10   H   :   -0.000012671   -0.000025934    0.000013950
  11   H   :   -0.000001238    0.000011672    0.000015496
  12   H   :   -0.000001597    0.000012294   -0.000014553
  13   H   :    0.000008952   -0.000026559    0.000008456
  14   H   :    0.000008465   -0.000026332   -0.000008662
  15   H   :   -0.000020175   -0.000011660    0.000010356
  16   H   :   -0.000020449   -0.000012058   -0.000010324

Difference to translation invariance:
           :    0.0000000000   -0.0000000000   -0.0000000000

Difference to rotation invariance:
           :    0.0000002715   -0.0000005824    0.0000497252

Norm of the Cartesian gradient     ...    0.0001327517
RMS gradient                       ...    0.0000191611
MAX gradient                       ...    0.0000460611

-------
TIMINGS
-------

Total SCF gradient time     ....        5.702 sec

Densities                   ....       0.000 sec  (  0.0%)
One electron gradient       ....       0.152 sec  (  2.7%)
RI-J Coulomb gradient       ....       0.755 sec  ( 13.2%)
XC gradient                 ....       3.871 sec  ( 67.9%)
CPCM gradient               ....       0.474 sec  (  8.3%)
   A-Matrix (El+Nuc)        ....       0.048 sec  (  0.8%)
   Potential                ....       0.426 sec  (  7.5%)
SMD gradient                ....       0.014 sec  (  0.2%)

Maximum memory used throughout the entire SCFGRAD-calculation: 30.5 MB

------------------------------------------------------------------------------
                              ORCA PROPERTY CALCULATIONS
------------------------------------------------------------------------------

GBWName                                 ... xtb_opt.gbw
Number of atoms                         ...     16
Number of basis functions               ...    155
Max core memory                         ...   1024 MB

Electric properties:
Dipole moment                           ... YES
Quadrupole moment                       ...  NO
Static polarizability (Dipole/Dipole)   ...  NO
Static polarizability (Dipole/Quad.)    ...  NO
Static polarizability (Quad./Quad.)     ...  NO
Static polarizability (Velocity)        ...  NO

Atomic electric properties:
Dipole moment                           ...  NO
Quadrupole moment                       ...  NO
Static polarizability                   ...  NO

Choice of electric origin               ... Center of mass
Position of electric origin             ...    -0.014212     0.003438    -0.000001

General magnetic properties:
Magnetizability                         ...  NO

EPR properties:
g-Tensor (aka g-matrix)                 ...  NO
Zero-Field splitting spin-orbit         ...  NO
Zero-field splitting spin-spin          ...  NO
Hyperfine couplings                     ...  NO (   0 nuclei)
Quadrupole couplings                    ...  NO (   0 nuclei)
Contact density                         ...  NO (   0 nuclei)

NMR properties:
Chemical shifts                         ...  NO (   0 nuclei)
Spin-rotation constants                 ...  NO (   0 nuclei)
Spin-spin couplings                     ...  NO (   0 nuclei,    0 pairs)

Choice of magnetic origin               ... GIAO
Position of magnetic origin             ...     0.000000     0.000000     0.000000

Properties with geometric perturbations:
SCF Hessian                             ...  NO
IR spectrum                             ...  NO
VCD spectrum                            ...  NO
X-ray spectroscopy properties:
SCF XES/XAS/RIXS spectra                ...  NO


-------------
DIPOLE MOMENT
-------------

Method             : SCF
Type of density    : Electron Density
Multiplicity       :   1
Irrep              :   0
Energy             :  -213.7374722825782669 Eh
Relativity type    : 
Basis              : AO
                                X                 Y                 Z
Electronic contribution:     -2.903387350       0.206594030       0.000116780
Nuclear contribution   :      3.518533079      -0.664783819       0.000004083
                        -----------------------------------------
Total Dipole Moment    :      0.615145729      -0.458189789       0.000120863
                        -----------------------------------------
Magnitude (a.u.)       :      0.767034657
Magnitude (Debye)      :      1.949647158



--------------------
Rotational spectrum 
--------------------
 
Rotational constants in cm-1:             0.591980             0.065200             0.061999 
Rotational constants in MHz :         17747.114060          1954.655339          1858.692670 

Dipole components along the rotational axes: 
x,y,z [a.u.] :     0.615096     0.458257     0.000102 
x,y,z [Debye]:     1.563449     1.164797     0.000260 

 

Dipole moment calculation done in   0.0 sec 

Maximum memory used throughout the entire PROP-calculation: 8.8 MB

--------------------------------
SUGGESTED CITATIONS FOR THIS RUN
--------------------------------

Below you find a list of papers that are relevant to this ORCA run
We neither can nor want to force you to cite these papers, but we appreciate if you do
You receive ORCA, which is the product of decades of hard work by many enthusiastic individuals, for free
The only thing we kindly ask in return is that you cite our papers,
We deeply appreciate it, if you show your appreciation for ORCA by not just citing the generic ORCA reference.

Please note that relegating all ORCA citations to the supporting information does *not* help us.
SI sections are not indexed - citations you put there will not count into any citation statistics
But we need these citations in order to attract the funding resources that allow us to do what we are doing

Therefore, if you are a happy ORCA user, please consider citing a few of the papers listed below in the main body of your paper

In addition to the list printed below, the program has created the file xtb_opt.bibtex that contains the list in bibtex format
You can import this file easily into all common literature databanks and citation aid programs


List of essential papers. We consider these as the minimum necessary citations

  1. Neese,F.
     Software update: the ORCA program system, version 5.0
     WIRES Comput. Molec. Sci., 2022 12(1)e1606
     doi.org/10.1002/wcms.1606
  2. Grimme,S.; Hansen,A.; Ehlert,S.; Mewes,J.
     r2SCAN-3c: A 'Swiss army knife' composite electronic-structure method
     J. Chem. Phys., 2021 154 064103
     doi.org/10.1063/5.0040021

List of papers to cite with high priority. The work reported in these papers was absolutely
necessary for this run to complete.
Our perspective: the developers of density functionals and basis sets usually get cited in chemistry papers
Good! But without the algorithms to do something with them, the functionals or basis sets would not do anything.
Hence, in our opinion, the algorithm design and method developments papers are equally worthy of getting cited

  1. Neese,F.
     An improvement of the resolution of the identity approximation for the formation of the Coulomb matrix
     J. Comp. Chem., 2003 24(14)1740-1747
     doi.org/10.1002/jcc.10318
  2. Garcia-Rates,M.; Neese,F.
     Effect of the Solute Cavity on the Solvation Energy and its Derivatives within the Framework of the Gaussian Charge Scheme
     J. Comput. Chem., 2020 41 922-939
     doi.org/10.1002/jcc.26139
  3. Neese,F.
     The SHARK Integral Generation and Digestion System
     J. Comp. Chem., 2022  1-16
     doi.org/10.1002/jcc.26942
  4. Lehtola,S.; Steigemann,C.; Oliveira,M.; Marques,M.
     Recent developments in Libxc - A comprehensive library of functionals for density functional theory
     Software X, 2018 7 
     doi.org/10.1016/j.softx.2017.11.002
  5. Caldeweyher,E.; Bannwarth,C.; Grimme,S.
     Extension of the D3 dispersion coefficient model
     J. Chem. Phys., 2017 147 034112-XXXX
     doi.org/10.1063/1.4993215
  6. Caldeweyher,E.; Ehlert,S.; Hansen,A.; Neugebauer,H.; Spicher,S.; Bannwarth,C.; Grimme,S.
     A generally applicable atomic-charge dependent London dispersion correction
     J. Chem. Phys., 2019 150 154122-XXXX
     doi.org/10.1063/1.5090222
  7. Caldeweyher,E.; Mewes,J.; Ehlert,S.; Grimme,S.
     Extension and evaluation of the D4 London-dispersion model for periodic systems
     Phys. Chem. Chem. Phys., 2020 22(16)8499-8512
     doi.org/10.1039/D0CP00502A

List of suggested additional citations. These are papers that are important in the 'surrounding' of 
of this run, or papers that preceded the highly important papers. If you like your results we are grateful for a citation.

  1. Neese,F.
     The ORCA program system
     WIRES Comput. Molec. Sci., 2012 2(1)73-78
     doi.org/10.1002/wcms.81
  2. Neese,F.
     Software update: the ORCA program system, version 4.0
     WIRES Comput. Molec. Sci., 2018 8(1)1-6
     doi.org/10.1002/wcms.1327
  3. Neese,F.; Wennmohs,F.; Becker,U.; Riplinger,C.
     The ORCA quantum chemistry program package
     J. Chem. Phys., 2020 152 Art. No. L224108
     doi.org/10.1063/5.0004608

List of optional additional citations

  1. Neese,F.
     Approximate second-order SCF convergence for spin unrestricted wavefunctions
     Chem. Phys. Lett., 2000 325(1-3)93-98
     doi.org/10.1016/s0009-2614(00)00662-x

Timings for individual modules:

Sum of individual times          ...       11.575 sec (=   0.193 min)
Startup calculation              ...        0.915 sec (=   0.015 min)   7.9 %
SCF iterations                   ...        4.764 sec (=   0.079 min)  41.2 %
Property calculations            ...        0.105 sec (=   0.002 min)   0.9 %
SCF Gradient evaluation          ...        5.791 sec (=   0.097 min)  50.0 %
                             ****ORCA TERMINATED NORMALLY****
TOTAL RUN TIME: 0 days 0 hours 0 minutes 12 seconds 371 msec
  ------------------------------------------------------------------------
          * successful ORCA run, taking over control again...

         :::::::::::::::::::::::::::::::::::::::::::::::::::::
         ::                  ORCA SUMMARY                   ::
         :::::::::::::::::::::::::::::::::::::::::::::::::::::
         :: total energy            -213.730441922136 Eh    ::
         :: gradient norm              0.000132751730 Eh/a0 ::
         :: HOMO-LUMO gap              0.000000000000 eV    ::
         :::::::::::::::::::::::::::::::::::::::::::::::::::::

           -------------------------------------------------
          |                Property Printout                |
           -------------------------------------------------
           -------------------------------------------------
          |                Geometry Summary                 |
           -------------------------------------------------

      molecular mass/u    :       73.1369951
   center of mass at/Å    :       -0.0075232       0.0018194      -0.0000007
  moments of inertia/u·Å² :        0.2847541E+02   0.2585442E+03   0.2718926E+03
rotational constants/cm⁻¹ :        0.5920067E+00   0.6520212E-01   0.6200107E-01

 * 15 selected distances

     #   Z          #   Z                                           value/Å
     1   6 C        2   6 C                                       1.5260221
     2   6 C        3   6 C                                       1.5282397 (max)
     3   6 C        4   6 C                                       1.5259359
     4   6 C        5   7 N                                       1.4753369
     1   6 C        6   1 H                                       1.0957740
     1   6 C        7   1 H                                       1.0949476
     1   6 C        8   1 H                                       1.0957737
     2   6 C        9   1 H                                       1.0980045
     2   6 C       10   1 H                                       1.0980050
     3   6 C       11   1 H                                       1.0994254
     3   6 C       12   1 H                                       1.0994252
     4   6 C       13   1 H                                       1.0971130
     4   6 C       14   1 H                                       1.0971132
     5   7 N       15   1 H                                       1.0171043 (min)
     5   7 N       16   1 H                                       1.0171046

 * 4 distinct bonds (by element types)

   Z      Z             #   av. dist./Å        max./Å        min./Å
   1 H    6 C           9     1.0972869     1.0994254     1.0949476
   6 C    6 C           3     1.5267326     1.5282397     1.5259359
   1 H    7 N           2     1.0171044     1.0171046     1.0171043
   6 C    7 N           1     1.4753369     1.4753369     1.4753369


optimized geometry written to: xtbopt.coord


           -------------------------------------------------
          | TOTAL ENERGY             -213.730441922136 Eh   |
          | GRADIENT NORM               0.000132751730 Eh/α |
           -------------------------------------------------

------------------------------------------------------------------------
 * finished run on 2025/04/11 at 12:32:59.396     
------------------------------------------------------------------------
 total:
 * wall-time:     0 d,  0 h,  1 min, 51.389 sec
 *  cpu-time:     0 d,  0 h,  0 min,  1.701 sec
 * ratio c/w:     0.015 speedup
 SCF:
 * wall-time:     0 d,  0 h,  0 min, 13.450 sec
 *  cpu-time:     0 d,  0 h,  0 min,  0.674 sec
 * ratio c/w:     0.050 speedup
 ANC optimizer:
 * wall-time:     0 d,  0 h,  1 min, 37.913 sec
 *  cpu-time:     0 d,  0 h,  0 min,  0.976 sec
 * ratio c/w:     0.010 speedup

