      -----------------------------------------------------------      
     |                   =====================                   |     
     |                           x T B                           |     
     |                   =====================                   |     
     |                         S. Grimme                         |     
     |          Mulliken Center for Theoretical Chemistry        |     
     |                    University of Bonn                     |     
      -----------------------------------------------------------      

   * xtb version 6.7.1 (edcfbbe) compiled by 'albert@albert-system' on 2024-07-22

   xtb is free software: you can redistribute it and/or modify it under
   the terms of the GNU Lesser General Public License as published by
   the Free Software Foundation, either version 3 of the License, or
   (at your option) any later version.
   
   xtb is distributed in the hope that it will be useful,
   but WITHOUT ANY WARRANTY; without even the implied warranty of
   MERCHANTABILITY or FITNESS FOR A PARTICULAR PURPOSE.  See the
   GNU Lesser General Public License for more details.
   
   Cite this work as:
   * C. Bannwarth, E. Caldeweyher, S. Ehlert, A. Hansen, P. Pracht,
     J. Seibert, S. Spicher, S. Grimme, WIREs Comput. Mol. Sci., 2020, 11,
     e01493. DOI: 10.1002/wcms.1493
   
   for GFN2-xTB:
   * C. Bannwarth, S. Ehlert and S. Grimme., J. Chem. Theory Comput., 2019,
     15, 1652-1671. DOI: 10.1021/acs.jctc.8b01176
   for GFN1-xTB:
   * S. Grimme, C. Bannwarth, P. Shushkov, J. Chem. Theory Comput., 2017,
     13, 1989-2009. DOI: 10.1021/acs.jctc.7b00118
   for GFN0-xTB:
   * P. Pracht, E. Caldeweyher, S. Ehlert, S. Grimme, ChemRxiv, 2019, preprint.
     DOI: 10.26434/chemrxiv.8326202.v1
   for GFN-FF:
   * S. Spicher and S. Grimme, Angew. Chem. Int. Ed., 2020, 59, 15665-15673.
     DOI: 10.1002/anie.202004239
   
   for ALPB and GBSA implicit solvation:
   * S. Ehlert, M. Stahn, S. Spicher, S. Grimme, J. Chem. Theory Comput.,
     2021, 17, 4250-4261. DOI: 10.1021/acs.jctc.1c00471
   
   for ddCOSMO and CPCM-X implicit solvation:
   * M. Stahn, S. Ehlert, S. Grimme, J. Phys. Chem. A,
     2023, XX, XXXX-XXXX. DOI: 10.1021/acs.jpca.3c04382
   
   for DFT-D4:
   * E. Caldeweyher, C. Bannwarth and S. Grimme, J. Chem. Phys., 2017,
     147, 034112. DOI: 10.1063/1.4993215
   * E. Caldeweyher, S. Ehlert, A. Hansen, H. Neugebauer, S. Spicher,
     C. Bannwarth and S. Grimme, J. Chem. Phys., 2019, 150, 154122.
     DOI: 10.1063/1.5090222
   * E. Caldeweyher, J.-M. Mewes, S. Ehlert and S. Grimme, Phys. Chem. Chem. Phys.
     2020, 22, 8499-8512. DOI: 10.1039/D0CP00502A
   
   for sTDA-xTB:
   * S. Grimme and C. Bannwarth, J. Chem. Phys., 2016, 145, 054103.
     DOI: 10.1063/1.4959605
   
   in the mass-spec context:
   * V. Asgeirsson, C. Bauer and S. Grimme, Chem. Sci., 2017, 8, 4879.
     DOI: 10.1039/c7sc00601b
   * J. Koopman and S. Grimme, ACS Omega 2019, 4, 12, 15120-15133.
     DOI: 10.1021/acsomega.9b02011
   
   for metadynamics refer to:
   * S. Grimme, J. Chem. Theory Comput., 2019, 155, 2847-2862
     DOI: 10.1021/acs.jctc.9b00143
   
   for SPH calculations refer to:
   * S. Spicher and S. Grimme, J. Chem. Theory Comput., 2021, 17, 1701-1714
     DOI: 10.1021/acs.jctc.0c01306
   
   for ONIOM refer to:
   * C. Plett, A. Katbashev, S. Ehlert, S. Grimme, M. Bursch,
     Phys. Chem. Chem. Phys., 2023, 25, 17860-17868. DOI: 10.1039/D3CP02178E
   
   for DIPRO refer to:
   * J. Kohn, N. Gildemeister, S. Grimme, D. Fazzi, A. Hansen,
     J. Chem. Phys., 2023, just accepted.
   
   for PTB refer to:
   * S. Grimme, M. Mueller, A. Hansen, J. Chem. Phys., 2023, 158, 124111.
     DOI: 10.1063/5.0137838
   
   with help from (in alphabetical order)
   P. Atkinson, C. Bannwarth, F. Bohle, G. Brandenburg, E. Caldeweyher
   M. Checinski, S. Dohm, S. Ehlert, S. Ehrlich, I. Gerasimov, C. Hölzer
   A. Katbashev, J. Kohn, J. Koopman, C. Lavigne, S. Lehtola, F. März, M. Müller,
   F. Musil, H. Neugebauer, J. Pisarek, C. Plett, P. Pracht, F. Pultar,
   J. Seibert, P. Shushkov, S. Spicher, M. Stahn, M. Steiner, T. Strunk,
   J. Stückrath, T. Rose, and J. Unsleber
   
 * started run on 2025/04/11 at 16:44:17.150     
   ID    Z sym.   atoms
    1    6 C      1-4, 7, 8
    2    8 O      5, 6
    3    1 H      9-20

           -------------------------------------------------
          |                Calculation Setup                |
           -------------------------------------------------

          program call               : /srv/scratch/z5358697/.xtb/bin/xtb xtb_opt.coord --opt normal --orca -I xtb_opt-xcontrol-inp
          hostname                   : k061
          coordinate file            : xtb_opt.coord
          omp threads                :                    16

           -------------------------------------------------
          |                   Orca driver                   |
           -------------------------------------------------
orca executable           : /apps/z_install_tree/linux-rocky8-ivybridge/gcc-12.2.0/orca-6.0.0-srtngmq3qlimg2qxbl6avaaiffipurdx/bin/orca
orca input file           : xtb_opt.inp
orca input line           : 
orca parallel             : true
orca number of threads    : 16
                         * ORCA takes the control...
  ------------------------------------------------------------------------

                                 *****************
                                 * O   R   C   A *
                                 *****************

                                            #,                                       
                                            ###                                      
                                            ####                                     
                                            #####                                    
                                            ######                                   
                                           ########,                                 
                                     ,,################,,,,,                         
                               ,,#################################,,                 
                          ,,##########################################,,             
                       ,#########################################, ''#####,          
                    ,#############################################,,   '####,        
                  ,##################################################,,,,####,       
                ,###########''''           ''''###############################       
              ,#####''   ,,,,##########,,,,          '''####'''          '####       
            ,##' ,,,,###########################,,,                        '##       
           ' ,,###''''                  '''############,,,                           
         ,,##''                                '''############,,,,        ,,,,,,###''
      ,#''                                            '''#######################'''  
     '                                                          ''''####''''         
             ,#######,   #######,   ,#######,      ##                                
            ,#'     '#,  ##    ##  ,#'     '#,    #''#        ,####,   ,####,        
            ##       ##  ##   ,#'  ##            #'  '#       #'       #'  '#        
            ##       ##  #######   ##           ,######,      #####,   #    #        
            '#,     ,#'  ##    ##  '#,     ,#' ,#      #,     #,   #   #,  ,#        
             '#######'   ##     ##  '#######'  #'      '#     '####' # '####'        



                #########################################################
                #                        -***-                          #
                #          Department of theory and spectroscopy        #
                #                                                       #
                #                      Frank Neese                      #
                #                                                       #
                #     Directorship, Architecture, Infrastructure        #
                #                    SHARK, DRIVERS                     #
                #        Core code/Algorithms in most modules           #
                #                                                       #
                #        Max Planck Institute fuer Kohlenforschung      #
                #                Kaiser Wilhelm Platz 1                 #
                #                 D-45470 Muelheim/Ruhr                 #
                #                      Germany                          #
                #                                                       #
                #                  All rights reserved                  #
                #                        -***-                          #
                #########################################################


                         Program Version 6.0.0  -   RELEASE  -


 With contributions from (in alphabetic order):
   Daniel Aravena         : Magnetic Suceptibility
   Michael Atanasov       : Ab Initio Ligand Field Theory (pilot matlab implementation)
   Alexander A. Auer      : GIAO ZORA, VPT2 properties, NMR spectrum
   Ute Becker             : All parallelization in ORCA, NUMFREQ, NUMCALC
   Giovanni Bistoni       : ED, misc. LED, open-shell LED, HFLD
   Martin Brehm           : Molecular dynamics
   Dmytro Bykov           : pre 5.0 version of the SCF Hessian
   Marcos Casanova-Páez   : Triplet and SCS-CIS(D). UHF-(DLPNO)-IP/EA/STEOM-CCSD. UHF-CVS-IP/STEOM-CCSD
   Vijay G. Chilkuri      : MRCI spin determinant printing, contributions to CSF-ICE
   Pauline Colinet        : FMM embedding
   Dipayan Datta          : RHF DLPNO-CCSD density
   Achintya Kumar Dutta   : EOM-CC, STEOM-CC
   Nicolas Foglia         : Exact transition moments, OPA infrastructure, MCD improvements
   Dmitry Ganyushin       : Spin-Orbit,Spin-Spin,Magnetic field MRCI
   Miquel Garcia          : C-PCM and meta-GGA Hessian, CCSD/C-PCM, Gaussian charge scheme
   Tiago L. C. Gouveia    : GS-ROHF, GS-ROCIS
   Yang Guo               : DLPNO-NEVPT2, F12-NEVPT2, CIM, IAO-localization
   Andreas Hansen         : Spin unrestricted coupled pair/coupled cluster methods
   Ingolf Harden          : AUTO-CI MPn and infrastructure 
   Benjamin Helmich-Paris : MC-RPA, TRAH-(SCF,CASSCF), AVAS, COSX integrals, SCF dyn. polar.
   Lee Huntington         : MR-EOM, pCC
   Robert Izsak           : Overlap fitted RIJCOSX, COSX-SCS-MP3, EOM
   Riya Kayal             : Wick's Theorem for AUTO-CI, AUTO-CI UHF-CCSDT
   Emily Kempfer          : AUTO-CI, RHF CISDT and CCSDT
   Christian Kollmar      : KDIIS, OOCD, Brueckner-CCSD(T), CCSD density, CASPT2, CASPT2-K, improved NEVPT2
   Axel Koslowski         : Symmetry handling
   Simone Kossmann        : Meta GGA functionals, TD-DFT gradient, OOMP2, (MP2 Hessian; deprecated post 5.0)
   Lucas Lang             : DCDCAS
   Marvin Lechner         : AUTO-CI (C++ implementation), FIC-MRCC
   Spencer Leger          : CASSCF response
   Dagmar Lenk            : GEPOL surface, SMD, ORCA-2-JSON
   Dimitrios Liakos       : Extrapolation schemes; Compound Job, initial MDCI parallelization
   Dimitrios Manganas     : Further ROCIS development; embedding schemes. LFT, Crystal Embedding
   Dimitrios Pantazis     : SARC Basis sets
   Anastasios Papadopoulos: AUTO-CI, single reference methods and gradients
   Taras Petrenko         : pre 6.0 DFT Hessian and TD-DFT gradient, (ASA, deprecated), ECA, 1-Electron XAS/XES, NRVS
   Peter Pinski           : DLPNO-MP2, DLPNO-MP2 Gradient
   Christoph Reimann      : Effective Core Potentials
   Marius Retegan         : Local ZFS, SOC
   Christoph Riplinger    : Optimizer, TS searches, QM/MM, DLPNO-CCSD(T), (RO)-DLPNO pert. Triples
   Michael Roemelt        : Original ROCIS implementation
   Masaaki Saitow         : Open-shell DLPNO-CCSD energy and density
   Barbara Sandhoefer     : DKH picture change effects
   Kantharuban Sivalingam : CASSCF convergence/infrastructure, NEVPT2 and variants, FIC-MRCI
   Bernardo de Souza      : ESD, SOC TD-DFT
   Georgi Stoychev        : AutoAux, RI-MP2 NMR, DLPNO-MP2 response, X2C
   Van Anh Tran           : RI-MP2 g-tensors
   Willem Van den Heuvel  : Paramagnetic NMR
   Zikuan Wang            : NOTCH, Electric field optimization 
   Frank Wennmohs         : Technical directorship and infrastructure
   Hang Xu                : AUTO-CI-Response properties 


 We gratefully acknowledge several colleagues who have allowed us to
 interface, adapt or use parts of their codes:
   Stefan Grimme, W. Hujo, H. Kruse, P. Pracht,  : VdW corrections, initial TS optimization,
                  C. Bannwarth, S. Ehlert,         DFT functionals, gCP, sTDA/sTD-DF
                  L. Wittmann, M. Mueller
   Ed Valeev, F. Pavosevic, A. Kumar             : LibInt (2-el integral package), F12 methods
   Garnet Chan, S. Sharma, J. Yang, R. Olivares  : DMRG
   Ulf Ekstrom                                   : XCFun DFT Library
   Mihaly Kallay                                 : mrcc  (arbitrary order and MRCC methods)
   Frank Weinhold                                : gennbo (NPA and NBO analysis)
   Simon Mueller                                 : openCOSMO-RS
   Christopher J. Cramer and Donald G. Truhlar   : smd solvation model
   Lars Goerigk                                  : TD-DFT with DH, B97 family of functionals
   V. Asgeirsson, H. Jonsson                     : NEB implementation
   FAccTs GmbH                                   : IRC, NEB, NEB-TS, DLPNO-Multilevel, CI-OPT
                                                   MM, QMMM, 2- and 3-layer-ONIOM, Crystal-QMMM,
                                                   LR-CPCM, SF, NACMEs, symmetry and pop. for TD-DFT,
                                                   nearIR, NL-DFT gradient (VV10), updates on ESD,
                                                   ML-optimized integration grids, MBIS, APM,
                                                   GOAT, DOCKER, SOLVATOR, interface openCOSMO-RS
   S Lehtola, MJT Oliveira, MAL Marques          : LibXC Library
   Liviu Ungur et al                             : ANISO software


 Your calculation uses the libint2 library for the computation of 2-el integrals
 For citations please refer to: http://libint.valeyev.net

 Your ORCA version has been built with support for libXC version: 6.2.2
 For citations please refer to: https://libxc.gitlab.io

 This ORCA versions uses:
   CBLAS   interface :  Fast vector & matrix operations
   LAPACKE interface :  Fast linear algebra routines
   SCALAPACK package :  Parallel linear algebra routines
   Shared memory     :  Shared parallel matrices
   BLAS/LAPACK       :  OpenBLAS 0.3.27  USE64BITINT DYNAMIC_ARCH NO_AFFINITY SkylakeX SINGLE_THREADED
        Core in use  :  SkylakeX
   Copyright (c) 2011-2014, The OpenBLAS Project




***************************************
The coordinates will be read from file: xtb_opt.xyz
***************************************


Your calculation utilizes the geometrical counterpoise correction gCP
Please cite in your paper:
H.Kruse, S. Grimme J.Chem.Phys., 136, (2012), 154101 
   

Your calculation utilizes the atom-pairwise dispersion correction
based on EEQ partial charges (D4)


Your calculation utilizes the SMD solvation module
Please cite in your paper:
A.V. Marenich, C.J. Cramer, D.G. Truhlar J. Phys. Chem. B, 113, (2009), 6378 

================================================================================

----- Orbital basis set information -----
Your calculation utilizes the basis: def2-mTZVPP
   Stefan Grimme, Andreas Hansen, Sebastian Ehlert, and Jan-Michael Mewes 
   J. Chem. Phys. 154, 064103 (2021). DOI: 10.1063/5.0040021

----- AuxJ basis set information -----
Your calculation utilizes the auxiliary basis: def2/J
   F. Weigend, Phys. Chem. Chem. Phys. 8, 1057 (2006).

================================================================================
                                        WARNINGS
                       Please study these warnings very carefully!
================================================================================

WARNING: Old DensityContainer found on disk!
         Will remove this file - 
         If you want to keep old densities, please start your calculation with a different basename. 

Using LibXC functional ID 497 : Re-regularized SCAN exchange by Furness et al
[ 1]  J. W. Furness, A. D. Kaplan, J. Ning, J. P. Perdew, and J. Sun.,  J. Phys. Chem. Lett. 11, 8208-8215 (2020)
[ 2]  J. W. Furness, A. D. Kaplan, J. Ning, J. P. Perdew, and J. Sun.,  J. Phys. Chem. Lett. 11, 9248-9248 (2020)
Using LibXC functional ID 498 : Re-regularized SCAN correlation by Furness et al
[ 1]  J. W. Furness, A. D. Kaplan, J. Ning, J. P. Perdew, and J. Sun.,  J. Phys. Chem. Lett. 11, 8208-8215 (2020)
[ 2]  J. W. Furness, A. D. Kaplan, J. Ning, J. P. Perdew, and J. Sun.,  J. Phys. Chem. Lett. 11, 9248-9248 (2020)
Using LibXC functional ID 497 : Re-regularized SCAN exchange by Furness et al
[ 1]  J. W. Furness, A. D. Kaplan, J. Ning, J. P. Perdew, and J. Sun.,  J. Phys. Chem. Lett. 11, 8208-8215 (2020)
[ 2]  J. W. Furness, A. D. Kaplan, J. Ning, J. P. Perdew, and J. Sun.,  J. Phys. Chem. Lett. 11, 9248-9248 (2020)
Using LibXC functional ID 498 : Re-regularized SCAN correlation by Furness et al
[ 1]  J. W. Furness, A. D. Kaplan, J. Ning, J. P. Perdew, and J. Sun.,  J. Phys. Chem. Lett. 11, 8208-8215 (2020)
[ 2]  J. W. Furness, A. D. Kaplan, J. Ning, J. P. Perdew, and J. Sun.,  J. Phys. Chem. Lett. 11, 9248-9248 (2020)

================================================================================
                                       INPUT FILE
================================================================================
NAME = xtb_opt.inp
|  1> ! r2scan-3c def2/J RI DEFGRID2 scfconv7 ENGRAD tightSCF miniprint
|  2> %cpcm
|  3>     smd true
|  4>     smdsolvent "water"
|  5> end
|  6> * xyzfile 0 1 xtb_opt.xyz
|  7> 
|  8>                          ****END OF INPUT****
================================================================================

                     *******************************
                     * Energy+Gradient Calculation *
                     *******************************

---------------------------------
CARTESIAN COORDINATES (ANGSTROEM)
---------------------------------
  C     -2.437513   -0.796523    1.041544
  C     -2.119788   -0.758221   -0.449894
  C     -1.418153    0.544339   -0.870279
  C     -0.134889    0.760316   -0.118826
  O      0.061485    1.652214    0.693433
  O      0.792319   -0.161685   -0.431239
  C      2.077499   -0.050781    0.257742
  C      2.959247   -1.160610   -0.255221
  H     -1.523677   -0.756069    1.646212
  H     -3.068118    0.051679    1.330611
  H     -2.968071   -1.716908    1.304045
  H     -3.043992   -0.838660   -1.031240
  H     -1.493872   -1.613563   -0.724997
  H     -2.062193    1.404221   -0.670793
  H     -1.192243    0.515210   -1.941773
  H      2.497162    0.936532    0.043569
  H      1.899330   -0.134742    1.333948
  H      3.927810   -1.104413    0.250498
  H      2.520715   -2.141166   -0.048006
  H      3.128409   -1.065587   -1.331654

----------------------------
CARTESIAN COORDINATES (A.U.)
----------------------------
  NO LB      ZA    FRAG     MASS         X           Y           Z
   0 C     6.0000    0    12.011   -4.606232   -1.505210    1.968233
   1 C     6.0000    0    12.011   -4.005818   -1.432829   -0.850177
   2 C     6.0000    0    12.011   -2.679921    1.028652   -1.644589
   3 C     6.0000    0    12.011   -0.254902    1.436790   -0.224549
   4 O     8.0000    0    15.999    0.116189    3.122231    1.310399
   5 O     8.0000    0    15.999    1.497266   -0.305540   -0.814924
   6 C     6.0000    0    12.011    3.925905   -0.095963    0.487062
   7 C     6.0000    0    12.011    5.592166   -2.193235   -0.482297
   8 H     1.0000    0     1.008   -2.879332   -1.428763    3.110889
   9 H     1.0000    0     1.008   -5.797904    0.097659    2.514490
  10 H     1.0000    0     1.008   -5.608842   -3.244485    2.464289
  11 H     1.0000    0     1.008   -5.752311   -1.584838   -1.948761
  12 H     1.0000    0     1.008   -2.823009   -3.049193   -1.370046
  13 H     1.0000    0     1.008   -3.896981    2.653594   -1.267614
  14 H     1.0000    0     1.008   -2.253012    0.973606   -3.669419
  15 H     1.0000    0     1.008    4.718952    1.769790    0.082334
  16 H     1.0000    0     1.008    3.589214   -0.254625    2.520797
  17 H     1.0000    0     1.008    7.422484   -2.087039    0.473372
  18 H     1.0000    0     1.008    4.763462   -4.046217   -0.090718
  19 H     1.0000    0     1.008    5.911836   -2.013667   -2.516461

------------------------------------------------------------------------------
                   ___                                                        
                  /   \      - P O W E R E D   B Y -                         
                 /     \                                                     
                 |  |  |   _    _      __       _____    __    __             
                 |  |  |  | |  | |    /  \     |  _  \  |  |  /  |          
                  \  \/   | |  | |   /    \    | | | |  |  | /  /          
                 / \  \   | |__| |  /  /\  \   | |_| |  |  |/  /          
                |  |  |   |  __  | /  /__\  \  |    /   |      \           
                |  |  |   | |  | | |   __   |  |    \   |  |\   \          
                \     /   | |  | | |  |  |  |  | |\  \  |  | \   \       
                 \___/    |_|  |_| |__|  |__|  |_| \__\ |__|  \__/        
                                                                              
                      - O R C A' S   B I G   F R I E N D -                    
                                      &                                       
                       - I N T E G R A L  F E E D E R -                       
                                                                              
 v1 FN, 2020, v2 2021, v3 2022-2024                                           
------------------------------------------------------------------------------


----------------------
SHARK INTEGRAL PACKAGE
----------------------

Number of atoms                             ...     20
Number of basis functions                   ...    222
Number of shells                            ...    110
Maximum angular momentum                    ...      2
Integral batch strategy                     ... SHARK/LIBINT Hybrid
RI-J (if used) integral strategy            ... SPLIT-RIJ (Revised 2003 algorithm where possible)
Printlevel                                  ...      1
Contraction scheme used                     ... SEGMENTED contraction
Prescreening option                         ... SCHWARTZ
   Thresh                                   ... 3.000e-11
   Tcut                                     ... 1.000e-12
   Tpresel                                  ... 1.000e-12 
Coulomb Range Separation                    ... NOT USED
Exchange Range Separation                   ... NOT USED
Multipole approximations                    ... NOT USED
Finite Nucleus Model                        ... NOT USED
CABS basis                                  ... NOT available
Auxiliary Coulomb fitting basis             ... AVAILABLE
   # of basis functions in Aux-J            ...    524
   # of shells in Aux-J                     ...    180
   Maximum angular momentum in Aux-J        ...      4
Auxiliary J/K fitting basis                 ... NOT available
Auxiliary Correlation fitting basis         ... NOT available
Auxiliary 'external' fitting basis          ... NOT available

Checking pre-screening integrals            ... done (  0.0 sec) Dimension = 110
Check shell pair data                       ... done (  0.0 sec)
Shell pair information
Shell pair cut-off parameter TPreSel        ...   1.0e-12
Total number of shell pairs                 ...      6105
Shell pairs after pre-screening             ...      5401
Total number of primitive shell pairs       ...     21533
Primitive shell pairs kept                  ...     13536
          la=0 lb=0:   1821 shell pairs
          la=1 lb=0:   2028 shell pairs
          la=1 lb=1:    592 shell pairs
          la=2 lb=0:    578 shell pairs
          la=2 lb=1:    329 shell pairs
          la=2 lb=2:     53 shell pairs

Calculating one electron integrals          ... done (  0.0 sec)
Calculating RI/J V-Matrix + Cholesky decomp.... done (  0.1 sec)
Calculating Nuclear repulsion               ... done (  0.0 sec) ENN=    393.265655634226 Eh

Diagonalization of the overlap matrix:
Smallest eigenvalue                        ... 1.720e-04
Time for diagonalization                   ...    0.009 sec
Threshold for overlap eigenvalues          ... 1.000e-07
Number of eigenvalues below threshold      ... 0
Time for construction of square roots      ...    0.024 sec
Total time needed                          ...    0.052 sec

-------------------
DFT GRID GENERATION
-------------------

General Integration Accuracy     IntAcc      ... 4.388
Radial Grid Type                 RadialGrid  ... OptM3 with GC (2021)
Angular Grid (max. ang.)         AngularGrid ... 4 (Lebedev-302)
Angular grid pruning method      GridPruning ... 4 (adaptive)
Weight generation scheme         WeightScheme... mBecke (2022)
Basis function cutoff            BFCut       ... 1.0000e-11
Integration weight cutoff        WCut        ... 1.0000e-14
Partially contracted basis set               ... off
Rotationally invariant grid construction     ... off
Angular grids for H and He will be reduced by one unit
Diffuse basis detected: some atoms will have their outermost
                        angular grid increased by 1.

Total number of grid points                  ...    87401
Total number of batches                      ...     1374
Average number of points per batch           ...       63
Average number of grid points per atom       ...     4370
Initializing property integral containers    ... done (  0.1 sec)

SHARK setup successfully completed in   1.5 seconds

Maximum memory used throughout the entire STARTUP-calculation: 39.6 MB
Occupation numbers will be reassigned to an Aufbau configuration
             **** ENERGY FILE WAS UPDATED (xtb_opt.en.tmp) ****
Finished Guess after   0.4 sec
Maximum memory used throughout the entire GUESS-calculation: 15.2 MB
--------------------
CPCM SOLVATION MODEL
--------------------
CPCM parameters:
  Epsilon                                         ...      78.3550
  Refrac                                          ...       1.3328
  Rsolv                                           ...       1.3000
  Surface type                                    ... GAUSSIAN VDW
  Discretization scheme                           ... Constant charge density
    Threshold for H atoms                         ...       5.0000 (charges/Ang^2)
    Threshold for non-H atoms                     ...       5.0000 (charges/Ang^2)
  Epsilon function type                           ...         CPCM
Solvent:                                          ... WATER
SMD-CDS solvent descriptors:
  Soln                                            ...       1.3328
  Soln25                                          ...       1.3323
  Sola                                            ...       0.0000
  Solb                                            ...       0.0000
  Solg                                            ...       0.0000
  Solc                                            ...       0.0000
  Solh                                            ...       0.0000
Radii:
  Scheme                                          ... Element-dependent radii
  Radius for C  used is    3.4960 Bohr (=   1.8500 Ang.)
  Radius for O  used is    2.8724 Bohr (=   1.5200 Ang.)
  Radius for H  used is    2.2677 Bohr (=   1.2000 Ang.)
Calculating surface                               ...        done! (  0.0s)
Cavity surface points                             ...         1503
Cavity Volume                                     ...     880.8314
Cavity Surface-area                               ...     589.4860
Calculating surface distance matrix               ...        done! (  0.0s)
Performing Cholesky decomposition & store         ...        done! (  0.3s)
Overall time for CPCM initialization              ...                 0.3s

----------------------------------------D-I-I-S--------------------------------------------
Iteration    Energy (Eh)           Delta-E    RMSDP     MaxDP     DIISErr   Damp  Time(sec)
-------------------------------------------------------------------------------------------
               ***  Starting incremental Fock matrix formation  ***
                              *** Initializing SOSCF ***
---------------------------------------S-O-S-C-F--------------------------------------
Iteration    Energy (Eh)           Delta-E    RMSDP     MaxDP     MaxGrad    Time(sec)
--------------------------------------------------------------------------------------
    1    -386.2574332147273708     0.00e+00  4.35e-07  1.19e-05  4.01e-06     3.3
               *** Restarting incremental Fock matrix formation ***
    2    -386.2574332143387892     3.89e-10  8.21e-07  2.26e-05  8.93e-06     3.4
                  *** Gradient check signals convergence ***

               *****************************************************
               *                     SUCCESS                       *
               *           SCF CONVERGED AFTER   2 CYCLES          *
               *****************************************************


SMD CDS free energy correction energy :                 4.81921     Kcal/mol
Total Energy after SMD CDS correction =              -386.249753321 Eh
             **** ENERGY FILE WAS UPDATED (xtb_opt.en.tmp) ****

----------------
TOTAL SCF ENERGY
----------------

Total Energy       :       -386.24975332112206 Eh          -10510.39013 eV

Components:
Nuclear Repulsion  :        393.26565563422582 Eh           10701.30253 eV
Electronic Energy  :       -779.50628529831351 Eh          -21211.44439 eV
One Electron Energy:      -1303.96173043112231 Eh          -35482.60259 eV
Two Electron Energy:        524.45544513280879 Eh           14271.15819 eV
CPCM Dielectric    :         -0.01680355025113 Eh              -0.45725 eV
SMD CDS (Gcds)     :          0.00767989321674 Eh               0.20898 eV

Virial components:
Potential Energy   :       -770.69949200140866 Eh          -20971.79936 eV
Kinetic Energy     :        384.44973868028660 Eh           10461.40924 eV
Virial Ratio       :          2.00468205453075

DFT components:
N(Alpha)           :       32.000021667078 electrons
N(Beta)            :       32.000021667078 electrons
N(Total)           :       64.000043334156 electrons
E(X)               :      -52.037245985443 Eh       
E(C)               :       -2.034933704965 Eh       
E(XC)              :      -54.072179690408 Eh       

CPCM Solvation Model Properties:
Surface-charge          :         -0.04766229475131
Corrected charge        :          0.00000000000000
Outlying charge corr.   :          0.00017124961560 Eh               0.00466 eV
Free-energy (cav+disp)  :          0.00767989321674 Eh               0.20898 eV

---------------
SCF CONVERGENCE
---------------

  Last Energy change         ...   -3.8858e-10  Tolerance :   1.0000e-07
  Last MAX-Density change    ...    2.2589e-05  Tolerance :   1.0000e-07
  Last RMS-Density change    ...    8.2056e-07  Tolerance :   5.0000e-09
  Last DIIS Error            ...    1.6101e-05  Tolerance :   1.0000e-07
  Last Orbital Gradient      ...    8.9335e-06  Tolerance :   1.0000e-04
  Last Orbital Rotation      ...    3.5861e-05  Tolerance :   1.0000e-04


----------------
ORBITAL ENERGIES
----------------

  NO   OCC          E(Eh)            E(eV) 
   0   2.0000     -19.000982      -517.0430 
   1   2.0000     -18.945570      -515.5352 
   2   2.0000     -10.163883      -276.5733 
   3   2.0000     -10.084954      -274.4256 
   4   2.0000     -10.037619      -273.1375 
   5   2.0000     -10.031881      -272.9814 
   6   2.0000     -10.020887      -272.6822 
   7   2.0000     -10.015102      -272.5248 
   8   2.0000      -1.069294       -29.0970 
   9   2.0000      -0.983038       -26.7498 
  10   2.0000      -0.769300       -20.9337 
  11   2.0000      -0.732362       -19.9286 
  12   2.0000      -0.671662       -18.2769 
  13   2.0000      -0.604141       -16.4395 
  14   2.0000      -0.564301       -15.3554 
  15   2.0000      -0.529851       -14.4180 
  16   2.0000      -0.465709       -12.6726 
  17   2.0000      -0.453975       -12.3533 
  18   2.0000      -0.447572       -12.1790 
  19   2.0000      -0.419355       -11.4112 
  20   2.0000      -0.405657       -11.0385 
  21   2.0000      -0.375601       -10.2206 
  22   2.0000      -0.369878       -10.0649 
  23   2.0000      -0.362038        -9.8516 
  24   2.0000      -0.346235        -9.4215 
  25   2.0000      -0.327643        -8.9156 
  26   2.0000      -0.324368        -8.8265 
  27   2.0000      -0.314470        -8.5572 
  28   2.0000      -0.307663        -8.3719 
  29   2.0000      -0.300589        -8.1794 
  30   2.0000      -0.277224        -7.5436 
  31   2.0000      -0.248386        -6.7589 
  32   0.0000      -0.028123        -0.7653 
  33   0.0000       0.072302         1.9674 
  34   0.0000       0.097782         2.6608 
  35   0.0000       0.122131         3.3233 
  36   0.0000       0.125233         3.4078 
  37   0.0000       0.129550         3.5252 
  38   0.0000       0.141827         3.8593 
  39   0.0000       0.149215         4.0603 
  40   0.0000       0.154862         4.2140 
  41   0.0000       0.165943         4.5156 
  42   0.0000       0.170631         4.6431 
*Only the first 10 virtual orbitals were printed.
Total SCF time: 0 days 0 hours 0 min 7 sec 
Finished LeanSCF after   7.7 sec

Maximum memory used throughout the entire LEANSCF-calculation: 30.7 MB


-------------------------------------------------------------------------------
                          DFT DISPERSION CORRECTION                            
                                                                               
                                DFTD4 V3.4.0                                   
-------------------------------------------------------------------------------
-------------------------   ----------------
Dispersion correction           -0.005081686
-------------------------   ----------------

------------------   -----------------
gCP correction             0.011410987
------------------   -----------------

-------------------------   --------------------
FINAL SINGLE POINT ENERGY      -386.243424020283
-------------------------   --------------------

------------------------------------------------------------------------------
                         ORCA SCF GRADIENT CALCULATION
------------------------------------------------------------------------------

Nuc. rep. gradient        (SHARK) ... done (  0.0 sec)
HCore & Overlap gradient  (SHARK) ... done (  0.3 sec)
Split-RIJ-J gradient      (SHARK) ... done (  1.7 sec)
XC gradient                       ... done (  6.1 sec)
CPCM gradient                     ... done (  0.9 sec)
SMD gradient                      ... done (  0.0 sec)
Dispersion correction             ... done (  0.0 sec)

-------------------
DISPERSION GRADIENT
-------------------

   1   C   :   -0.000077443   -0.000034496    0.000045926
   2   C   :   -0.000072090   -0.000029018   -0.000022677
   3   C   :   -0.000056303    0.000029767   -0.000044508
   4   C   :   -0.000000131    0.000053210   -0.000007484
   5   O   :    0.000018614    0.000091165    0.000030192
   6   O   :    0.000051414    0.000010751   -0.000014347
   7   C   :    0.000085838    0.000008009    0.000015207
   8   C   :    0.000087190   -0.000040092   -0.000005321
   9   H   :   -0.000034698   -0.000015216    0.000027565
  10   H   :   -0.000031223   -0.000008667    0.000020162
  11   H   :   -0.000026210   -0.000021978    0.000019317
  12   H   :   -0.000026536   -0.000012274   -0.000010998
  13   H   :   -0.000032153   -0.000022139   -0.000011970
  14   H   :   -0.000016384    0.000020800   -0.000012493
  15   H   :   -0.000016339    0.000011826   -0.000034180
  16   H   :    0.000025801    0.000005982    0.000003041
  17   H   :    0.000034855    0.000001806    0.000012967
  18   H   :    0.000022303   -0.000011494    0.000000250
  19   H   :    0.000033871   -0.000023473   -0.000001503
  20   H   :    0.000029625   -0.000014469   -0.000009146

Difference to translation invariance:
           :   -0.0000000000    0.0000000000    0.0000000000

Difference to rotation invariance:
           :   -0.0000000000    0.0000000000   -0.0000000000

Norm of the Dispersion gradient    ...    0.0002647221
RMS gradient                       ...    0.0000341755
MAX gradient                       ...    0.0000911655
gCP correction                   ... done

------------------
CARTESIAN GRADIENT
------------------

   1   C   :   -0.000018488   -0.000007612    0.000113144
   2   C   :   -0.000027036   -0.000038995   -0.000310630
   3   C   :   -0.000188538    0.000039053   -0.000021459
   4   C   :    0.000464672   -0.000612946   -0.000149771
   5   O   :   -0.000060106    0.000196228    0.000239159
   6   O   :    0.000173345    0.000158475    0.000306295
   7   C   :   -0.000617907    0.000221241   -0.000160378
   8   C   :    0.000130072   -0.000012272   -0.000126356
   9   H   :    0.000019559    0.000046288    0.000055856
  10   H   :   -0.000141409    0.000060286    0.000014440
  11   H   :   -0.000057950   -0.000053738   -0.000007799
  12   H   :    0.000143234    0.000071807    0.000114216
  13   H   :   -0.000141224    0.000042139   -0.000013127
  14   H   :    0.000122701    0.000023649    0.000021065
  15   H   :    0.000002917   -0.000027281   -0.000062370
  16   H   :   -0.000010533   -0.000062359   -0.000050650
  17   H   :    0.000103645   -0.000032462   -0.000057141
  18   H   :   -0.000016579    0.000100579    0.000083975
  19   H   :    0.000005718   -0.000114614    0.000033685
  20   H   :    0.000113905    0.000002535   -0.000022155

Difference to translation invariance:
           :    0.0000000000   -0.0000000000    0.0000000000

Difference to rotation invariance:
           :    0.0001086828   -0.0005307765   -0.0001254902

Norm of the Cartesian gradient     ...    0.0012981845
RMS gradient                       ...    0.0001675949
MAX gradient                       ...    0.0006179068

-------
TIMINGS
-------

Total SCF gradient time     ....        9.848 sec

Densities                   ....       0.001 sec  (  0.0%)
One electron gradient       ....       0.307 sec  (  3.1%)
RI-J Coulomb gradient       ....       1.671 sec  ( 17.0%)
XC gradient                 ....       6.124 sec  ( 62.2%)
CPCM gradient               ....       0.916 sec  (  9.3%)
   A-Matrix (El+Nuc)        ....       0.076 sec  (  0.8%)
   Potential                ....       0.840 sec  (  8.5%)
SMD gradient                ....       0.012 sec  (  0.1%)

Maximum memory used throughout the entire SCFGRAD-calculation: 35.4 MB

------------------------------------------------------------------------------
                              ORCA PROPERTY CALCULATIONS
------------------------------------------------------------------------------

GBWName                                 ... xtb_opt.gbw
Number of atoms                         ...     20
Number of basis functions               ...    222
Max core memory                         ...   1024 MB

Electric properties:
Dipole moment                           ... YES
Quadrupole moment                       ...  NO
Static polarizability (Dipole/Dipole)   ...  NO
Static polarizability (Dipole/Quad.)    ...  NO
Static polarizability (Quad./Quad.)     ...  NO
Static polarizability (Velocity)        ...  NO

Atomic electric properties:
Dipole moment                           ...  NO
Quadrupole moment                       ...  NO
Static polarizability                   ...  NO

Choice of electric origin               ... Center of mass
Position of electric origin             ...    -0.010163    -0.003612    -0.006296

General magnetic properties:
Magnetizability                         ...  NO

EPR properties:
g-Tensor (aka g-matrix)                 ...  NO
Zero-Field splitting spin-orbit         ...  NO
Zero-field splitting spin-spin          ...  NO
Hyperfine couplings                     ...  NO (   0 nuclei)
Quadrupole couplings                    ...  NO (   0 nuclei)
Contact density                         ...  NO (   0 nuclei)

NMR properties:
Chemical shifts                         ...  NO (   0 nuclei)
Spin-rotation constants                 ...  NO (   0 nuclei)
Spin-spin couplings                     ...  NO (   0 nuclei,    0 pairs)

Choice of magnetic origin               ... GIAO
Position of magnetic origin             ...     0.000000     0.000000     0.000000

Properties with geometric perturbations:
SCF Hessian                             ...  NO
IR spectrum                             ...  NO
VCD spectrum                            ...  NO
X-ray spectroscopy properties:
SCF XES/XAS/RIXS spectra                ...  NO


-------------
DIPOLE MOMENT
-------------

Method             : SCF
Type of density    : Electron Density
Multiplicity       :   1
Irrep              :   0
Energy             :  -386.2497533211220571 Eh
Relativity type    : 
Basis              : AO
                                X                 Y                 Z
Electronic contribution:      1.412978364       4.977352400      -0.815978762
Nuclear contribution   :     -1.220168065      -6.020251106       0.191987327
                        -----------------------------------------
Total Dipole Moment    :      0.192810298      -1.042898706      -0.623991436
                        -----------------------------------------
Magnitude (a.u.)       :      1.230519741
Magnitude (Debye)      :      3.127732616



--------------------
Rotational spectrum 
--------------------
 
Rotational constants in cm-1:             0.109659             0.037548             0.033672 
Rotational constants in MHz :          3287.505130          1125.667303          1009.447371 

Dipole components along the rotational axes: 
x,y,z [a.u.] :     0.271124    -1.108398     0.460570 
x,y,z [Debye]:     0.689143    -2.817324     1.170675 

 

Dipole moment calculation done in   0.0 sec 

Maximum memory used throughout the entire PROP-calculation: 14.0 MB

--------------------------------
SUGGESTED CITATIONS FOR THIS RUN
--------------------------------

Below you find a list of papers that are relevant to this ORCA run
We neither can nor want to force you to cite these papers, but we appreciate if you do
You receive ORCA, which is the product of decades of hard work by many enthusiastic individuals, for free
The only thing we kindly ask in return is that you cite our papers,
We deeply appreciate it, if you show your appreciation for ORCA by not just citing the generic ORCA reference.

Please note that relegating all ORCA citations to the supporting information does *not* help us.
SI sections are not indexed - citations you put there will not count into any citation statistics
But we need these citations in order to attract the funding resources that allow us to do what we are doing

Therefore, if you are a happy ORCA user, please consider citing a few of the papers listed below in the main body of your paper

In addition to the list printed below, the program has created the file xtb_opt.bibtex that contains the list in bibtex format
You can import this file easily into all common literature databanks and citation aid programs


List of essential papers. We consider these as the minimum necessary citations

  1. Neese,F.
     Software update: the ORCA program system, version 5.0
     WIRES Comput. Molec. Sci., 2022 12(1)e1606
     doi.org/10.1002/wcms.1606
  2. Grimme,S.; Hansen,A.; Ehlert,S.; Mewes,J.
     r2SCAN-3c: A 'Swiss army knife' composite electronic-structure method
     J. Chem. Phys., 2021 154 064103
     doi.org/10.1063/5.0040021

List of papers to cite with high priority. The work reported in these papers was absolutely
necessary for this run to complete.
Our perspective: the developers of density functionals and basis sets usually get cited in chemistry papers
Good! But without the algorithms to do something with them, the functionals or basis sets would not do anything.
Hence, in our opinion, the algorithm design and method developments papers are equally worthy of getting cited

  1. Neese,F.
     An improvement of the resolution of the identity approximation for the formation of the Coulomb matrix
     J. Comp. Chem., 2003 24(14)1740-1747
     doi.org/10.1002/jcc.10318
  2. Garcia-Rates,M.; Neese,F.
     Effect of the Solute Cavity on the Solvation Energy and its Derivatives within the Framework of the Gaussian Charge Scheme
     J. Comput. Chem., 2020 41 922-939
     doi.org/10.1002/jcc.26139
  3. Neese,F.
     The SHARK Integral Generation and Digestion System
     J. Comp. Chem., 2022  1-16
     doi.org/10.1002/jcc.26942
  4. Lehtola,S.; Steigemann,C.; Oliveira,M.; Marques,M.
     Recent developments in Libxc - A comprehensive library of functionals for density functional theory
     Software X, 2018 7 
     doi.org/10.1016/j.softx.2017.11.002
  5. Caldeweyher,E.; Bannwarth,C.; Grimme,S.
     Extension of the D3 dispersion coefficient model
     J. Chem. Phys., 2017 147 034112-XXXX
     doi.org/10.1063/1.4993215
  6. Caldeweyher,E.; Ehlert,S.; Hansen,A.; Neugebauer,H.; Spicher,S.; Bannwarth,C.; Grimme,S.
     A generally applicable atomic-charge dependent London dispersion correction
     J. Chem. Phys., 2019 150 154122-XXXX
     doi.org/10.1063/1.5090222
  7. Caldeweyher,E.; Mewes,J.; Ehlert,S.; Grimme,S.
     Extension and evaluation of the D4 London-dispersion model for periodic systems
     Phys. Chem. Chem. Phys., 2020 22(16)8499-8512
     doi.org/10.1039/D0CP00502A

List of suggested additional citations. These are papers that are important in the 'surrounding' of 
of this run, or papers that preceded the highly important papers. If you like your results we are grateful for a citation.

  1. Neese,F.
     The ORCA program system
     WIRES Comput. Molec. Sci., 2012 2(1)73-78
     doi.org/10.1002/wcms.81
  2. Neese,F.
     Software update: the ORCA program system, version 4.0
     WIRES Comput. Molec. Sci., 2018 8(1)1-6
     doi.org/10.1002/wcms.1327
  3. Neese,F.; Wennmohs,F.; Becker,U.; Riplinger,C.
     The ORCA quantum chemistry program package
     J. Chem. Phys., 2020 152 Art. No. L224108
     doi.org/10.1063/5.0004608

List of optional additional citations

  1. Neese,F.
     Approximate second-order SCF convergence for spin unrestricted wavefunctions
     Chem. Phys. Lett., 2000 325(1-3)93-98
     doi.org/10.1016/s0009-2614(00)00662-x

Timings for individual modules:

Sum of individual times          ...       19.722 sec (=   0.329 min)
Startup calculation              ...        1.507 sec (=   0.025 min)   7.6 %
SCF iterations                   ...        8.139 sec (=   0.136 min)  41.3 %
Property calculations            ...        0.113 sec (=   0.002 min)   0.6 %
SCF Gradient evaluation          ...        9.963 sec (=   0.166 min)  50.5 %
                             ****ORCA TERMINATED NORMALLY****
TOTAL RUN TIME: 0 days 0 hours 0 minutes 20 seconds 659 msec
  ------------------------------------------------------------------------
          * successful ORCA run, taking over control again...

         :::::::::::::::::::::::::::::::::::::::::::::::::::::
         ::                  ORCA SUMMARY                   ::
         :::::::::::::::::::::::::::::::::::::::::::::::::::::
         :: total energy            -386.243424020283 Eh    ::
         :: gradient norm              0.001298184476 Eh/a0 ::
         :: HOMO-LUMO gap              0.000000000000 eV    ::
         :::::::::::::::::::::::::::::::::::::::::::::::::::::

      ----------------------------------------------------------- 
     |                       L-ANC optimizer                     |
      ----------------------------------------------------------- 
          low memory version by Sebastian Ehlert

          ...................................................
          :                      SETUP                      :
          :.................................................:
          :   energy convergence        0.5000000E-05 Eh    :
          :   grad. convergence         0.1000000E-02 Eh/a0 :
          :   optimization log               true           :
          :   writing optlog all                1     steps :
          :   Hessian reset                     8     steps :
          :   maximium step len.        1.0000000     a0    :
          :   LBFGS images                      8           :
          ...................................................
 * calculating model hessian...
Using Lindh-Hessian (1995)
 Shifting diagonal of input Hessian by   1.000000000000000E-002
 Lowest  eigenvalues of input Hessian
    0.000000    0.000000    0.000000    0.000000    0.000000    0.000000
    0.011101    0.012308    0.013694    0.016996    0.018511    0.020120
    0.023270    0.030402    0.033925    0.038783    0.050221    0.052770
 Highest eigenvalues
    1.201320    1.240718    1.251466    1.294046    1.735668    2.267796
 

........................................................................
.............................. CYCLE    1 ..............................
........................................................................
                         * ORCA takes the control...
  ------------------------------------------------------------------------

                                 *****************
                                 * O   R   C   A *
                                 *****************

                                            #,                                       
                                            ###                                      
                                            ####                                     
                                            #####                                    
                                            ######                                   
                                           ########,                                 
                                     ,,################,,,,,                         
                               ,,#################################,,                 
                          ,,##########################################,,             
                       ,#########################################, ''#####,          
                    ,#############################################,,   '####,        
                  ,##################################################,,,,####,       
                ,###########''''           ''''###############################       
              ,#####''   ,,,,##########,,,,          '''####'''          '####       
            ,##' ,,,,###########################,,,                        '##       
           ' ,,###''''                  '''############,,,                           
         ,,##''                                '''############,,,,        ,,,,,,###''
      ,#''                                            '''#######################'''  
     '                                                          ''''####''''         
             ,#######,   #######,   ,#######,      ##                                
            ,#'     '#,  ##    ##  ,#'     '#,    #''#        ,####,   ,####,        
            ##       ##  ##   ,#'  ##            #'  '#       #'       #'  '#        
            ##       ##  #######   ##           ,######,      #####,   #    #        
            '#,     ,#'  ##    ##  '#,     ,#' ,#      #,     #,   #   #,  ,#        
             '#######'   ##     ##  '#######'  #'      '#     '####' # '####'        



                #########################################################
                #                        -***-                          #
                #          Department of theory and spectroscopy        #
                #                                                       #
                #                      Frank Neese                      #
                #                                                       #
                #     Directorship, Architecture, Infrastructure        #
                #                    SHARK, DRIVERS                     #
                #        Core code/Algorithms in most modules           #
                #                                                       #
                #        Max Planck Institute fuer Kohlenforschung      #
                #                Kaiser Wilhelm Platz 1                 #
                #                 D-45470 Muelheim/Ruhr                 #
                #                      Germany                          #
                #                                                       #
                #                  All rights reserved                  #
                #                        -***-                          #
                #########################################################


                         Program Version 6.0.0  -   RELEASE  -


 With contributions from (in alphabetic order):
   Daniel Aravena         : Magnetic Suceptibility
   Michael Atanasov       : Ab Initio Ligand Field Theory (pilot matlab implementation)
   Alexander A. Auer      : GIAO ZORA, VPT2 properties, NMR spectrum
   Ute Becker             : All parallelization in ORCA, NUMFREQ, NUMCALC
   Giovanni Bistoni       : ED, misc. LED, open-shell LED, HFLD
   Martin Brehm           : Molecular dynamics
   Dmytro Bykov           : pre 5.0 version of the SCF Hessian
   Marcos Casanova-Páez   : Triplet and SCS-CIS(D). UHF-(DLPNO)-IP/EA/STEOM-CCSD. UHF-CVS-IP/STEOM-CCSD
   Vijay G. Chilkuri      : MRCI spin determinant printing, contributions to CSF-ICE
   Pauline Colinet        : FMM embedding
   Dipayan Datta          : RHF DLPNO-CCSD density
   Achintya Kumar Dutta   : EOM-CC, STEOM-CC
   Nicolas Foglia         : Exact transition moments, OPA infrastructure, MCD improvements
   Dmitry Ganyushin       : Spin-Orbit,Spin-Spin,Magnetic field MRCI
   Miquel Garcia          : C-PCM and meta-GGA Hessian, CCSD/C-PCM, Gaussian charge scheme
   Tiago L. C. Gouveia    : GS-ROHF, GS-ROCIS
   Yang Guo               : DLPNO-NEVPT2, F12-NEVPT2, CIM, IAO-localization
   Andreas Hansen         : Spin unrestricted coupled pair/coupled cluster methods
   Ingolf Harden          : AUTO-CI MPn and infrastructure 
   Benjamin Helmich-Paris : MC-RPA, TRAH-(SCF,CASSCF), AVAS, COSX integrals, SCF dyn. polar.
   Lee Huntington         : MR-EOM, pCC
   Robert Izsak           : Overlap fitted RIJCOSX, COSX-SCS-MP3, EOM
   Riya Kayal             : Wick's Theorem for AUTO-CI, AUTO-CI UHF-CCSDT
   Emily Kempfer          : AUTO-CI, RHF CISDT and CCSDT
   Christian Kollmar      : KDIIS, OOCD, Brueckner-CCSD(T), CCSD density, CASPT2, CASPT2-K, improved NEVPT2
   Axel Koslowski         : Symmetry handling
   Simone Kossmann        : Meta GGA functionals, TD-DFT gradient, OOMP2, (MP2 Hessian; deprecated post 5.0)
   Lucas Lang             : DCDCAS
   Marvin Lechner         : AUTO-CI (C++ implementation), FIC-MRCC
   Spencer Leger          : CASSCF response
   Dagmar Lenk            : GEPOL surface, SMD, ORCA-2-JSON
   Dimitrios Liakos       : Extrapolation schemes; Compound Job, initial MDCI parallelization
   Dimitrios Manganas     : Further ROCIS development; embedding schemes. LFT, Crystal Embedding
   Dimitrios Pantazis     : SARC Basis sets
   Anastasios Papadopoulos: AUTO-CI, single reference methods and gradients
   Taras Petrenko         : pre 6.0 DFT Hessian and TD-DFT gradient, (ASA, deprecated), ECA, 1-Electron XAS/XES, NRVS
   Peter Pinski           : DLPNO-MP2, DLPNO-MP2 Gradient
   Christoph Reimann      : Effective Core Potentials
   Marius Retegan         : Local ZFS, SOC
   Christoph Riplinger    : Optimizer, TS searches, QM/MM, DLPNO-CCSD(T), (RO)-DLPNO pert. Triples
   Michael Roemelt        : Original ROCIS implementation
   Masaaki Saitow         : Open-shell DLPNO-CCSD energy and density
   Barbara Sandhoefer     : DKH picture change effects
   Kantharuban Sivalingam : CASSCF convergence/infrastructure, NEVPT2 and variants, FIC-MRCI
   Bernardo de Souza      : ESD, SOC TD-DFT
   Georgi Stoychev        : AutoAux, RI-MP2 NMR, DLPNO-MP2 response, X2C
   Van Anh Tran           : RI-MP2 g-tensors
   Willem Van den Heuvel  : Paramagnetic NMR
   Zikuan Wang            : NOTCH, Electric field optimization 
   Frank Wennmohs         : Technical directorship and infrastructure
   Hang Xu                : AUTO-CI-Response properties 


 We gratefully acknowledge several colleagues who have allowed us to
 interface, adapt or use parts of their codes:
   Stefan Grimme, W. Hujo, H. Kruse, P. Pracht,  : VdW corrections, initial TS optimization,
                  C. Bannwarth, S. Ehlert,         DFT functionals, gCP, sTDA/sTD-DF
                  L. Wittmann, M. Mueller
   Ed Valeev, F. Pavosevic, A. Kumar             : LibInt (2-el integral package), F12 methods
   Garnet Chan, S. Sharma, J. Yang, R. Olivares  : DMRG
   Ulf Ekstrom                                   : XCFun DFT Library
   Mihaly Kallay                                 : mrcc  (arbitrary order and MRCC methods)
   Frank Weinhold                                : gennbo (NPA and NBO analysis)
   Simon Mueller                                 : openCOSMO-RS
   Christopher J. Cramer and Donald G. Truhlar   : smd solvation model
   Lars Goerigk                                  : TD-DFT with DH, B97 family of functionals
   V. Asgeirsson, H. Jonsson                     : NEB implementation
   FAccTs GmbH                                   : IRC, NEB, NEB-TS, DLPNO-Multilevel, CI-OPT
                                                   MM, QMMM, 2- and 3-layer-ONIOM, Crystal-QMMM,
                                                   LR-CPCM, SF, NACMEs, symmetry and pop. for TD-DFT,
                                                   nearIR, NL-DFT gradient (VV10), updates on ESD,
                                                   ML-optimized integration grids, MBIS, APM,
                                                   GOAT, DOCKER, SOLVATOR, interface openCOSMO-RS
   S Lehtola, MJT Oliveira, MAL Marques          : LibXC Library
   Liviu Ungur et al                             : ANISO software


 Your calculation uses the libint2 library for the computation of 2-el integrals
 For citations please refer to: http://libint.valeyev.net

 Your ORCA version has been built with support for libXC version: 6.2.2
 For citations please refer to: https://libxc.gitlab.io

 This ORCA versions uses:
   CBLAS   interface :  Fast vector & matrix operations
   LAPACKE interface :  Fast linear algebra routines
   SCALAPACK package :  Parallel linear algebra routines
   Shared memory     :  Shared parallel matrices
   BLAS/LAPACK       :  OpenBLAS 0.3.27  USE64BITINT DYNAMIC_ARCH NO_AFFINITY SkylakeX SINGLE_THREADED
        Core in use  :  SkylakeX
   Copyright (c) 2011-2014, The OpenBLAS Project




***************************************
The coordinates will be read from file: xtb_opt.xyz
***************************************


Your calculation utilizes the geometrical counterpoise correction gCP
Please cite in your paper:
H.Kruse, S. Grimme J.Chem.Phys., 136, (2012), 154101 
   

Your calculation utilizes the atom-pairwise dispersion correction
based on EEQ partial charges (D4)


Your calculation utilizes the SMD solvation module
Please cite in your paper:
A.V. Marenich, C.J. Cramer, D.G. Truhlar J. Phys. Chem. B, 113, (2009), 6378 

================================================================================

----- Orbital basis set information -----
Your calculation utilizes the basis: def2-mTZVPP
   Stefan Grimme, Andreas Hansen, Sebastian Ehlert, and Jan-Michael Mewes 
   J. Chem. Phys. 154, 064103 (2021). DOI: 10.1063/5.0040021

----- AuxJ basis set information -----
Your calculation utilizes the auxiliary basis: def2/J
   F. Weigend, Phys. Chem. Chem. Phys. 8, 1057 (2006).

================================================================================
                                        WARNINGS
                       Please study these warnings very carefully!
================================================================================

WARNING: Old DensityContainer found on disk!
         Will remove this file - 
         If you want to keep old densities, please start your calculation with a different basename. 

Using LibXC functional ID 497 : Re-regularized SCAN exchange by Furness et al
[ 1]  J. W. Furness, A. D. Kaplan, J. Ning, J. P. Perdew, and J. Sun.,  J. Phys. Chem. Lett. 11, 8208-8215 (2020)
[ 2]  J. W. Furness, A. D. Kaplan, J. Ning, J. P. Perdew, and J. Sun.,  J. Phys. Chem. Lett. 11, 9248-9248 (2020)
Using LibXC functional ID 498 : Re-regularized SCAN correlation by Furness et al
[ 1]  J. W. Furness, A. D. Kaplan, J. Ning, J. P. Perdew, and J. Sun.,  J. Phys. Chem. Lett. 11, 8208-8215 (2020)
[ 2]  J. W. Furness, A. D. Kaplan, J. Ning, J. P. Perdew, and J. Sun.,  J. Phys. Chem. Lett. 11, 9248-9248 (2020)
Using LibXC functional ID 497 : Re-regularized SCAN exchange by Furness et al
[ 1]  J. W. Furness, A. D. Kaplan, J. Ning, J. P. Perdew, and J. Sun.,  J. Phys. Chem. Lett. 11, 8208-8215 (2020)
[ 2]  J. W. Furness, A. D. Kaplan, J. Ning, J. P. Perdew, and J. Sun.,  J. Phys. Chem. Lett. 11, 9248-9248 (2020)
Using LibXC functional ID 498 : Re-regularized SCAN correlation by Furness et al
[ 1]  J. W. Furness, A. D. Kaplan, J. Ning, J. P. Perdew, and J. Sun.,  J. Phys. Chem. Lett. 11, 8208-8215 (2020)
[ 2]  J. W. Furness, A. D. Kaplan, J. Ning, J. P. Perdew, and J. Sun.,  J. Phys. Chem. Lett. 11, 9248-9248 (2020)

================================================================================
                                       INPUT FILE
================================================================================
NAME = xtb_opt.inp
|  1> ! r2scan-3c def2/J RI DEFGRID2 scfconv7 ENGRAD tightSCF miniprint
|  2> %cpcm
|  3>     smd true
|  4>     smdsolvent "water"
|  5> end
|  6> * xyzfile 0 1 xtb_opt.xyz
|  7> 
|  8>                          ****END OF INPUT****
================================================================================

                     *******************************
                     * Energy+Gradient Calculation *
                     *******************************

---------------------------------
CARTESIAN COORDINATES (ANGSTROEM)
---------------------------------
  C     -2.434955   -0.797322    1.041342
  C     -2.117838   -0.758737   -0.449819
  C     -1.418697    0.545163   -0.870604
  C     -0.135312    0.763975   -0.120565
  O      0.061074    1.656020    0.691122
  O      0.792029   -0.158847   -0.431964
  C      2.077167   -0.050718    0.259297
  C      2.956762   -1.161552   -0.254511
  H     -1.520822   -0.757485    1.645331
  H     -3.064635    0.051138    1.330915
  H     -2.965645   -1.717407    1.304127
  H     -3.042183   -0.841203   -1.031385
  H     -1.489916   -1.612942   -0.724596
  H     -2.064985    1.403522   -0.671445
  H     -1.193070    0.516164   -1.942048
  H      2.498399    0.936376    0.046731
  H      1.896888   -0.135143    1.335219
  H      3.926314   -1.108201    0.249588
  H      2.516514   -2.141213   -0.047972
  H      3.124379   -1.066003   -1.331083

----------------------------
CARTESIAN COORDINATES (A.U.)
----------------------------
  NO LB      ZA    FRAG     MASS         X           Y           Z
   0 C     6.0000    0    12.011   -4.601398   -1.506720    1.967851
   1 C     6.0000    0    12.011   -4.002134   -1.433805   -0.850035
   2 C     6.0000    0    12.011   -2.680949    1.030208   -1.645203
   3 C     6.0000    0    12.011   -0.255703    1.443704   -0.227834
   4 O     8.0000    0    15.999    0.115412    3.129424    1.306032
   5 O     8.0000    0    15.999    1.496719   -0.300177   -0.816293
   6 C     6.0000    0    12.011    3.925276   -0.095843    0.490000
   7 C     6.0000    0    12.011    5.587470   -2.195014   -0.480957
   8 H     1.0000    0     1.008   -2.873937   -1.431439    3.109224
   9 H     1.0000    0     1.008   -5.791322    0.096637    2.515065
  10 H     1.0000    0     1.008   -5.604256   -3.245428    2.464444
  11 H     1.0000    0     1.008   -5.748893   -1.589644   -1.949036
  12 H     1.0000    0     1.008   -2.815532   -3.048019   -1.369288
  13 H     1.0000    0     1.008   -3.902257    2.652272   -1.268847
  14 H     1.0000    0     1.008   -2.254575    0.975409   -3.669938
  15 H     1.0000    0     1.008    4.721290    1.769494    0.088308
  16 H     1.0000    0     1.008    3.584598   -0.255383    2.523199
  17 H     1.0000    0     1.008    7.419658   -2.094197    0.471653
  18 H     1.0000    0     1.008    4.755523   -4.046307   -0.090654
  19 H     1.0000    0     1.008    5.904221   -2.014454   -2.515383

------------------------------------------------------------------------------
                   ___                                                        
                  /   \      - P O W E R E D   B Y -                         
                 /     \                                                     
                 |  |  |   _    _      __       _____    __    __             
                 |  |  |  | |  | |    /  \     |  _  \  |  |  /  |          
                  \  \/   | |  | |   /    \    | | | |  |  | /  /          
                 / \  \   | |__| |  /  /\  \   | |_| |  |  |/  /          
                |  |  |   |  __  | /  /__\  \  |    /   |      \           
                |  |  |   | |  | | |   __   |  |    \   |  |\   \          
                \     /   | |  | | |  |  |  |  | |\  \  |  | \   \       
                 \___/    |_|  |_| |__|  |__|  |_| \__\ |__|  \__/        
                                                                              
                      - O R C A' S   B I G   F R I E N D -                    
                                      &                                       
                       - I N T E G R A L  F E E D E R -                       
                                                                              
 v1 FN, 2020, v2 2021, v3 2022-2024                                           
------------------------------------------------------------------------------


----------------------
SHARK INTEGRAL PACKAGE
----------------------

Number of atoms                             ...     20
Number of basis functions                   ...    222
Number of shells                            ...    110
Maximum angular momentum                    ...      2
Integral batch strategy                     ... SHARK/LIBINT Hybrid
RI-J (if used) integral strategy            ... SPLIT-RIJ (Revised 2003 algorithm where possible)
Printlevel                                  ...      1
Contraction scheme used                     ... SEGMENTED contraction
Prescreening option                         ... SCHWARTZ
   Thresh                                   ... 3.000e-11
   Tcut                                     ... 1.000e-12
   Tpresel                                  ... 1.000e-12 
Coulomb Range Separation                    ... NOT USED
Exchange Range Separation                   ... NOT USED
Multipole approximations                    ... NOT USED
Finite Nucleus Model                        ... NOT USED
CABS basis                                  ... NOT available
Auxiliary Coulomb fitting basis             ... AVAILABLE
   # of basis functions in Aux-J            ...    524
   # of shells in Aux-J                     ...    180
   Maximum angular momentum in Aux-J        ...      4
Auxiliary J/K fitting basis                 ... NOT available
Auxiliary Correlation fitting basis         ... NOT available
Auxiliary 'external' fitting basis          ... NOT available

Checking pre-screening integrals            ... done (  0.0 sec) Dimension = 110
Check shell pair data                       ... done (  0.0 sec)
Shell pair information
Shell pair cut-off parameter TPreSel        ...   1.0e-12
Total number of shell pairs                 ...      6105
Shell pairs after pre-screening             ...      5401
Total number of primitive shell pairs       ...     21533
Primitive shell pairs kept                  ...     13535
          la=0 lb=0:   1821 shell pairs
          la=1 lb=0:   2028 shell pairs
          la=1 lb=1:    592 shell pairs
          la=2 lb=0:    578 shell pairs
          la=2 lb=1:    329 shell pairs
          la=2 lb=2:     53 shell pairs

Calculating one electron integrals          ... done (  0.0 sec)
Calculating RI/J V-Matrix + Cholesky decomp.... done (  0.1 sec)
Calculating Nuclear repulsion               ... done (  0.0 sec) ENN=    393.270548867584 Eh

Diagonalization of the overlap matrix:
Smallest eigenvalue                        ... 1.722e-04
Time for diagonalization                   ...    0.008 sec
Threshold for overlap eigenvalues          ... 1.000e-07
Number of eigenvalues below threshold      ... 0
Time for construction of square roots      ...    0.021 sec
Total time needed                          ...    0.039 sec

-------------------
DFT GRID GENERATION
-------------------

General Integration Accuracy     IntAcc      ... 4.388
Radial Grid Type                 RadialGrid  ... OptM3 with GC (2021)
Angular Grid (max. ang.)         AngularGrid ... 4 (Lebedev-302)
Angular grid pruning method      GridPruning ... 4 (adaptive)
Weight generation scheme         WeightScheme... mBecke (2022)
Basis function cutoff            BFCut       ... 1.0000e-11
Integration weight cutoff        WCut        ... 1.0000e-14
Partially contracted basis set               ... off
Rotationally invariant grid construction     ... off
Angular grids for H and He will be reduced by one unit
Diffuse basis detected: some atoms will have their outermost
                        angular grid increased by 1.

Total number of grid points                  ...    87402
Total number of batches                      ...     1374
Average number of points per batch           ...       63
Average number of grid points per atom       ...     4370
Initializing property integral containers    ... done (  0.0 sec)

SHARK setup successfully completed in   1.4 seconds

Maximum memory used throughout the entire STARTUP-calculation: 39.6 MB
Occupation numbers will be reassigned to an Aufbau configuration
             **** ENERGY FILE WAS UPDATED (xtb_opt.en.tmp) ****
Finished Guess after   0.3 sec
Maximum memory used throughout the entire GUESS-calculation: 15.2 MB
--------------------
CPCM SOLVATION MODEL
--------------------
CPCM parameters:
  Epsilon                                         ...      78.3550
  Refrac                                          ...       1.3328
  Rsolv                                           ...       1.3000
  Surface type                                    ... GAUSSIAN VDW
  Discretization scheme                           ... Constant charge density
    Threshold for H atoms                         ...       5.0000 (charges/Ang^2)
    Threshold for non-H atoms                     ...       5.0000 (charges/Ang^2)
  Epsilon function type                           ...         CPCM
Solvent:                                          ... WATER
SMD-CDS solvent descriptors:
  Soln                                            ...       1.3328
  Soln25                                          ...       1.3323
  Sola                                            ...       0.0000
  Solb                                            ...       0.0000
  Solg                                            ...       0.0000
  Solc                                            ...       0.0000
  Solh                                            ...       0.0000
Radii:
  Scheme                                          ... Element-dependent radii
  Radius for C  used is    3.4960 Bohr (=   1.8500 Ang.)
  Radius for O  used is    2.8724 Bohr (=   1.5200 Ang.)
  Radius for H  used is    2.2677 Bohr (=   1.2000 Ang.)
Calculating surface                               ...        done! (  0.0s)
Cavity surface points                             ...         1502
Cavity Volume                                     ...     880.9227
Cavity Surface-area                               ...     589.5359
Calculating surface distance matrix               ...        done! (  0.0s)
Performing Cholesky decomposition & store         ...        done! (  0.1s)
Overall time for CPCM initialization              ...                 0.1s

----------------------------------------D-I-I-S--------------------------------------------
Iteration    Energy (Eh)           Delta-E    RMSDP     MaxDP     DIISErr   Damp  Time(sec)
-------------------------------------------------------------------------------------------
               ***  Starting incremental Fock matrix formation  ***
                              *** Initializing SOSCF ***
---------------------------------------S-O-S-C-F--------------------------------------
Iteration    Energy (Eh)           Delta-E    RMSDP     MaxDP     MaxGrad    Time(sec)
--------------------------------------------------------------------------------------
    1    -386.2574308967402885     0.00e+00  3.32e-05  1.30e-03  6.34e-05     4.3
               *** Restarting incremental Fock matrix formation ***
    2    -386.2574388516594581    -7.95e-06  1.23e-05  2.15e-04  6.31e-05     3.5
    3    -386.2574392965919969    -4.45e-07  6.26e-06  1.63e-04  8.44e-05     2.8
    4    -386.2574392076002141     8.90e-08  4.62e-06  8.74e-05  1.08e-04     2.7
                 **** Energy Check signals convergence ****

               *****************************************************
               *                     SUCCESS                       *
               *           SCF CONVERGED AFTER   4 CYCLES          *
               *****************************************************


SMD CDS free energy correction energy :                 4.82008     Kcal/mol
Total Energy after SMD CDS correction =              -386.249757919 Eh
             **** ENERGY FILE WAS UPDATED (xtb_opt.en.tmp) ****

----------------
TOTAL SCF ENERGY
----------------

Total Energy       :       -386.24975791870992 Eh          -10510.39025 eV

Components:
Nuclear Repulsion  :        393.27054886758424 Eh           10701.43569 eV
Electronic Energy  :       -779.51117831256408 Eh          -21211.57754 eV
One Electron Energy:      -1303.97180697864678 Eh          -35482.87678 eV
Two Electron Energy:        524.46062866608270 Eh           14271.29924 eV
CPCM Dielectric    :         -0.01680976262037 Eh              -0.45742 eV
SMD CDS (Gcds)     :          0.00768128889028 Eh               0.20902 eV

Virial components:
Potential Energy   :       -770.69914463112650 Eh          -20971.78991 eV
Kinetic Energy     :        384.44938671241664 Eh           10461.39966 eV
Virial Ratio       :          2.00468298628771

DFT components:
N(Alpha)           :       32.000021872662 electrons
N(Beta)            :       32.000021872662 electrons
N(Total)           :       64.000043745324 electrons
E(X)               :      -52.037074203110 Eh       
E(C)               :       -2.034914293750 Eh       
E(XC)              :      -54.071988496860 Eh       

CPCM Solvation Model Properties:
Surface-charge          :         -0.04765650028109
Corrected charge        :          0.00000000000000
Outlying charge corr.   :          0.00017121819917 Eh               0.00466 eV
Free-energy (cav+disp)  :          0.00768128889028 Eh               0.20902 eV

---------------
SCF CONVERGENCE
---------------

  Last Energy change         ...   -8.8992e-08  Tolerance :   1.0000e-07
  Last MAX-Density change    ...    8.7364e-05  Tolerance :   1.0000e-07
  Last RMS-Density change    ...    4.6181e-06  Tolerance :   5.0000e-09
  Last DIIS Error            ...    9.7916e-04  Tolerance :   1.0000e-07
  Last Orbital Gradient      ...    1.0838e-04  Tolerance :   1.0000e-04
  Last Orbital Rotation      ...    1.2800e-04  Tolerance :   1.0000e-04


----------------
ORBITAL ENERGIES
----------------

  NO   OCC          E(Eh)            E(eV) 
   0   2.0000     -19.001372      -517.0536 
   1   2.0000     -18.945260      -515.5267 
   2   2.0000     -10.163867      -276.5729 
   3   2.0000     -10.085050      -274.4282 
   4   2.0000     -10.037617      -273.1375 
   5   2.0000     -10.031933      -272.9828 
   6   2.0000     -10.020833      -272.6807 
   7   2.0000     -10.015000      -272.5220 
   8   2.0000      -1.069146       -29.0930 
   9   2.0000      -0.982997       -26.7487 
  10   2.0000      -0.769323       -20.9343 
  11   2.0000      -0.732393       -19.9294 
  12   2.0000      -0.671724       -18.2785 
  13   2.0000      -0.604106       -16.4386 
  14   2.0000      -0.564299       -15.3554 
  15   2.0000      -0.529807       -14.4168 
  16   2.0000      -0.465668       -12.6715 
  17   2.0000      -0.453882       -12.3508 
  18   2.0000      -0.447535       -12.1781 
  19   2.0000      -0.419404       -11.4126 
  20   2.0000      -0.405626       -11.0376 
  21   2.0000      -0.375541       -10.2190 
  22   2.0000      -0.369959       -10.0671 
  23   2.0000      -0.362069        -9.8524 
  24   2.0000      -0.346334        -9.4242 
  25   2.0000      -0.327637        -8.9155 
  26   2.0000      -0.324414        -8.8277 
  27   2.0000      -0.314473        -8.5572 
  28   2.0000      -0.307660        -8.3719 
  29   2.0000      -0.300557        -8.1786 
  30   2.0000      -0.277268        -7.5448 
  31   2.0000      -0.248338        -6.7576 
  32   0.0000      -0.028089        -0.7643 
  33   0.0000       0.072113         1.9623 
  34   0.0000       0.097544         2.6543 
  35   0.0000       0.122142         3.3237 
  36   0.0000       0.125183         3.4064 
  37   0.0000       0.129574         3.5259 
  38   0.0000       0.141817         3.8590 
  39   0.0000       0.149222         4.0605 
  40   0.0000       0.154759         4.2112 
  41   0.0000       0.165985         4.5167 
  42   0.0000       0.170769         4.6469 
*Only the first 10 virtual orbitals were printed.
Total SCF time: 0 days 0 hours 0 min 14 sec 
Finished LeanSCF after  14.2 sec

Maximum memory used throughout the entire LEANSCF-calculation: 30.6 MB


-------------------------------------------------------------------------------
                          DFT DISPERSION CORRECTION                            
                                                                               
                                DFTD4 V3.4.0                                   
-------------------------------------------------------------------------------
-------------------------   ----------------
Dispersion correction           -0.005082702
-------------------------   ----------------

------------------   -----------------
gCP correction             0.011409485
------------------   -----------------

-------------------------   --------------------
FINAL SINGLE POINT ENERGY      -386.243431135892
-------------------------   --------------------

[...]
  Last RMS-Density change    ...    2.1706e-06  Tolerance :   5.0000e-09
  Last DIIS Error            ...    5.9330e-05  Tolerance :   1.0000e-07
  Last Orbital Gradient      ...    1.9575e-05  Tolerance :   1.0000e-04
  Last Orbital Rotation      ...    4.9656e-05  Tolerance :   1.0000e-04


----------------
ORBITAL ENERGIES
----------------

  NO   OCC          E(Eh)            E(eV) 
   0   2.0000     -19.000851      -517.0394 
   1   2.0000     -18.945734      -515.5396 
   2   2.0000     -10.163840      -276.5722 
   3   2.0000     -10.085025      -274.4275 
   4   2.0000     -10.037615      -273.1374 
   5   2.0000     -10.031815      -272.9796 
   6   2.0000     -10.020823      -272.6804 
   7   2.0000     -10.015066      -272.5238 
   8   2.0000      -1.068968       -29.0881 
   9   2.0000      -0.983038       -26.7498 
  10   2.0000      -0.769418       -20.9369 
  11   2.0000      -0.732345       -19.9281 
  12   2.0000      -0.671662       -18.2768 
  13   2.0000      -0.604000       -16.4357 
  14   2.0000      -0.564325       -15.3561 
  15   2.0000      -0.529743       -14.4150 
  16   2.0000      -0.465703       -12.6724 
  17   2.0000      -0.453874       -12.3505 
  18   2.0000      -0.447507       -12.1773 
  19   2.0000      -0.419564       -11.4169 
  20   2.0000      -0.405472       -11.0335 
  21   2.0000      -0.375198       -10.2096 
  22   2.0000      -0.370119       -10.0715 
  23   2.0000      -0.362027        -9.8513 
  24   2.0000      -0.346361        -9.4249 
  25   2.0000      -0.327646        -8.9157 
  26   2.0000      -0.324450        -8.8287 
  27   2.0000      -0.314393        -8.5551 
  28   2.0000      -0.307668        -8.3721 
  29   2.0000      -0.300579        -8.1792 
  30   2.0000      -0.277222        -7.5436 
  31   2.0000      -0.248468        -6.7612 
  32   0.0000      -0.028034        -0.7628 
  33   0.0000       0.072076         1.9613 
  34   0.0000       0.097429         2.6512 
  35   0.0000       0.122342         3.3291 
  36   0.0000       0.124903         3.3988 
  37   0.0000       0.129456         3.5227 
  38   0.0000       0.141788         3.8582 
  39   0.0000       0.149356         4.0642 
  40   0.0000       0.154588         4.2066 
  41   0.0000       0.166063         4.5188 
  42   0.0000       0.171059         4.6547 
*Only the first 10 virtual orbitals were printed.
Total SCF time: 0 days 0 hours 0 min 7 sec 
Finished LeanSCF after   7.9 sec

Maximum memory used throughout the entire LEANSCF-calculation: 30.7 MB


-------------------------------------------------------------------------------
                          DFT DISPERSION CORRECTION                            
                                                                               
                                DFTD4 V3.4.0                                   
-------------------------------------------------------------------------------
-------------------------   ----------------
Dispersion correction           -0.005090617
-------------------------   ----------------

------------------   -----------------
gCP correction             0.011408577
------------------   -----------------

-------------------------   --------------------
FINAL SINGLE POINT ENERGY      -386.243444800535
-------------------------   --------------------

------------------------------------------------------------------------------
                         ORCA SCF GRADIENT CALCULATION
------------------------------------------------------------------------------

Nuc. rep. gradient        (SHARK) ... done (  0.0 sec)
HCore & Overlap gradient  (SHARK) ... done (  0.3 sec)
Split-RIJ-J gradient      (SHARK) ... done (  1.9 sec)
XC gradient                       ... done (  6.5 sec)
CPCM gradient                     ... done (  1.0 sec)
SMD gradient                      ... done (  0.0 sec)
Dispersion correction             ... done (  0.0 sec)

-------------------
DISPERSION GRADIENT
-------------------

   1   C   :   -0.000077728   -0.000034918    0.000046202
   2   C   :   -0.000072446   -0.000029194   -0.000022762
   3   C   :   -0.000056617    0.000029941   -0.000044580
   4   C   :   -0.000000525    0.000053880   -0.000007805
   5   O   :    0.000018441    0.000092003    0.000029622
   6   O   :    0.000051364    0.000011048   -0.000014346
   7   C   :    0.000086361    0.000008052    0.000015351
   8   C   :    0.000087804   -0.000040540   -0.000005231
   9   H   :   -0.000034874   -0.000015448    0.000027719
  10   H   :   -0.000031280   -0.000008822    0.000020298
  11   H   :   -0.000026275   -0.000022168    0.000019430
  12   H   :   -0.000026643   -0.000012448   -0.000010988
  13   H   :   -0.000032412   -0.000022104   -0.000012092
  14   H   :   -0.000016554    0.000020805   -0.000012522
  15   H   :   -0.000016429    0.000011985   -0.000034199
  16   H   :    0.000025933    0.000005997    0.000003089
  17   H   :    0.000035286    0.000001895    0.000013108
  18   H   :    0.000022345   -0.000011608    0.000000290
  19   H   :    0.000034359   -0.000023741   -0.000001457
  20   H   :    0.000029888   -0.000014613   -0.000009128

Difference to translation invariance:
           :    0.0000000000    0.0000000000   -0.0000000000

Difference to rotation invariance:
           :    0.0000000000   -0.0000000000   -0.0000000000

Norm of the Dispersion gradient    ...    0.0002663319
RMS gradient                       ...    0.0000343833
MAX gradient                       ...    0.0000920028
gCP correction                   ... done

------------------
CARTESIAN GRADIENT
------------------

   1   C   :   -0.000025799   -0.000050118   -0.000031585
   2   C   :   -0.000057230    0.000011280   -0.000032926
   3   C   :   -0.000015149   -0.000083118    0.000028823
   4   C   :    0.000109952    0.000115486   -0.000351395
   5   O   :   -0.000032034    0.000033517    0.000229010
   6   O   :   -0.000077314   -0.000048227   -0.000003106
   7   C   :   -0.000041670   -0.000024442    0.000040441
   8   C   :    0.000085022    0.000045846    0.000046542
   9   H   :   -0.000001849   -0.000000096    0.000037574
  10   H   :   -0.000031032    0.000051155   -0.000021683
  11   H   :   -0.000061256   -0.000002378    0.000019061
  12   H   :    0.000054117   -0.000025480    0.000019865
  13   H   :   -0.000005379    0.000045469    0.000038587
  14   H   :   -0.000019021   -0.000010889   -0.000011332
  15   H   :    0.000067403   -0.000012260    0.000040652
  16   H   :    0.000012256   -0.000043525    0.000033945
  17   H   :    0.000030349   -0.000022287   -0.000037610
  18   H   :    0.000036658   -0.000028566   -0.000048875
  19   H   :   -0.000003485    0.000019059   -0.000002984
  20   H   :   -0.000024539    0.000029574    0.000006996

Difference to translation invariance:
           :    0.0000000000   -0.0000000000    0.0000000000

Difference to rotation invariance:
           :    0.0000730149   -0.0005041534   -0.0001041484

Norm of the Cartesian gradient     ...    0.0005296197
RMS gradient                       ...    0.0000683736
MAX gradient                       ...    0.0003513954

-------
TIMINGS
-------

Total SCF gradient time     ....       10.724 sec

Densities                   ....       0.001 sec  (  0.0%)
One electron gradient       ....       0.310 sec  (  2.9%)
RI-J Coulomb gradient       ....       1.919 sec  ( 17.9%)
XC gradient                 ....       6.539 sec  ( 61.0%)
CPCM gradient               ....       1.012 sec  (  9.4%)
   A-Matrix (El+Nuc)        ....       0.079 sec  (  0.7%)
   Potential                ....       0.933 sec  (  8.7%)
SMD gradient                ....       0.017 sec  (  0.2%)

Maximum memory used throughout the entire SCFGRAD-calculation: 35.4 MB

------------------------------------------------------------------------------
                              ORCA PROPERTY CALCULATIONS
------------------------------------------------------------------------------

GBWName                                 ... xtb_opt.gbw
Number of atoms                         ...     20
Number of basis functions               ...    222
Max core memory                         ...   1024 MB

Electric properties:
Dipole moment                           ... YES
Quadrupole moment                       ...  NO
Static polarizability (Dipole/Dipole)   ...  NO
Static polarizability (Dipole/Quad.)    ...  NO
Static polarizability (Quad./Quad.)     ...  NO
Static polarizability (Velocity)        ...  NO

Atomic electric properties:
Dipole moment                           ...  NO
Quadrupole moment                       ...  NO
Static polarizability                   ...  NO

Choice of electric origin               ... Center of mass
Position of electric origin             ...    -0.011390     0.005620    -0.010428

General magnetic properties:
Magnetizability                         ...  NO

EPR properties:
g-Tensor (aka g-matrix)                 ...  NO
Zero-Field splitting spin-orbit         ...  NO
Zero-field splitting spin-spin          ...  NO
Hyperfine couplings                     ...  NO (   0 nuclei)
Quadrupole couplings                    ...  NO (   0 nuclei)
Contact density                         ...  NO (   0 nuclei)

NMR properties:
Chemical shifts                         ...  NO (   0 nuclei)
Spin-rotation constants                 ...  NO (   0 nuclei)
Spin-spin couplings                     ...  NO (   0 nuclei,    0 pairs)

Choice of magnetic origin               ... GIAO
Position of magnetic origin             ...     0.000000     0.000000     0.000000

Properties with geometric perturbations:
SCF Hessian                             ...  NO
IR spectrum                             ...  NO
VCD spectrum                            ...  NO
X-ray spectroscopy properties:
SCF XES/XAS/RIXS spectra                ...  NO


-------------
DIPOLE MOMENT
-------------

Method             : SCF
Type of density    : Electron Density
Multiplicity       :   1
Irrep              :   0
Energy             :  -386.2497627615332476 Eh
Relativity type    : 
Basis              : AO
                                X                 Y                 Z
Electronic contribution:      1.398953290       5.055141557      -0.844837560
Nuclear contribution   :     -1.208430535      -6.112895652       0.232925873
                        -----------------------------------------
Total Dipole Moment    :      0.190522756      -1.057754095      -0.611911687
                        -----------------------------------------
Magnitude (a.u.)       :      1.236761318
Magnitude (Debye)      :      3.143597444



--------------------
Rotational spectrum 
--------------------
 
Rotational constants in cm-1:             0.108531             0.037865             0.033828 
Rotational constants in MHz :          3253.674345          1135.174526          1014.126602 

Dipole components along the rotational axes: 
x,y,z [a.u.] :     0.269137    -1.115297     0.461797 
x,y,z [Debye]:     0.684091    -2.834860     1.173795 

 

Dipole moment calculation done in   0.0 sec 

Maximum memory used throughout the entire PROP-calculation: 14.0 MB

--------------------------------
SUGGESTED CITATIONS FOR THIS RUN
--------------------------------

Below you find a list of papers that are relevant to this ORCA run
We neither can nor want to force you to cite these papers, but we appreciate if you do
You receive ORCA, which is the product of decades of hard work by many enthusiastic individuals, for free
The only thing we kindly ask in return is that you cite our papers,
We deeply appreciate it, if you show your appreciation for ORCA by not just citing the generic ORCA reference.

Please note that relegating all ORCA citations to the supporting information does *not* help us.
SI sections are not indexed - citations you put there will not count into any citation statistics
But we need these citations in order to attract the funding resources that allow us to do what we are doing

Therefore, if you are a happy ORCA user, please consider citing a few of the papers listed below in the main body of your paper

In addition to the list printed below, the program has created the file xtb_opt.bibtex that contains the list in bibtex format
You can import this file easily into all common literature databanks and citation aid programs


List of essential papers. We consider these as the minimum necessary citations

  1. Neese,F.
     Software update: the ORCA program system, version 5.0
     WIRES Comput. Molec. Sci., 2022 12(1)e1606
     doi.org/10.1002/wcms.1606
  2. Grimme,S.; Hansen,A.; Ehlert,S.; Mewes,J.
     r2SCAN-3c: A 'Swiss army knife' composite electronic-structure method
     J. Chem. Phys., 2021 154 064103
     doi.org/10.1063/5.0040021

List of papers to cite with high priority. The work reported in these papers was absolutely
necessary for this run to complete.
Our perspective: the developers of density functionals and basis sets usually get cited in chemistry papers
Good! But without the algorithms to do something with them, the functionals or basis sets would not do anything.
Hence, in our opinion, the algorithm design and method developments papers are equally worthy of getting cited

  1. Neese,F.
     An improvement of the resolution of the identity approximation for the formation of the Coulomb matrix
     J. Comp. Chem., 2003 24(14)1740-1747
     doi.org/10.1002/jcc.10318
  2. Garcia-Rates,M.; Neese,F.
     Effect of the Solute Cavity on the Solvation Energy and its Derivatives within the Framework of the Gaussian Charge Scheme
     J. Comput. Chem., 2020 41 922-939
     doi.org/10.1002/jcc.26139
  3. Neese,F.
     The SHARK Integral Generation and Digestion System
     J. Comp. Chem., 2022  1-16
     doi.org/10.1002/jcc.26942
  4. Lehtola,S.; Steigemann,C.; Oliveira,M.; Marques,M.
     Recent developments in Libxc - A comprehensive library of functionals for density functional theory
     Software X, 2018 7 
     doi.org/10.1016/j.softx.2017.11.002
  5. Caldeweyher,E.; Bannwarth,C.; Grimme,S.
     Extension of the D3 dispersion coefficient model
     J. Chem. Phys., 2017 147 034112-XXXX
     doi.org/10.1063/1.4993215
  6. Caldeweyher,E.; Ehlert,S.; Hansen,A.; Neugebauer,H.; Spicher,S.; Bannwarth,C.; Grimme,S.
     A generally applicable atomic-charge dependent London dispersion correction
     J. Chem. Phys., 2019 150 154122-XXXX
     doi.org/10.1063/1.5090222
  7. Caldeweyher,E.; Mewes,J.; Ehlert,S.; Grimme,S.
     Extension and evaluation of the D4 London-dispersion model for periodic systems
     Phys. Chem. Chem. Phys., 2020 22(16)8499-8512
     doi.org/10.1039/D0CP00502A

List of suggested additional citations. These are papers that are important in the 'surrounding' of 
of this run, or papers that preceded the highly important papers. If you like your results we are grateful for a citation.

  1. Neese,F.
     The ORCA program system
     WIRES Comput. Molec. Sci., 2012 2(1)73-78
     doi.org/10.1002/wcms.81
  2. Neese,F.
     Software update: the ORCA program system, version 4.0
     WIRES Comput. Molec. Sci., 2018 8(1)1-6
     doi.org/10.1002/wcms.1327
  3. Neese,F.; Wennmohs,F.; Becker,U.; Riplinger,C.
     The ORCA quantum chemistry program package
     J. Chem. Phys., 2020 152 Art. No. L224108
     doi.org/10.1063/5.0004608

List of optional additional citations

  1. Neese,F.
     Approximate second-order SCF convergence for spin unrestricted wavefunctions
     Chem. Phys. Lett., 2000 325(1-3)93-98
     doi.org/10.1016/s0009-2614(00)00662-x

Timings for individual modules:

Sum of individual times          ...       20.735 sec (=   0.346 min)
Startup calculation              ...        1.360 sec (=   0.023 min)   6.6 %
SCF iterations                   ...        8.312 sec (=   0.139 min)  40.1 %
Property calculations            ...        0.183 sec (=   0.003 min)   0.9 %
SCF Gradient evaluation          ...       10.879 sec (=   0.181 min)  52.5 %
                             ****ORCA TERMINATED NORMALLY****
TOTAL RUN TIME: 0 days 0 hours 0 minutes 21 seconds 577 msec
  ------------------------------------------------------------------------
          * successful ORCA run, taking over control again...

         :::::::::::::::::::::::::::::::::::::::::::::::::::::
         ::                  ORCA SUMMARY                   ::
         :::::::::::::::::::::::::::::::::::::::::::::::::::::
         :: total energy            -386.243444800535 Eh    ::
         :: gradient norm              0.000529619739 Eh/a0 ::
         :: HOMO-LUMO gap              0.000000000000 eV    ::
         :::::::::::::::::::::::::::::::::::::::::::::::::::::

           -------------------------------------------------
          |                Property Printout                |
           -------------------------------------------------
           -------------------------------------------------
          |                Geometry Summary                 |
           -------------------------------------------------

      molecular mass/u    :      116.1585142
   center of mass at/Å    :       -0.0060214       0.0029860      -0.0055169
  moments of inertia/u·Å² :        0.1553238E+03   0.4451874E+03   0.4983281E+03
rotational constants/cm⁻¹ :        0.1085322E+00   0.3786638E-01   0.3382838E-01

 * 17 selected distances

     #   Z          #   Z                                           value/Å
     1   6 C        2   6 C                                       1.5250605
     2   6 C        3   6 C                                       1.5382714 (max)
     4   6 C        5   8 O                                       1.2219701
     4   6 C        6   8 O                                       1.3448094
     7   6 C        8   6 C                                       1.5071222
     1   6 C        9   1 H                                       1.0965062
     1   6 C       10   1 H                                       1.0956569
     1   6 C       11   1 H                                       1.0942399
     2   6 C       12   1 H                                       1.0949815
     2   6 C       13   1 H                                       1.0950735
     3   6 C       14   1 H                                       1.0927531 (min)
     3   6 C       15   1 H                                       1.0953657
     7   6 C       16   1 H                                       1.0939561
     7   6 C       17   1 H                                       1.0941454
     8   6 C       18   1 H                                       1.0939852
     8   6 C       19   1 H                                       1.0937799
     8   6 C       20   1 H                                       1.0937619

 * 3 distinct bonds (by element types)

   Z      Z             #   av. dist./Å        max./Å        min./Å
   1 H    6 C          12     1.0945171     1.0965062     1.0927531
   6 C    6 C           3     1.5234847     1.5382714     1.5071222
   6 C    8 O           2     1.2833897     1.3448094     1.2219701


optimized geometry written to: xtbopt.coord


           -------------------------------------------------
          | TOTAL ENERGY             -386.243444800535 Eh   |
          | GRADIENT NORM               0.000529619739 Eh/α |
           -------------------------------------------------

------------------------------------------------------------------------
 * finished run on 2025/04/11 at 16:46:52.811     
------------------------------------------------------------------------
 total:
 * wall-time:     0 d,  0 h,  2 min, 35.661 sec
 *  cpu-time:     0 d,  0 h,  0 min,  1.800 sec
 * ratio c/w:     0.012 speedup
 SCF:
 * wall-time:     0 d,  0 h,  0 min, 20.708 sec
 *  cpu-time:     0 d,  0 h,  0 min,  0.591 sec
 * ratio c/w:     0.029 speedup
 ANC optimizer:
 * wall-time:     0 d,  0 h,  2 min, 14.896 sec
 *  cpu-time:     0 d,  0 h,  0 min,  1.187 sec
 * ratio c/w:     0.009 speedup

