
                                 *****************
                                 * O   R   C   A *
                                 *****************

                                            #,                                       
                                            ###                                      
                                            ####                                     
                                            #####                                    
                                            ######                                   
                                           ########,                                 
                                     ,,################,,,,,                         
                               ,,#################################,,                 
                          ,,##########################################,,             
                       ,#########################################, ''#####,          
                    ,#############################################,,   '####,        
                  ,##################################################,,,,####,       
                ,###########''''           ''''###############################       
              ,#####''   ,,,,##########,,,,          '''####'''          '####       
            ,##' ,,,,###########################,,,                        '##       
           ' ,,###''''                  '''############,,,                           
         ,,##''                                '''############,,,,        ,,,,,,###''
      ,#''                                            '''#######################'''  
     '                                                          ''''####''''         
             ,#######,   #######,   ,#######,      ##                                
            ,#'     '#,  ##    ##  ,#'     '#,    #''#        ,####,   ,####,        
            ##       ##  ##   ,#'  ##            #'  '#       #'       #'  '#        
            ##       ##  #######   ##           ,######,      #####,   #    #        
            '#,     ,#'  ##    ##  '#,     ,#' ,#      #,     #,   #   #,  ,#        
             '#######'   ##     ##  '#######'  #'      '#     '####' # '####'        



                #########################################################
                #                        -***-                          #
                #          Department of theory and spectroscopy        #
                #                                                       #
                #                      Frank Neese                      #
                #                                                       #
                #     Directorship, Architecture, Infrastructure        #
                #                    SHARK, DRIVERS                     #
                #        Core code/Algorithms in most modules           #
                #                                                       #
                #        Max Planck Institute fuer Kohlenforschung      #
                #                Kaiser Wilhelm Platz 1                 #
                #                 D-45470 Muelheim/Ruhr                 #
                #                      Germany                          #
                #                                                       #
                #                  All rights reserved                  #
                #                        -***-                          #
                #########################################################


                         Program Version 6.0.0  -   RELEASE  -


 With contributions from (in alphabetic order):
   Daniel Aravena         : Magnetic Suceptibility
   Michael Atanasov       : Ab Initio Ligand Field Theory (pilot matlab implementation)
   Alexander A. Auer      : GIAO ZORA, VPT2 properties, NMR spectrum
   Ute Becker             : All parallelization in ORCA, NUMFREQ, NUMCALC
   Giovanni Bistoni       : ED, misc. LED, open-shell LED, HFLD
   Martin Brehm           : Molecular dynamics
   Dmytro Bykov           : pre 5.0 version of the SCF Hessian
   Marcos Casanova-Páez   : Triplet and SCS-CIS(D). UHF-(DLPNO)-IP/EA/STEOM-CCSD. UHF-CVS-IP/STEOM-CCSD
   Vijay G. Chilkuri      : MRCI spin determinant printing, contributions to CSF-ICE
   Pauline Colinet        : FMM embedding
   Dipayan Datta          : RHF DLPNO-CCSD density
   Achintya Kumar Dutta   : EOM-CC, STEOM-CC
   Nicolas Foglia         : Exact transition moments, OPA infrastructure, MCD improvements
   Dmitry Ganyushin       : Spin-Orbit,Spin-Spin,Magnetic field MRCI
   Miquel Garcia          : C-PCM and meta-GGA Hessian, CCSD/C-PCM, Gaussian charge scheme
   Tiago L. C. Gouveia    : GS-ROHF, GS-ROCIS
   Yang Guo               : DLPNO-NEVPT2, F12-NEVPT2, CIM, IAO-localization
   Andreas Hansen         : Spin unrestricted coupled pair/coupled cluster methods
   Ingolf Harden          : AUTO-CI MPn and infrastructure 
   Benjamin Helmich-Paris : MC-RPA, TRAH-(SCF,CASSCF), AVAS, COSX integrals, SCF dyn. polar.
   Lee Huntington         : MR-EOM, pCC
   Robert Izsak           : Overlap fitted RIJCOSX, COSX-SCS-MP3, EOM
   Riya Kayal             : Wick's Theorem for AUTO-CI, AUTO-CI UHF-CCSDT
   Emily Kempfer          : AUTO-CI, RHF CISDT and CCSDT
   Christian Kollmar      : KDIIS, OOCD, Brueckner-CCSD(T), CCSD density, CASPT2, CASPT2-K, improved NEVPT2
   Axel Koslowski         : Symmetry handling
   Simone Kossmann        : Meta GGA functionals, TD-DFT gradient, OOMP2, (MP2 Hessian; deprecated post 5.0)
   Lucas Lang             : DCDCAS
   Marvin Lechner         : AUTO-CI (C++ implementation), FIC-MRCC
   Spencer Leger          : CASSCF response
   Dagmar Lenk            : GEPOL surface, SMD, ORCA-2-JSON
   Dimitrios Liakos       : Extrapolation schemes; Compound Job, initial MDCI parallelization
   Dimitrios Manganas     : Further ROCIS development; embedding schemes. LFT, Crystal Embedding
   Dimitrios Pantazis     : SARC Basis sets
   Anastasios Papadopoulos: AUTO-CI, single reference methods and gradients
   Taras Petrenko         : pre 6.0 DFT Hessian and TD-DFT gradient, (ASA, deprecated), ECA, 1-Electron XAS/XES, NRVS
   Peter Pinski           : DLPNO-MP2, DLPNO-MP2 Gradient
   Christoph Reimann      : Effective Core Potentials
   Marius Retegan         : Local ZFS, SOC
   Christoph Riplinger    : Optimizer, TS searches, QM/MM, DLPNO-CCSD(T), (RO)-DLPNO pert. Triples
   Michael Roemelt        : Original ROCIS implementation
   Masaaki Saitow         : Open-shell DLPNO-CCSD energy and density
   Barbara Sandhoefer     : DKH picture change effects
   Kantharuban Sivalingam : CASSCF convergence/infrastructure, NEVPT2 and variants, FIC-MRCI
   Bernardo de Souza      : ESD, SOC TD-DFT
   Georgi Stoychev        : AutoAux, RI-MP2 NMR, DLPNO-MP2 response, X2C
   Van Anh Tran           : RI-MP2 g-tensors
   Willem Van den Heuvel  : Paramagnetic NMR
   Zikuan Wang            : NOTCH, Electric field optimization 
   Frank Wennmohs         : Technical directorship and infrastructure
   Hang Xu                : AUTO-CI-Response properties 


 We gratefully acknowledge several colleagues who have allowed us to
 interface, adapt or use parts of their codes:
   Stefan Grimme, W. Hujo, H. Kruse, P. Pracht,  : VdW corrections, initial TS optimization,
                  C. Bannwarth, S. Ehlert,         DFT functionals, gCP, sTDA/sTD-DF
                  L. Wittmann, M. Mueller
   Ed Valeev, F. Pavosevic, A. Kumar             : LibInt (2-el integral package), F12 methods
   Garnet Chan, S. Sharma, J. Yang, R. Olivares  : DMRG
   Ulf Ekstrom                                   : XCFun DFT Library
   Mihaly Kallay                                 : mrcc  (arbitrary order and MRCC methods)
   Frank Weinhold                                : gennbo (NPA and NBO analysis)
   Simon Mueller                                 : openCOSMO-RS
   Christopher J. Cramer and Donald G. Truhlar   : smd solvation model
   Lars Goerigk                                  : TD-DFT with DH, B97 family of functionals
   V. Asgeirsson, H. Jonsson                     : NEB implementation
   FAccTs GmbH                                   : IRC, NEB, NEB-TS, DLPNO-Multilevel, CI-OPT
                                                   MM, QMMM, 2- and 3-layer-ONIOM, Crystal-QMMM,
                                                   LR-CPCM, SF, NACMEs, symmetry and pop. for TD-DFT,
                                                   nearIR, NL-DFT gradient (VV10), updates on ESD,
                                                   ML-optimized integration grids, MBIS, APM,
                                                   GOAT, DOCKER, SOLVATOR, interface openCOSMO-RS
   S Lehtola, MJT Oliveira, MAL Marques          : LibXC Library
   Liviu Ungur et al                             : ANISO software


 Your calculation uses the libint2 library for the computation of 2-el integrals
 For citations please refer to: http://libint.valeyev.net

 Your ORCA version has been built with support for libXC version: 6.2.2
 For citations please refer to: https://libxc.gitlab.io

 This ORCA versions uses:
   CBLAS   interface :  Fast vector & matrix operations
   LAPACKE interface :  Fast linear algebra routines
   SCALAPACK package :  Parallel linear algebra routines
   Shared memory     :  Shared parallel matrices
   BLAS/LAPACK       :  OpenBLAS 0.3.27  USE64BITINT DYNAMIC_ARCH NO_AFFINITY SkylakeX SINGLE_THREADED
        Core in use  :  SkylakeX
   Copyright (c) 2011-2014, The OpenBLAS Project


Your calculation utilizes the geometrical counterpoise correction gCP
Please cite in your paper:
H.Kruse, S. Grimme J.Chem.Phys., 136, (2012), 154101 
   

Your calculation utilizes the atom-pairwise dispersion correction
based on EEQ partial charges (D4)


================================================================================

----- Orbital basis set information -----
Your calculation utilizes the basis: def2-SV(P)
   F. Weigend and R. Ahlrichs, Phys. Chem. Chem. Phys. 7, 3297 (2005).

----- AuxJ basis set information -----
Your calculation utilizes the auxiliary basis: def2/J
   F. Weigend, Phys. Chem. Chem. Phys. 8, 1057 (2006).

================================================================================
                                        WARNINGS
                       Please study these warnings very carefully!
================================================================================


================================================================================
                                       INPUT FILE
================================================================================
NAME = sp.inp
|  1> ! pbe def2-sv(p) def2/J RI DEFGRID1 loosescf d4 GCP(DFT/SV(P)) printgap
|  2> %output
|  3>     printlevel normal
|  4> end
|  5> * xyz 0 1
|  6> C -2.0213274596 -1.5645457373 0.0311226728
|  7> C -2.3882948804 -0.0920992824 0.169398534
|  8> C -1.4148444891 0.8105718038 -0.5992451076
|  9> C -0.0416343414 0.7442415891 0.017550134
| 10> O 0.2270477489 1.1038451609 1.1451831214
| 11> O 0.8509999606 0.2421991026 -0.826382581
| 12> C 2.2082739352 0.089322283 -0.3789518904
| 13> C 2.3951461333 -1.2161793281 0.3791924417
| 14> H -2.7452131893 -2.1851645828 0.5524774708
| 15> H -2.0038647729 -1.8566485966 -1.0160624437
| 16> H -1.0382188738 -1.7548699861 0.4569127363
| 17> H -2.3733182172 0.1952154069 1.2226314292
| 18> H -3.3946943179 0.0724630829 -0.2164778283
| 19> H -1.7571755279 1.8443401436 -0.5382445409
| 20> H -1.3459587083 0.5047248752 -1.6422244748
| 21> H 2.8013707966 0.1059082735 -1.293642776
| 22> H 2.4639293324 0.9424943438 0.2568910255
| 23> H 3.4415488023 -1.3337861242 0.6409523558
| 24> H 1.803504943 -1.2043483219 1.2922336584
| 25> H 2.0823552279 -2.0553220174 -0.2365583434
| 26> *
| 27> 
| 28>                          ****END OF INPUT****
================================================================================

                       ****************************
                       * Single Point Calculation *
                       ****************************

---------------------------------
CARTESIAN COORDINATES (ANGSTROEM)
---------------------------------
  C     -2.021327   -1.564546    0.031123
  C     -2.388295   -0.092099    0.169399
  C     -1.414844    0.810572   -0.599245
  C     -0.041634    0.744242    0.017550
  O      0.227048    1.103845    1.145183
  O      0.851000    0.242199   -0.826383
  C      2.208274    0.089322   -0.378952
  C      2.395146   -1.216179    0.379192
  H     -2.745213   -2.185165    0.552477
  H     -2.003865   -1.856649   -1.016062
  H     -1.038219   -1.754870    0.456913
  H     -2.373318    0.195215    1.222631
  H     -3.394694    0.072463   -0.216478
  H     -1.757176    1.844340   -0.538245
  H     -1.345959    0.504725   -1.642224
  H      2.801371    0.105908   -1.293643
  H      2.463929    0.942494    0.256891
  H      3.441549   -1.333786    0.640952
  H      1.803505   -1.204348    1.292234
  H      2.082355   -2.055322   -0.236558

----------------------------
CARTESIAN COORDINATES (A.U.)
----------------------------
  NO LB      ZA    FRAG     MASS         X           Y           Z
   0 C     6.0000    0    12.011   -3.819755   -2.956563    0.058813
   1 C     6.0000    0    12.011   -4.513223   -0.174042    0.320117
   2 C     6.0000    0    12.011   -2.673669    1.531759   -1.132409
   3 C     6.0000    0    12.011   -0.078678    1.406413    0.033165
   4 O     8.0000    0    15.999    0.429058    2.085965    2.164082
   5 O     8.0000    0    15.999    1.608157    0.457690   -1.561637
   6 C     6.0000    0    12.011    4.173033    0.168795   -0.716115
   7 C     6.0000    0    12.011    4.526170   -2.298246    0.716570
   8 H     1.0000    0     1.008   -5.187701   -4.129363    1.044031
   9 H     1.0000    0     1.008   -3.786756   -3.508557   -1.920080
  10 H     1.0000    0     1.008   -1.961949   -3.316224    0.863440
  11 H     1.0000    0     1.008   -4.484921    0.368904    2.310439
  12 H     1.0000    0     1.008   -6.415043    0.136935   -0.409084
  13 H     1.0000    0     1.008   -3.320581    3.485298   -1.017135
  14 H     1.0000    0     1.008   -2.543493    0.953792   -3.103355
  15 H     1.0000    0     1.008    5.293824    0.200138   -2.444631
  16 H     1.0000    0     1.008    4.656152    1.781056    0.485454
  17 H     1.0000    0     1.008    6.503585   -2.520490    1.211224
  18 H     1.0000    0     1.008    3.408130   -2.275888    2.441968
  19 H     1.0000    0     1.008    3.935081   -3.883996   -0.447030

--------------------------------
INTERNAL COORDINATES (ANGSTROEM)
--------------------------------
 C      0   0   0     0.000000000000     0.00000000     0.00000000
 C      1   0   0     1.523772904427     0.00000000     0.00000000
 C      2   1   0     1.534025358968   111.73535585     0.00000000
 C      3   2   1     1.506831834409   110.32203665   293.94043578
 O      4   3   2     1.213697222857   124.68107263   296.85247990
 O      4   3   2     1.327051273616   111.67470948   116.92462829
 C      6   4   3     1.437274569102   118.52037396   181.14861786
 C      7   6   4     1.521196405236   111.25024153    84.20395961
 H      1   2   3     1.086733236103   110.35874213   182.10274771
 H      1   2   3     1.087302025224   110.54026362   302.28533155
 H      1   2   3     1.088128204455   110.55422836    62.29647757
 H      2   1   3     1.091821213688   109.78690262   239.38237503
 H      2   1   3     1.090330760300   109.63452169   120.49814947
 H      3   2   1     1.090682625532   109.30100413   175.63561123
 H      3   2   1     1.089079223443   110.77757896    54.45622180
 H      7   6   4     1.090274460071   104.53199544   204.51262558
 H      7   6   4     1.094330142666   108.57631583   322.34834012
 H      8   7   6     1.085038320433   109.37352434   176.01950510
 H      8   7   6     1.088036550011   110.00467434   295.52779009
 H      8   7   6     1.086806161584   110.17634964    55.85318584

---------------------------
INTERNAL COORDINATES (A.U.)
---------------------------
 C      0   0   0     0.000000000000     0.00000000     0.00000000
 C      1   0   0     2.879513479657     0.00000000     0.00000000
 C      2   1   0     2.898887810939   111.73535585     0.00000000
 C      3   2   1     2.847499496907   110.32203665   293.94043578
 O      4   3   2     2.293555360701   124.68107263   296.85247990
 O      4   3   2     2.507763472805   111.67470948   116.92462829
 C      6   4   3     2.716055314853   118.52037396   181.14861786
 C      7   6   4     2.874644601801   111.25024153    84.20395961
 H      1   2   3     2.053628196864   110.35874213   182.10274771
 H      1   2   3     2.054703052532   110.54026362   302.28533155
 H      1   2   3     2.056264305015   110.55422836    62.29647757
 H      2   1   3     2.063243081076   109.78690262   239.38237503
 H      2   1   3     2.060426532356   109.63452169   120.49814947
 H      3   2   1     2.061091461281   109.30100413   175.63561123
 H      3   2   1     2.058061470451   110.77757896    54.45622180
 H      7   6   4     2.060320140343   104.53199544   204.51262558
 H      7   6   4     2.067984269734   108.57631583   322.34834012
 H      8   7   6     2.050425270429   109.37352434   176.01950510
 H      8   7   6     2.056091103218   110.00467434   295.52779009
 H      8   7   6     2.053766006053   110.17634964    55.85318584

---------------------
BASIS SET INFORMATION
---------------------
There are 3 groups of distinct atoms

 Group   1 Type C   : 7s4p1d contracted to 3s2p1d pattern {511/31/1}
 Group   2 Type O   : 7s4p1d contracted to 3s2p1d pattern {511/31/1}
 Group   3 Type H   : 4s contracted to 2s pattern {31}

Atom   0C    basis set group =>   1
Atom   1C    basis set group =>   1
Atom   2C    basis set group =>   1
Atom   3C    basis set group =>   1
Atom   4O    basis set group =>   2
Atom   5O    basis set group =>   2
Atom   6C    basis set group =>   1
Atom   7C    basis set group =>   1
Atom   8H    basis set group =>   3
Atom   9H    basis set group =>   3
Atom  10H    basis set group =>   3
Atom  11H    basis set group =>   3
Atom  12H    basis set group =>   3
Atom  13H    basis set group =>   3
Atom  14H    basis set group =>   3
Atom  15H    basis set group =>   3
Atom  16H    basis set group =>   3
Atom  17H    basis set group =>   3
Atom  18H    basis set group =>   3
Atom  19H    basis set group =>   3
---------------------------------
AUXILIARY/J BASIS SET INFORMATION
---------------------------------
There are 3 groups of distinct atoms

 Group   1 Type C   : 12s5p4d2f1g contracted to 6s4p3d1f1g pattern {711111/2111/211/2/1}
 Group   2 Type O   : 12s5p4d2f1g contracted to 6s4p3d1f1g pattern {711111/2111/211/2/1}
 Group   3 Type H   : 5s2p1d contracted to 3s1p1d pattern {311/2/1}

Atom   0C    basis set group =>   1
Atom   1C    basis set group =>   1
Atom   2C    basis set group =>   1
Atom   3C    basis set group =>   1
Atom   4O    basis set group =>   2
Atom   5O    basis set group =>   2
Atom   6C    basis set group =>   1
Atom   7C    basis set group =>   1
Atom   8H    basis set group =>   3
Atom   9H    basis set group =>   3
Atom  10H    basis set group =>   3
Atom  11H    basis set group =>   3
Atom  12H    basis set group =>   3
Atom  13H    basis set group =>   3
Atom  14H    basis set group =>   3
Atom  15H    basis set group =>   3
Atom  16H    basis set group =>   3
Atom  17H    basis set group =>   3
Atom  18H    basis set group =>   3
Atom  19H    basis set group =>   3
------------------------------------------------------------------------------
                             ORCA STARTUP CALCULATIONS
                           -- RI-GTO INTEGRALS CHOSEN --
------------------------------------------------------------------------------
------------------------------------------------------------------------------
                   ___                                                        
                  /   \      - P O W E R E D   B Y -                         
                 /     \                                                     
                 |  |  |   _    _      __       _____    __    __             
                 |  |  |  | |  | |    /  \     |  _  \  |  |  /  |          
                  \  \/   | |  | |   /    \    | | | |  |  | /  /          
                 / \  \   | |__| |  /  /\  \   | |_| |  |  |/  /          
                |  |  |   |  __  | /  /__\  \  |    /   |      \           
                |  |  |   | |  | | |   __   |  |    \   |  |\   \          
                \     /   | |  | | |  |  |  |  | |\  \  |  | \   \       
                 \___/    |_|  |_| |__|  |__|  |_| \__\ |__|  \__/        
                                                                              
                      - O R C A' S   B I G   F R I E N D -                    
                                      &                                       
                       - I N T E G R A L  F E E D E R -                       
                                                                              
 v1 FN, 2020, v2 2021, v3 2022-2024                                           
------------------------------------------------------------------------------


----------------------
SHARK INTEGRAL PACKAGE
----------------------

Number of atoms                             ...     20
Number of basis functions                   ...    136
Number of shells                            ...     72
Maximum angular momentum                    ...      2
Integral batch strategy                     ... SHARK/LIBINT Hybrid
RI-J (if used) integral strategy            ... SPLIT-RIJ (Revised 2003 algorithm where possible)
Printlevel                                  ...      1
Contraction scheme used                     ... SEGMENTED contraction
Prescreening option                         ... SCHWARTZ
   Thresh                                   ... 1.000e-09
   Tcut                                     ... 1.000e-10
   Tpresel                                  ... 1.000e-10 
Coulomb Range Separation                    ... NOT USED
Exchange Range Separation                   ... NOT USED
Multipole approximations                    ... NOT USED
Finite Nucleus Model                        ... NOT USED
CABS basis                                  ... NOT available
Auxiliary Coulomb fitting basis             ... AVAILABLE
   # of basis functions in Aux-J            ...    524
   # of shells in Aux-J                     ...    180
   Maximum angular momentum in Aux-J        ...      4
Auxiliary J/K fitting basis                 ... NOT available
Auxiliary Correlation fitting basis         ... NOT available
Auxiliary 'external' fitting basis          ... NOT available

Checking pre-screening integrals            ... done (  0.0 sec) Dimension = 72
Check shell pair data                       ... done (  0.0 sec)
Shell pair information
Shell pair cut-off parameter TPreSel        ...   1.0e-10
Total number of shell pairs                 ...      2628
Shell pairs after pre-screening             ...      2475
Total number of primitive shell pairs       ...     10580
Primitive shell pairs kept                  ...      6871
          la=0 lb=0:   1085 shell pairs
          la=1 lb=0:    744 shell pairs
          la=1 lb=1:    136 shell pairs
          la=2 lb=0:    351 shell pairs
          la=2 lb=1:    126 shell pairs
          la=2 lb=2:     33 shell pairs

Calculating one electron integrals          ... done (  0.0 sec)
Calculating RI/J V-Matrix + Cholesky decomp.... done (  0.1 sec)
Calculating Nuclear repulsion               ... done (  0.0 sec) ENN=    399.838910879547 Eh

Diagonalization of the overlap matrix:
Smallest eigenvalue                        ... 2.005e-03
Time for diagonalization                   ...    0.002 sec
Threshold for overlap eigenvalues          ... 1.000e-07
Number of eigenvalues below threshold      ... 0
Time for construction of square roots      ...    0.017 sec
Total time needed                          ...    0.031 sec

-------------------
DFT GRID GENERATION
-------------------

General Integration Accuracy     IntAcc      ... 4.159
Radial Grid Type                 RadialGrid  ... OptM3 with GC (2021)
Angular Grid (max. ang.)         AngularGrid ... 3 (Lebedev-194)
Angular grid pruning method      GridPruning ... 4 (adaptive)
Weight generation scheme         WeightScheme... mBecke (2022)
Basis function cutoff            BFCut       ... 1.0000e-10
Integration weight cutoff        WCut        ... 1.0000e-14
Partially contracted basis set               ... off
Rotationally invariant grid construction     ... off
Angular grids for H and He will be reduced by one unit

Total number of grid points                  ...    42963
Total number of batches                      ...      683
Average number of points per batch           ...       62
Average number of grid points per atom       ...     2148
Initializing property integral containers    ... done (  0.0 sec)

SHARK setup successfully completed in   0.8 seconds

Maximum memory used throughout the entire STARTUP-calculation: 21.2 MB
-------------------------------------------------------------------------------
                                 ORCA GUESS
                   Start orbitals & Density for SCF / CASSCF
-------------------------------------------------------------------------------

------------
SCF SETTINGS
------------
Hamiltonian:
 Density Functional     Method          .... DFT(GTOs)
 Exchange Functional    Exchange        .... PBE
   PBE kappa parameter   XKappa         ....  0.804000
   PBE mue parameter    XMuePBE         ....  0.219520
 Correlation Functional Correlation     .... PBE
   PBE beta parameter  CBetaPBE         ....  0.066725
 LDA part of GGA corr.  LDAOpt          .... PW91-LDA
 Gradients option       PostSCFGGA      .... off
   NL short-range parameter             ....  6.400000
 RI-approximation to the Coulomb term is turned on
   Number of AuxJ basis functions       .... 524


General Settings:
 Integral files         IntName         .... sp
 Hartree-Fock type      HFTyp           .... RHF
 Total Charge           Charge          ....    0
 Multiplicity           Mult            ....    1
 Number of Electrons    NEL             ....   64
 Basis Dimension        Dim             ....  136
 Nuclear Repulsion      ENuc            ....    399.8389108795 Eh

Convergence Acceleration:
 AO-DIIS                CNVDIIS         .... on
   Start iteration      DIISMaxIt       ....    12
   Startup error        DIISStart       ....  0.200000
   # of expansion vecs  DIISMaxEq       ....     5
   Bias factor          DIISBfac        ....   1.050
   Max. coefficient     DIISMaxC        ....  10.000
 MO-DIIS                CNVKDIIS        .... off
 Trust-Rad. Augm. Hess. CNVTRAH         .... auto
   Auto Start mean grad. ratio tolernc. ....  1.125000
   Auto Start start iteration           ....    50
   Auto Start num. interpolation iter.  ....    10
   Max. Number of Micro iterations      ....    24
   Max. Number of Macro iterations      .... Maxiter - #DIIS iter
   Number of Davidson start vectors     ....     2
   Converg. threshold    (grad. norm)   ....   1.000e-04
   Grad. Scal. Fac. for Micro threshold ....   0.100
   Minimum threshold for Micro iter.    ....   1.000e-02
   NR start threshold (gradient norm)   ....   1.000e-04
   Initial trust radius                 ....   0.400
   Minimum AH scaling param. (alpha)    ....   1.000
   Maximum AH scaling param. (alpha)    .... 1000.000
   Quad. conv. algorithm                .... NR
   White noise on init. David. guess    .... on
   Maximum white noise                  ....   0.010
   Pseudo random numbers                .... off
   Inactive MOs                         .... canonical
   Orbital update algorithm             .... Taylor
   Preconditioner                       .... Diag
   Full preconditioner red. dimension   ....   250
 SOSCF                  CNVSOSCF        .... on
   Start iteration      SOSCFMaxIt      ....   150
   Startup grad/error   SOSCFStart      ....  0.003300
   Hessian update       SOSCFHessUp     .... L-BFGS
 Level Shifting         CNVShift        .... on
   Level shift para.    LevelShift      ....    0.2500
   Turn off err/grad.   ShiftErr        ....    0.0010
 Zerner damping         CNVZerner       .... off
 Static damping         CNVDamp         .... on
   Fraction old density DampFac         ....    0.7000
   Max. Damping (<1)    DampMax         ....    0.9800
   Min. Damping (>=0)   DampMin         ....    0.0000
   Turn off err/grad.   DampErr         ....    0.1000

SCF Procedure:
 Maximum # iterations   MaxIter         ....   125
 SCF integral mode      SCFMode         .... Direct
   Integral package                     .... SHARK and LIBINT hybrid scheme
 Reset frequency        DirectResetFreq ....    20
 Integral Threshold     Thresh          ....  1.000e-09 Eh
 Primitive CutOff       TCut            ....  1.000e-10 Eh

Convergence Tolerance:
 Convergence Check Mode ConvCheckMode   .... Total+1el-Energy
 Convergence forced     ConvForced      .... 0
 Energy Change          TolE            ....  1.000e-05 Eh
 1-El. energy change                    ....  1.000e-02 Eh
 Orbital Gradient       TolG            ....  1.000e-04
 Orbital Rotation angle TolX            ....  1.000e-04
 DIIS Error             TolErr          ....  5.000e-04

------------------------------
INITIAL GUESS: MODEL POTENTIAL
------------------------------
Loading Hartree-Fock densities                     ... done
Calculating cut-offs                               ... done
Initializing the effective Hamiltonian             ... done
Setting up the integral package (SHARK)            ... done
Starting the Coulomb interaction                   ... done (   0.1 sec)
Making the grid                                    ... done (   0.2 sec)
Mapping shells                                     ... done
Starting the XC term evaluation                    ... done (   0.2 sec)
  promolecular density results
     # of electrons  =     63.988579556
     EX              =    -50.541658961
     EC              =     -2.107371433
     EX+EC           =    -52.649030394
Transforming the Hamiltonian                       ... done (   0.0 sec)
Diagonalizing the Hamiltonian                      ... done (   0.0 sec)
Back transforming the eigenvectors                 ... done (   0.0 sec)
Now organizing SCF variables                       ... done
                      ------------------
                      INITIAL GUESS DONE (   0.6 sec)
                      ------------------
             **** ENERGY FILE WAS UPDATED (sp.en.tmp) ****
Finished Guess after   0.8 sec
Maximum memory used throughout the entire GUESS-calculation: 16.2 MB

-------------------------------------------------------------------------------------------
                                      ORCA LEAN-SCF
                              memory conserving SCF solver
-------------------------------------------------------------------------------------------

----------------------------------------D-I-I-S--------------------------------------------
Iteration    Energy (Eh)           Delta-E    RMSDP     MaxDP     DIISErr   Damp  Time(sec)
-------------------------------------------------------------------------------------------
               ***  Starting incremental Fock matrix formation  ***
    1    -385.2869928685406649     0.00e+00  4.83e-03  1.01e-01  2.46e-01  0.700   0.8
    2    -385.4113931896787335    -1.24e-01  3.04e-03  5.08e-02  7.69e-02  0.700   0.9
                               ***Turning on AO-DIIS***
    3    -385.4497516239785000    -3.84e-02  1.23e-03  1.38e-02  2.27e-02  0.700   0.8
    4    -385.4746924308974485    -2.49e-02  1.75e-03  2.21e-02  1.41e-02  0.000   0.9
    5    -385.5325468570035810    -5.79e-02  5.45e-04  6.54e-03  8.83e-03  0.000   0.8
                              *** Initializing SOSCF ***
---------------------------------------S-O-S-C-F--------------------------------------
Iteration    Energy (Eh)           Delta-E    RMSDP     MaxDP     MaxGrad    Time(sec)
--------------------------------------------------------------------------------------
    6    -385.5332632704845537    -7.16e-04  2.04e-04  2.55e-03  3.11e-03     0.8
               *** Restarting incremental Fock matrix formation ***
    7    -385.5333162511708451    -5.30e-05  1.60e-04  2.90e-03  6.36e-04     0.8
    8    -385.5332951477405459     2.11e-05  8.77e-05  2.33e-03  1.94e-03     0.8
    9    -385.5333229944790219    -2.78e-05  6.67e-05  1.08e-03  3.28e-04     0.7
   10    -385.5333190600200624     3.93e-06  3.95e-05  7.78e-04  3.62e-04     0.8
                 **** Energy Check signals convergence ****

               *****************************************************
               *                     SUCCESS                       *
               *           SCF CONVERGED AFTER  10 CYCLES          *
               *****************************************************

             **** ENERGY FILE WAS UPDATED (sp.en.tmp) ****

----------------
TOTAL SCF ENERGY
----------------

Total Energy       :       -385.53331906002006 Eh          -10490.89496 eV

Components:
Nuclear Repulsion  :        399.83891087954703 Eh           10880.16990 eV
Electronic Energy  :       -785.37222993956709 Eh          -21371.06486 eV
One Electron Energy:      -1316.08493263121204 Eh          -35812.49169 eV
Two Electron Energy:        530.71270269164495 Eh           14441.42683 eV

Virial components:
Potential Energy   :       -767.92648093528294 Eh          -20896.34190 eV
Kinetic Energy     :        382.39316187526288 Eh           10405.44694 eV
Virial Ratio       :          2.00821185496455

DFT components:
N(Alpha)           :       32.000082058719 electrons
N(Beta)            :       32.000082058719 electrons
N(Total)           :       64.000164117439 electrons
E(X)               :      -51.599159994385 Eh       
E(C)               :       -2.123301340956 Eh       
E(XC)              :      -53.722461335340 Eh       

---------------
SCF CONVERGENCE
---------------

  Last Energy change         ...   -3.9345e-06  Tolerance :   1.0000e-05
  Last MAX-Density change    ...    7.7797e-04  Tolerance :   1.0000e-03
  Last RMS-Density change    ...    3.9529e-05  Tolerance :   1.0000e-04
  Last DIIS Error            ...    3.1149e-03  Tolerance :   5.0000e-04
  Last Orbital Gradient      ...    3.6245e-04  Tolerance :   1.0000e-04
  Last Orbital Rotation      ...    3.3034e-04  Tolerance :   1.0000e-04


----------------
ORBITAL ENERGIES
----------------

  NO   OCC          E(Eh)            E(eV) 
   0   2.0000     -18.797773      -511.5134 
   1   2.0000     -18.730590      -509.6853 
   2   2.0000     -10.004075      -272.2247 
   3   2.0000      -9.946398      -270.6552 
   4   2.0000      -9.895427      -269.2682 
   5   2.0000      -9.892527      -269.1893 
   6   2.0000      -9.887020      -269.0395 
   7   2.0000      -9.878323      -268.8028 
   8   2.0000      -1.003899       -27.3175 
   9   2.0000      -0.907937       -24.7062 
  10   2.0000      -0.727910       -19.8074 
  11   2.0000      -0.696612       -18.9558 
  12   2.0000      -0.636256       -17.3134 
  13   2.0000      -0.592193       -16.1144 
  14   2.0000      -0.532995       -14.5035 
  15   2.0000      -0.491956       -13.3868 
  16   2.0000      -0.452428       -12.3112 
  17   2.0000      -0.433725       -11.8023 
  18   2.0000      -0.424914       -11.5625 
  19   2.0000      -0.396023       -10.7763 
  20   2.0000      -0.388576       -10.5737 
  21   2.0000      -0.375643       -10.2218 
  22   2.0000      -0.362426        -9.8621 
  23   2.0000      -0.351709        -9.5705 
  24   2.0000      -0.338701        -9.2165 
  25   2.0000      -0.330067        -8.9816 
  26   2.0000      -0.306083        -8.3289 
  27   2.0000      -0.299049        -8.1375 
  28   2.0000      -0.297592        -8.0979 
  29   2.0000      -0.287296        -7.8177 
  30   2.0000      -0.255462        -6.9515 
  31   2.0000      -0.216792        -5.8992 
  32   0.0000      -0.020525        -0.5585 
  33   0.0000       0.036506         0.9934 
  34   0.0000       0.057532         1.5655 
  35   0.0000       0.070063         1.9065 
  36   0.0000       0.079655         2.1675 
  37   0.0000       0.093525         2.5449 
  38   0.0000       0.097615         2.6562 
  39   0.0000       0.098977         2.6933 
  40   0.0000       0.109405         2.9771 
  41   0.0000       0.116144         3.1604 
  42   0.0000       0.125193         3.4067 
*Only the first 10 virtual orbitals were printed.

                    ********************************
                    * MULLIKEN POPULATION ANALYSIS *
                    ********************************

-----------------------
MULLIKEN ATOMIC CHARGES
-----------------------
   0 C :   -0.292062
   1 C :   -0.207841
   2 C :   -0.112026
   3 C :    0.087629
   4 O :   -0.213012
   5 O :   -0.234753
   6 C :   -0.014049
   7 C :   -0.310372
   8 H :    0.107845
   9 H :    0.100253
  10 H :    0.118204
  11 H :    0.108043
  12 H :    0.093845
  13 H :    0.110341
  14 H :    0.092071
  15 H :    0.101391
  16 H :    0.106876
  17 H :    0.112126
  18 H :    0.130616
  19 H :    0.114875
Sum of atomic charges:   -0.0000000

--------------------------------
MULLIKEN REDUCED ORBITAL CHARGES
--------------------------------
  0 C s       :     3.093585  s :     3.093585
      pz      :     1.066529  p :     3.169218
      px      :     1.075789
      py      :     1.026900
      dz2     :     0.006593  d :     0.029259
      dxz     :     0.004004
      dyz     :     0.006075
      dx2y2   :     0.006128
      dxy     :     0.006459

  1 C s       :     3.082988  s :     3.082988
      pz      :     1.048002  p :     3.087770
      px      :     1.027150
      py      :     1.012619
      dz2     :     0.009451  d :     0.037082
      dxz     :     0.004322
      dyz     :     0.006740
      dx2y2   :     0.009958
      dxy     :     0.006611

  2 C s       :     3.007137  s :     3.007137
      pz      :     1.027681  p :     3.071770
      px      :     1.003592
      py      :     1.040497
      dz2     :     0.009964  d :     0.033120
      dxz     :     0.005346
      dyz     :     0.003382
      dx2y2   :     0.009607
      dxy     :     0.004821

  3 C s       :     3.064650  s :     3.064650
      pz      :     0.901533  p :     2.716869
      px      :     0.961419
      py      :     0.853918
      dz2     :     0.029836  d :     0.130851
      dxz     :     0.047484
      dyz     :     0.025840
      dx2y2   :     0.013374
      dxy     :     0.014316

  4 O s       :     3.747640  s :     3.747640
      pz      :     1.329646  p :     4.447879
      px      :     1.700511
      py      :     1.417721
      dz2     :     0.006892  d :     0.017493
      dxz     :     0.003933
      dyz     :     0.005271
      dx2y2   :     0.000702
      dxy     :     0.000694

  5 O s       :     3.729063  s :     3.729063
      pz      :     1.606111  p :     4.489537
      px      :     1.231649
      py      :     1.651777
      dz2     :     0.002790  d :     0.016154
      dxz     :     0.005580
      dyz     :     0.002575
      dx2y2   :     0.002879
      dxy     :     0.002329

  6 C s       :     3.073358  s :     3.073358
      pz      :     1.031380  p :     2.881801
      px      :     0.777696
      py      :     1.072725
      dz2     :     0.008018  d :     0.058891
      dxz     :     0.015342
      dyz     :     0.009071
      dx2y2   :     0.016045
      dxy     :     0.010415

  7 C s       :     3.104793  s :     3.104793
      pz      :     1.078208  p :     3.177680
      px      :     1.065355
      py      :     1.034118
      dz2     :     0.004851  d :     0.027898
      dxz     :     0.005452
      dyz     :     0.007111
      dx2y2   :     0.008182
      dxy     :     0.002302

  8 H s       :     0.892155  s :     0.892155

  9 H s       :     0.899747  s :     0.899747

 10 H s       :     0.881796  s :     0.881796

 11 H s       :     0.891957  s :     0.891957

 12 H s       :     0.906155  s :     0.906155

 13 H s       :     0.889659  s :     0.889659

 14 H s       :     0.907929  s :     0.907929

 15 H s       :     0.898609  s :     0.898609

 16 H s       :     0.893124  s :     0.893124

 17 H s       :     0.887874  s :     0.887874

 18 H s       :     0.869384  s :     0.869384

 19 H s       :     0.885125  s :     0.885125


------------------------
MULLIKEN OVERLAP CHARGES
------------------------
B(  0-C ,  1-C ) :   0.8761 B(  0-C ,  2-C ) :  -0.1348 B(  0-C ,  8-H ) :   0.7282 
B(  0-C ,  9-H ) :   0.7542 B(  0-C , 10-H ) :   0.7612 B(  0-C , 12-H ) :  -0.0543 
B(  1-C ,  2-C ) :   0.8080 B(  1-C ,  9-H ) :  -0.0556 B(  1-C , 11-H ) :   0.7047 
B(  1-C , 12-H ) :   0.7285 B(  2-C ,  3-C ) :   0.6140 B(  2-C ,  4-O ) :  -0.1877 
B(  2-C ,  5-O ) :  -0.2360 B(  2-C , 11-H ) :  -0.0619 B(  2-C , 13-H ) :   0.6275 
B(  2-C , 14-H ) :   0.6118 B(  3-C ,  4-O ) :   1.3333 B(  3-C ,  5-O ) :   0.7189 
B(  3-C ,  6-C ) :  -0.0559 B(  4-O ,  5-O ) :  -0.1739 B(  5-O ,  6-C ) :   0.5219 
B(  5-O ,  7-C ) :  -0.0764 B(  5-O , 15-H ) :  -0.0541 B(  5-O , 16-H ) :  -0.0640 
B(  6-C ,  7-C ) :   0.9378 B(  6-C , 15-H ) :   0.7370 B(  6-C , 16-H ) :   0.7116 
B(  7-C , 15-H ) :  -0.0564 B(  7-C , 16-H ) :  -0.0599 B(  7-C , 17-H ) :   0.7095 
B(  7-C , 18-H ) :   0.7410 B(  7-C , 19-H ) :   0.7391 B( 11-H , 12-H ) :  -0.0592 
B( 15-H , 16-H ) :  -0.0634 B( 18-H , 19-H ) :  -0.0561 


                     *******************************
                     * LOEWDIN POPULATION ANALYSIS *
                     *******************************

----------------------
LOEWDIN ATOMIC CHARGES
----------------------
   0 C :   -0.343361
   1 C :   -0.225671
   2 C :   -0.245229
   3 C :    0.036861
   4 O :   -0.175515
   5 O :   -0.065658
   6 C :   -0.112884
   7 C :   -0.357794
   8 H :    0.121762
   9 H :    0.118292
  10 H :    0.119621
  11 H :    0.124149
  12 H :    0.118206
  13 H :    0.140588
  14 H :    0.126129
  15 H :    0.116828
  16 H :    0.119172
  17 H :    0.130225
  18 H :    0.130121
  19 H :    0.124161

-------------------------------
LOEWDIN REDUCED ORBITAL CHARGES
-------------------------------
  0 C s       :     2.944639  s :     2.944639
      pz      :     1.124686  p :     3.327899
      px      :     1.125353
      py      :     1.077860
      dz2     :     0.016821  d :     0.070823
      dxz     :     0.009903
      dyz     :     0.012923
      dx2y2   :     0.016366
      dxy     :     0.014811

  1 C s       :     2.907356  s :     2.907356
      pz      :     1.101448  p :     3.229234
      px      :     1.071562
      py      :     1.056224
      dz2     :     0.022601  d :     0.089082
      dxz     :     0.010663
      dyz     :     0.015081
      dx2y2   :     0.024675
      dxy     :     0.016062

  2 C s       :     2.917498  s :     2.917498
      pz      :     1.092035  p :     3.243998
      px      :     1.058678
      py      :     1.093285
      dz2     :     0.023845  d :     0.083733
      dxz     :     0.015412
      dyz     :     0.008181
      dx2y2   :     0.023521
      dxy     :     0.012774

  3 C s       :     2.849046  s :     2.849046
      pz      :     0.991706  p :     2.816224
      px      :     0.978611
      py      :     0.845907
      dz2     :     0.070516  d :     0.297869
      dxz     :     0.113014
      dyz     :     0.057171
      dx2y2   :     0.028184
      dxy     :     0.028984

  4 O s       :     3.551128  s :     3.551128
      pz      :     1.456527  p :     4.593498
      px      :     1.707742
      py      :     1.429229
      dz2     :     0.013558  d :     0.030890
      dxz     :     0.006852
      dyz     :     0.008482
      dx2y2   :     0.000991
      dxy     :     0.001007

  5 O s       :     3.451460  s :     3.451460
      pz      :     1.640975  p :     4.581310
      px      :     1.295620
      py      :     1.644715
      dz2     :     0.004763  d :     0.032888
      dxz     :     0.011909
      dyz     :     0.004024
      dx2y2   :     0.006673
      dxy     :     0.005520

  6 C s       :     2.924374  s :     2.924374
      pz      :     1.100268  p :     3.057234
      px      :     0.844840
      py      :     1.112127
      dz2     :     0.015757  d :     0.131276
      dxz     :     0.034267
      dyz     :     0.023155
      dx2y2   :     0.037105
      dxy     :     0.020992

  7 C s       :     2.951973  s :     2.951973
      pz      :     1.123415  p :     3.337124
      px      :     1.126726
      py      :     1.086984
      dz2     :     0.010602  d :     0.068697
      dxz     :     0.013306
      dyz     :     0.018564
      dx2y2   :     0.020693
      dxy     :     0.005532

  8 H s       :     0.878238  s :     0.878238

  9 H s       :     0.881708  s :     0.881708

 10 H s       :     0.880379  s :     0.880379

 11 H s       :     0.875851  s :     0.875851

 12 H s       :     0.881794  s :     0.881794

 13 H s       :     0.859412  s :     0.859412

 14 H s       :     0.873871  s :     0.873871

 15 H s       :     0.883172  s :     0.883172

 16 H s       :     0.880828  s :     0.880828

 17 H s       :     0.869775  s :     0.869775

 18 H s       :     0.869879  s :     0.869879

 19 H s       :     0.875839  s :     0.875839


---------------------------------
LOEWDIN BOND ORDERS (THRESH 0.050000)
---------------------------------
B(  0-C ,  1-C ) :   1.1331 B(  0-C ,  2-C ) :   0.0530 B(  0-C ,  8-H ) :   0.9386 
B(  0-C ,  9-H ) :   0.9399 B(  0-C , 10-H ) :   0.9368 B(  1-C ,  2-C ) :   1.0776 
B(  1-C ,  3-C ) :   0.0640 B(  1-C , 11-H ) :   0.9036 B(  1-C , 12-H ) :   0.9056 
B(  2-C ,  3-C ) :   1.0565 B(  2-C ,  4-O ) :   0.0954 B(  2-C ,  5-O ) :   0.0726 
B(  2-C , 13-H ) :   0.8851 B(  2-C , 14-H ) :   0.8967 B(  3-C ,  4-O ) :   2.1963 
B(  3-C ,  5-O ) :   1.4029 B(  3-C ,  6-C ) :   0.0756 B(  4-O ,  5-O ) :   0.2086 
B(  5-O ,  6-C ) :   1.0755 B(  5-O ,  7-C ) :   0.0530 B(  6-C ,  7-C ) :   1.1491 
B(  6-C , 15-H ) :   0.9206 B(  6-C , 16-H ) :   0.9076 B(  7-C , 17-H ) :   0.9297 
B(  7-C , 18-H ) :   0.9344 B(  7-C , 19-H ) :   0.9383 

------------------------------------------
LOEWDIN REDUCED ORBITAL POPULATIONS PER MO
-------------------------------------------
THRESHOLD FOR PRINTING IS 0.1%%
                      0         1         2         3         4         5   
                 -18.79777 -18.73059 -10.00408  -9.94640  -9.89543  -9.89253
                   2.00000   2.00000   2.00000   2.00000   2.00000   2.00000
                  --------  --------  --------  --------  --------  --------
 0 C  py              0.0       0.0       0.0       0.0       0.0       0.1
 1 C  s               0.0       0.0       0.0       0.0       0.0      99.6
 2 C  s               0.0       0.0       0.0       0.0      99.6       0.0
 3 C  s               0.0       0.0      99.3       0.0       0.0       0.0
 4 O  s               0.0      99.9       0.0       0.0       0.0       0.0
 4 O  pz              0.0       0.0       0.2       0.0       0.0       0.0
 5 O  s              99.9       0.0       0.0       0.0       0.0       0.0
 6 C  s               0.0       0.0       0.0      99.7       0.0       0.0

                      6         7         8         9        10        11   
                  -9.88702  -9.87832  -1.00390  -0.90794  -0.72791  -0.69661
                   2.00000   2.00000   2.00000   2.00000   2.00000   2.00000
                  --------  --------  --------  --------  --------  --------
 0 C  s               0.0      99.7       0.0       0.0       7.7       5.8
 0 C  py              0.0       0.0       0.0       0.0       2.1       0.8
 1 C  s               0.0       0.0       0.1       0.0      17.4       8.1
 1 C  pz              0.0       0.0       0.0       0.0       0.6       0.0
 1 C  px              0.0       0.0       0.1       0.1       1.3       0.1
 1 C  py              0.0       0.1       0.0       0.0       0.0       0.3
 2 C  s               0.0       0.0       1.0       0.3      19.3       1.4
 2 C  pz              0.0       0.0       0.2       0.4       0.5       0.3
 2 C  px              0.0       0.0       1.6       0.1       0.1       1.8
 2 C  py              0.0       0.0       0.0       0.0       0.9       0.3
 3 C  s               0.0       0.0      18.4       5.3       3.2       1.1
 3 C  pz              0.0       0.0       0.1      20.5       4.0       1.5
 3 C  px              0.0       0.0       4.8       0.4       5.2       0.9
 3 C  py              0.0       0.0       0.4       3.2       0.2       0.2
 3 C  dz2             0.0       0.0       0.2       0.9       0.0       0.0
 3 C  dxz             0.0       0.0       0.2       0.8       0.0       0.1
 3 C  dyz             0.0       0.0       0.4       0.1       0.0       0.0
 3 C  dxy             0.0       0.0       0.1       0.2       0.0       0.0
 4 O  s               0.0       0.0      10.8      42.1       1.6       0.1
 4 O  pz              0.0       0.0       2.4       3.8       0.1       0.1
 4 O  px              0.0       0.0       0.0       0.3       0.1       0.0
 4 O  py              0.0       0.0       0.3       0.4       0.0       0.0
 4 O  dz2             0.0       0.0       0.1       0.1       0.0       0.0
 5 O  s               0.0       0.0      41.7      14.9       0.0       1.2
 5 O  pz              0.0       0.0       2.8       0.2       0.0       0.1
 5 O  px              0.0       0.0       0.0       0.4       5.4       8.1
 5 O  py              0.0       0.0       0.4       0.1       0.3       1.0
 6 C  s               0.0       0.0       4.8       2.2       5.3      18.1
 6 C  pz              0.0       0.0       0.2       0.3       0.0       0.4
 6 C  px              0.0       0.0       5.3       1.3       0.1       0.6
 6 C  py              0.1       0.0       0.1       0.0       0.1       1.9
 6 C  dx2y2           0.0       0.0       0.3       0.1       0.0       0.1
 7 C  s              99.7       0.0       0.3       0.2       2.8      18.4
 7 C  pz              0.0       0.0       0.1       0.1       0.2       0.5
 7 C  px              0.0       0.0       0.1       0.0       0.0       0.0
 7 C  py              0.0       0.0       0.3       0.1       0.4       1.4
 8 H  s               0.0       0.1       0.0       0.0       1.2       1.1
 9 H  s               0.0       0.1       0.0       0.0       1.5       1.1
10 H  s               0.0       0.1       0.0       0.0       1.5       1.1
11 H  s               0.0       0.0       0.0       0.0       3.0       1.5
12 H  s               0.0       0.0       0.0       0.0       3.0       1.6
13 H  s               0.0       0.0       0.1       0.1       3.3       0.3
14 H  s               0.0       0.0       0.2       0.0       3.8       0.2
15 H  s               0.0       0.0       0.5       0.3       1.0       4.0
16 H  s               0.0       0.0       0.8       0.1       1.0       3.3
17 H  s               0.1       0.0       0.0       0.0       0.5       3.7
18 H  s               0.1       0.0       0.1       0.0       0.5       3.4
19 H  s               0.1       0.0       0.1       0.0       0.5       3.6

                     12        13        14        15        16        17   
                  -0.63626  -0.59219  -0.53299  -0.49196  -0.45243  -0.43373
                   2.00000   2.00000   2.00000   2.00000   2.00000   2.00000
                  --------  --------  --------  --------  --------  --------
 0 C  s              18.6       6.1       7.7       0.3       0.1       0.0
 0 C  pz              0.0       0.0       0.3       0.1       2.5       0.0
 0 C  px              0.1       0.0       1.2       0.3       0.5       3.8
 0 C  py              0.0       0.7       6.3       0.8       0.8       0.1
 0 C  dx2y2           0.0       0.0       0.1       0.0       0.0       0.0
 1 C  s               2.5       1.1      13.9       1.3       0.3       0.2
 1 C  pz              0.4       0.1       0.9       0.6       9.0       0.0
 1 C  px              0.6       0.0       3.6       0.7       1.7       6.5
 1 C  py              7.5       4.3       2.4       0.0       0.1       0.2
 1 C  dxy             0.1       0.0       0.0       0.0       0.0       0.0
 2 C  s              12.0       4.1       2.2       1.1       2.1       0.2
 2 C  pz              0.1       0.1       1.4       0.3      12.6       1.6
 2 C  px              1.7       2.0       6.5       0.2       8.2       0.0
 2 C  py              0.8       0.2       1.1       0.5       1.2       2.0
 2 C  dxz             0.0       0.0       0.1       0.0       0.1       0.0
 2 C  dx2y2           0.0       0.0       0.0       0.0       0.2       0.0
 3 C  s               2.9       1.4       0.9       1.7       2.3       0.1
 3 C  pz              2.4       1.4       0.7       1.4       0.0       2.5
 3 C  px              5.0       1.8       3.7       2.3       9.2       0.4
 3 C  py              0.0       1.1       0.6       0.2       0.9       8.0
 3 C  dz2             0.0       0.0       0.0       0.0       0.0       0.2
 3 C  dxz             0.0       0.1       0.1       0.0       0.0       0.1
 4 O  s               0.8       0.2       0.1       1.1       0.8       1.9
 4 O  pz              0.2       0.1       0.1       1.0       0.3       0.4
 4 O  px              0.2       0.1       0.3       0.8       5.7       0.1
 4 O  py              0.0       0.1       0.1       0.1       0.3       5.2
 5 O  s               0.9       0.1       0.7       3.8       0.2       1.4
 5 O  pz              0.0       1.3       0.4       5.7       3.0      13.9
 5 O  px              2.7      16.5       0.2       7.4       0.4       1.2
 5 O  py              0.0       0.5       0.1       7.1       2.2       6.5
 5 O  dxz             0.0       0.1       0.0       0.0       0.0       0.0
 6 C  s               0.3       4.5       3.5       5.9       0.2       0.2
 6 C  pz              1.0       4.1       0.4       4.3       6.2      10.0
 6 C  px              1.4       0.8       1.5      11.9       1.3       5.6
 6 C  py              1.6       3.9       0.9       6.0       2.1       0.1
 6 C  dxz             0.0       0.0       0.0       0.2       0.0       0.0
 6 C  dx2y2           0.1       0.2       0.0       0.2       0.0       0.0
 7 C  s               8.5      13.7       1.4       1.2       0.0       0.2
 7 C  pz              0.0       0.8       0.5       0.0       2.7       0.6
 7 C  px              0.1       0.1       0.1       1.3       0.2       7.1
 7 C  py              0.0       1.4       1.3       6.2       0.0       3.5
 8 H  s               4.9       2.0       3.1       0.1       0.1       0.8
 9 H  s               4.2       1.8       4.2       0.4       1.5       0.0
10 H  s               4.1       2.2       4.1       0.4       0.2       1.2
11 H  s               0.6       0.4       6.4       0.8       3.3       0.0
12 H  s               0.7       0.4       7.5       0.8       0.9       2.4
13 H  s               3.4       2.0       0.8       1.1       3.7       0.2
14 H  s               2.9       0.7       1.5       0.8       6.3       0.2
15 H  s               0.1       2.4       2.6       2.5       3.2       5.1
16 H  s               0.1       1.1       1.7      12.3       1.3       0.5
17 H  s               2.4       4.8       0.5       0.1       0.0       3.3
18 H  s               1.9       4.6       0.9       0.8       1.0       0.9
19 H  s               2.0       4.1       0.8       3.1       0.2       0.9

                     18        19        20        21        22        23   
                  -0.42491  -0.39602  -0.38858  -0.37564  -0.36243  -0.35171
                   2.00000   2.00000   2.00000   2.00000   2.00000   2.00000
                  --------  --------  --------  --------  --------  --------
 0 C  s               0.3       0.0       0.0       0.0       0.0       0.0
 0 C  pz              4.0       1.7       8.3       1.7       7.1      14.9
 0 C  px              0.5       5.6       0.9      14.7       0.0       2.6
 0 C  py              2.5       1.3       3.7       0.5       4.0       0.2
 0 C  dz2             0.0       0.0       0.0       0.0       0.1       0.1
 1 C  s               0.0       0.0       0.2       0.0       0.1       0.0
 1 C  pz              7.4       2.1       6.3       0.6       1.3       0.6
 1 C  px              0.4       7.3       2.0       5.1       0.2       0.0
 1 C  py              0.5       0.0       0.7       4.5       5.2       2.7
 2 C  s               0.0       0.0       0.1       0.2       0.0       0.3
 2 C  pz              5.4       0.0       0.6       0.0       7.2      10.2
 2 C  px              0.2       0.2       0.0      10.8       2.5       0.1
 2 C  py             15.8       2.0       6.6       0.8       1.3       0.7
 2 C  dz2             0.1       0.0       0.0       0.0       0.1       0.3
 2 C  dxz             0.0       0.0       0.0       0.2       0.0       0.0
 2 C  dx2y2           0.0       0.0       0.0       0.2       0.0       0.0
 2 C  dxy             0.0       0.0       0.2       0.0       0.0       0.0
 3 C  s               0.5       2.0       1.0       0.5       0.0       0.1
 3 C  pz              0.1       1.3       1.7       0.4       0.9       3.2
 3 C  px              0.1       0.6       0.0       8.1       0.4       0.2
 3 C  py              8.5       0.0       1.5       0.6       1.8       1.4
 3 C  dz2             0.2       0.0       0.0       0.0       0.0       0.1
 3 C  dxz             0.0       0.0       0.0       0.0       0.1       0.1
 3 C  dxy             0.0       0.1       0.2       0.0       0.1       0.0
 4 O  s               3.9       5.2       5.4       0.1       0.0       1.5
 4 O  pz              6.3      13.7      15.2       0.3       0.2       5.0
 4 O  px              0.5       0.4       0.7       2.7       1.6       0.1
 4 O  py              0.8       1.8       0.2       0.7       1.3       5.3
 4 O  dz2             0.1       0.1       0.1       0.0       0.0       0.0
 5 O  s               0.1       1.1       0.1       0.2       1.8       0.0
 5 O  pz              0.7       6.1       0.0       3.4       0.6       0.0
 5 O  px              4.7       0.2       5.0       0.3       0.4       1.3
 5 O  py              5.3       2.2       6.3       1.1       3.5       1.3
 6 C  s               0.2       0.2       0.3       0.1       0.1       0.1
 6 C  pz              1.2       0.9       1.8       2.8       0.3       0.1
 6 C  px              3.0       0.0       0.4       1.2       0.5       0.2
 6 C  py              2.5       8.8       4.7       0.0       0.1       0.0
 6 C  dxz             0.1       0.1       0.0       0.1       0.1       0.1
 6 C  dx2y2           0.0       0.0       0.0       0.0       0.1       0.1
 7 C  s               0.2       0.1       0.2       0.0       0.0       0.0
 7 C  pz              3.0      12.8       1.5       5.9       3.9       1.7
 7 C  px              0.2       1.3       1.4       3.4      16.8      12.2
 7 C  py              0.6       0.1       5.9       3.7       4.7       0.5
 7 C  dx2y2           0.0       0.1       0.1       0.0       0.2       0.2
 8 H  s               2.7       1.2       4.7       0.9       0.0       3.7
 9 H  s               0.4       1.0       1.8       0.3       5.0       7.9
10 H  s               0.3       2.0       0.4       8.0       0.1       0.0
11 H  s               2.2       1.1       2.5       0.6       0.3       0.0
12 H  s               0.1       3.6       0.0       2.2       0.5       0.2
13 H  s               5.4       0.7       3.8       2.9       1.4       0.3
14 H  s               4.4       0.1       0.1       0.0       4.6       7.6
15 H  s               2.4       0.7       0.0       1.7       0.1       0.0
16 H  s               0.2       2.8       0.0       0.5       0.1       0.5
17 H  s               0.1       2.3       2.0       1.0       9.7       7.7
18 H  s               1.3       3.2       0.2       3.9       0.2       0.4
19 H  s               0.0       1.3       0.6       2.5       8.6       3.3

                     24        25        26        27        28        29   
                  -0.33870  -0.33007  -0.30608  -0.29905  -0.29759  -0.28730
                   2.00000   2.00000   2.00000   2.00000   2.00000   2.00000
                  --------  --------  --------  --------  --------  --------
 0 C  s               0.1       0.0       0.3       0.2       0.0       0.1
 0 C  pz              0.3       0.2       0.2       6.9       7.9       0.0
 0 C  px              0.9      11.2       8.2       1.7       1.6       2.4
 0 C  py              6.5       0.4       8.4       7.6       5.8       1.3
 0 C  dz2             0.0       0.0       0.0       0.3       0.1       0.0
 0 C  dxz             0.0       0.1       0.0       0.1       0.0       0.0
 0 C  dyz             0.0       0.0       0.0       0.1       0.4       0.0
 0 C  dx2y2           0.0       0.1       0.3       0.0       0.0       0.1
 0 C  dxy             0.0       0.1       0.0       0.1       0.2       0.0
 1 C  s               0.2       0.1       0.1       0.0       0.1       0.0
 1 C  pz              0.1       0.0       0.0      14.3      10.5       0.0
 1 C  px              1.4       1.2       9.9       2.6       3.6       4.8
 1 C  py              3.5       0.0       6.8       6.9       6.4       0.6
 1 C  dz2             0.0       0.0       0.0       0.8       0.1       0.0
 1 C  dxz             0.0       0.0       0.0       0.1       0.0       0.0
 1 C  dyz             0.0       0.0       0.0       0.1       0.3       0.0
 1 C  dx2y2           0.0       0.0       0.6       0.0       0.0       0.3
 1 C  dxy             0.0       0.1       0.0       0.1       0.2       0.0
 2 C  s               0.0       0.5       0.2       0.0       0.5       0.1
 2 C  pz              0.0       1.9       1.6       2.0       5.7       0.1
 2 C  px              0.5       0.6       1.5       0.0       4.0       5.5
 2 C  py              0.1       0.6       2.6       4.3      11.7       0.5
 2 C  dz2             0.0       0.0       0.1       0.5       0.0       0.0
 2 C  dxz             0.0       0.0       0.0       0.1       0.0       0.0
 2 C  dx2y2           0.0       0.0       0.3       0.0       0.1       0.2
 2 C  dxy             0.1       0.0       0.0       0.0       0.2       0.0
 3 C  s               0.1       0.0       0.0       0.1       0.0       0.9
 3 C  pz              1.1       1.2       0.4       0.1       0.2       3.7
 3 C  px              0.1       1.4       1.7       1.0       0.1       0.6
 3 C  py              8.7       2.3       0.2       0.4       1.2       0.2
 3 C  dz2             0.1       0.2       0.1       0.0       0.0       0.5
 3 C  dyz             0.1       0.1       0.0       0.0       0.1       0.1
 3 C  dx2y2           0.0       0.2       0.0       0.0       0.0       0.2
 3 C  dxy             0.0       0.0       0.0       0.1       0.2       0.0
 4 O  s               0.1       1.1       0.1       0.1       0.0       0.8
 4 O  pz              0.3       9.4       0.6       1.3       0.4       5.4
 4 O  px              0.3       0.0       2.0       0.6       0.2       0.3
 4 O  py             13.2       0.3       0.2       0.0       4.9       0.9
 5 O  s               0.0       0.3       0.2       0.1       0.0       3.5
 5 O  pz              0.2       7.3       2.4       0.1       0.6      21.8
 5 O  px              0.7       1.7       0.1       0.1       0.0       5.4
 5 O  py              0.1       0.0       0.4       1.3       2.4       2.4
 6 C  s               0.1       0.0       0.0       0.0       0.0       0.2
 6 C  pz              6.1       0.9       5.7       0.1       0.0       7.1
 6 C  px              1.7       1.8       0.5       0.0       0.0       2.0
 6 C  py              9.7       4.0       1.5       1.3       1.8       1.6
 6 C  dz2             0.1       0.2       0.1       0.0       0.0       0.0
 6 C  dxz             0.2       0.0       0.3       0.0       0.0       0.2
 6 C  dyz             0.1       0.2       0.1       0.0       0.1       0.1
 6 C  dx2y2           0.0       0.0       0.1       0.0       0.0       0.3
 6 C  dxy             0.1       0.0       0.0       0.0       0.0       0.1
 7 C  s               0.1       0.0       0.0       0.1       0.1       0.0
 7 C  pz              7.2       6.2       3.6       0.0       0.0       2.1
 7 C  px              5.3       4.8       0.5       0.1       0.4       0.7
 7 C  py              8.3       8.4       0.7       1.0       1.7       0.2
 7 C  dz2             0.1       0.1       0.1       0.0       0.0       0.0
 7 C  dxz             0.2       0.2       0.1       0.0       0.0       0.0
 7 C  dyz             0.1       0.1       0.1       0.0       0.0       0.1
 7 C  dx2y2           0.0       0.0       0.0       0.0       0.0       0.2
 8 H  s               3.0       3.6       0.1       0.7       9.7       0.2
 9 H  s               0.0       0.1       0.1       8.3       4.3       0.0
10 H  s               0.1       6.0       6.6       3.9       0.0       1.8
11 H  s               0.0       0.0       0.4      15.3       4.8       0.0
12 H  s               0.9       1.1       8.3       5.1       0.0       4.2
13 H  s               0.0       0.1       4.5       3.1       3.9       1.6
14 H  s               0.0       0.4       2.0       5.0       1.2       0.2
15 H  s               6.2       1.9       5.1       0.0       0.0       2.6
16 H  s               0.9       2.0       4.0       0.9       0.6       7.4
17 H  s               1.2       2.0       0.1       0.1       0.4       1.0
18 H  s               8.0       7.2       3.4       0.1       0.1       0.8
19 H  s               1.1       5.4       2.2       0.4       0.3       2.7

                     30        31        32        33        34        35   
                  -0.25546  -0.21679  -0.02052   0.03651   0.05753   0.07006
                   2.00000   2.00000   0.00000   0.00000   0.00000   0.00000
                  --------  --------  --------  --------  --------  --------
 0 C  s               0.0       0.0       0.2       8.5       1.5       4.7
 0 C  pz              0.0       0.0       0.0       0.0       0.4       0.3
 0 C  px              0.0       0.0       0.1       0.7       1.5       0.9
 0 C  py              0.1       0.0       0.2       1.4       1.0       0.4
 0 C  dxy             0.0       0.0       0.0       0.1       0.3       0.1
 1 C  s               0.0       0.0       2.1       2.4       4.1       0.0
 1 C  pz              0.1       0.0       1.2       0.4       0.2       0.1
 1 C  px              0.1       0.3       0.5       1.1       3.7       0.4
 1 C  py              0.1       0.0       0.7       0.2       0.1       0.5
 1 C  dxy             0.0       0.0       0.0       0.0       0.1       0.2
 2 C  s               0.0       0.6       0.1       1.9       4.3       3.0
 2 C  pz              0.0       2.2       0.1       0.7       0.8       0.2
 2 C  px              0.0       4.6       0.2       0.0       0.2       0.1
 2 C  py              0.3       0.0       0.4       0.2       0.9       0.5
 2 C  dxz             0.0       0.0       0.2       0.0       0.0       0.0
 2 C  dx2y2           0.0       0.0       0.2       0.0       0.1       0.0
 2 C  dxy             0.0       0.0       1.7       0.0       0.0       0.0
 3 C  s               0.0       0.4       0.0       1.1       0.0       0.1
 3 C  pz              0.1       0.6       5.2       0.8       0.4       0.0
 3 C  px              0.1       0.9       1.6       0.3       0.3       0.3
 3 C  py              0.5       0.1      38.6       0.6       1.8       0.3
 3 C  dz2             0.8       0.1       0.2       0.2       0.0       0.0
 3 C  dxz             0.3       3.4       0.0       0.1       0.0       0.0
 3 C  dyz             1.1       0.5       0.4       0.2       0.0       0.0
 3 C  dx2y2           0.3       0.2       0.0       0.0       0.0       0.0
 3 C  dxy             0.0       0.3       0.5       0.0       0.0       0.0
 4 O  s               0.0       0.0       0.0       0.8       0.0       0.0
 4 O  pz              4.9       0.9       2.7       0.1       0.2       0.1
 4 O  px              3.8      64.4       1.3       0.0       0.2       0.3
 4 O  py             28.4       6.9      20.3       0.0       1.3       0.2
 4 O  dz2             0.0       0.0       0.2       0.0       0.0       0.0
 4 O  dyz             0.0       0.0       0.3       0.0       0.0       0.0
 5 O  s               0.0       0.3       0.0       0.2       0.2       1.7
 5 O  pz              4.4       7.1       1.2       0.0       0.0       0.1
 5 O  px              1.5       0.8       0.5       0.2       0.3       1.1
 5 O  py             37.3       0.4       8.6       0.1       1.0       0.0
 5 O  dx2y2           0.0       0.0       0.1       0.1       0.0       0.0
 5 O  dxy             0.0       0.0       0.2       0.0       0.0       0.0
 6 C  s               0.0       0.1       0.0       2.9       3.4       4.3
 6 C  pz              0.9       0.0       0.0       0.2       0.8       1.0
 6 C  px              0.2       0.8       0.0       0.5       0.5      12.7
 6 C  py              2.6       0.2       0.2       0.4       0.2       0.3
 6 C  dz2             0.0       0.0       0.0       0.0       0.0       0.3
 6 C  dxz             0.1       0.0       0.0       0.0       0.0       0.5
 6 C  dyz             0.3       0.0       0.2       0.1       0.0       0.0
 6 C  dx2y2           0.1       0.0       0.1       0.0       0.1       0.5
 6 C  dxy             0.4       0.0       0.2       0.0       0.0       0.1
 7 C  s               0.5       0.0       0.7       8.6       6.3       0.8
 7 C  pz              2.6       0.1       0.1       0.5       0.1       0.1
 7 C  px              0.2       0.2       0.0       0.1       0.5       3.0
 7 C  py              3.6       0.0       0.3       1.8       1.8       0.2
 7 C  dxz             0.0       0.0       0.0       0.0       0.0       0.2
 7 C  dyz             0.0       0.0       0.0       0.1       0.1       0.1
 7 C  dx2y2           0.0       0.0       0.0       0.1       0.0       0.2
 7 C  dxy             0.0       0.0       0.0       0.0       0.0       0.3
 8 H  s               0.1       0.0       0.1       4.8       5.4       2.2
 9 H  s               0.0       0.0       0.1       6.1       3.3       1.2
10 H  s               0.0       0.0       0.1       9.8       1.0       9.1
11 H  s               0.1       0.3       0.1       2.9       3.4       0.4
12 H  s               0.1       0.4       1.6       3.6      11.9       0.9
13 H  s               0.1       0.1       4.4       1.9       7.5       5.4
14 H  s               0.0       1.3       0.1       4.1       4.2       2.4
15 H  s               1.1       0.1       0.1       4.1       6.4      22.2
16 H  s               1.6       0.3       0.3       2.5       1.4       4.9
17 H  s               0.6       0.1       0.3       7.2       7.7       2.8
18 H  s               0.2       0.1       0.3       7.0       2.0       6.3
19 H  s               0.1       0.0       0.1       7.9       6.3       1.5

                     36        37        38        39        40        41   
                   0.07966   0.09352   0.09762   0.09898   0.10940   0.11614
                   0.00000   0.00000   0.00000   0.00000   0.00000   0.00000
                  --------  --------  --------  --------  --------  --------
 0 C  s               0.6       0.8       0.9       6.6       0.0       2.5
 0 C  pz              6.2       2.0       0.0       0.2       0.1       0.2
 0 C  px              0.1       3.1       1.2       0.4       2.3       3.9
 0 C  py              0.2       0.5       0.0       1.4       0.1       0.7
 0 C  dz2             0.1       0.1       0.0       0.0       0.0       0.1
 0 C  dxz             0.0       0.1       0.0       0.0       0.1       0.3
 0 C  dyz             0.2       0.1       0.0       0.0       0.1       0.0
 0 C  dx2y2           0.0       0.0       0.0       0.0       0.0       0.4
 0 C  dxy             0.0       0.0       0.1       0.0       0.2       0.0
 1 C  s               0.8       0.7       3.8       0.0       0.0       8.5
 1 C  pz              3.3       0.6       0.2       0.1       3.1       2.5
 1 C  px              0.0       0.5       1.6       0.5       2.4       0.1
 1 C  py              0.1       0.4       0.3       0.4       0.0       0.1
 1 C  dz2             0.3       0.1       0.0       0.1       0.1       0.0
 1 C  dxz             0.2       0.2       0.0       0.0       0.0       0.1
 1 C  dyz             0.2       0.0       0.0       0.2       0.1       0.0
 1 C  dx2y2           0.0       0.2       0.1       0.0       0.1       0.5
 1 C  dxy             0.1       0.0       0.0       0.1       0.1       0.1
 2 C  s               0.0       2.5       2.0       3.6       0.5       0.5
 2 C  pz              6.3       1.5       0.0       0.3       0.3       0.9
 2 C  px              0.1       0.4       0.3       2.0       0.0       0.9
 2 C  py              2.8       0.4       0.2       3.6       0.1       1.8
 2 C  dz2             0.7       0.2       0.2       0.0       0.0       0.1
 2 C  dxz             0.0       0.0       0.1       0.1       0.0       0.1
 2 C  dyz             0.0       0.0       0.0       0.0       0.1       0.2
 2 C  dx2y2           0.0       0.2       0.0       0.1       0.0       0.2
 3 C  s               1.1       1.0       0.3       0.4       0.4       0.0
 3 C  pz              0.4       0.4       1.1       0.0       0.6       0.6
 3 C  px              0.3       0.2       0.6       0.0       0.3       0.3
 3 C  py              0.1       0.3       0.3       0.2       0.4       0.4
 3 C  dz2             0.1       0.1       0.2       0.0       0.2       0.0
 3 C  dxz             0.1       0.2       0.1       0.0       0.0       0.0
 3 C  dx2y2           0.5       0.1       0.5       0.1       0.0       0.0
 3 C  dxy             0.3       0.0       0.1       0.0       0.0       0.1
 4 O  s               0.3       0.5       0.1       0.0       0.6       0.1
 4 O  px              0.3       0.0       0.1       0.2       0.0       1.1
 4 O  py              0.0       0.1       0.0       0.1       0.0       0.2
 5 O  s               0.6       0.2       6.3       0.7       0.1       0.1
 5 O  pz              0.7       0.0       1.4       0.3       0.1       0.2
 5 O  px              0.0       0.0       3.8       1.0       0.3       0.9
 5 O  py              0.0       0.0       0.0       0.0       0.3       0.0
 5 O  dxz             0.1       0.0       0.1       0.0       0.0       0.1
 5 O  dx2y2           0.0       0.0       0.4       0.0       0.0       0.0
 6 C  s               0.0       0.0       9.4       1.3       2.8       1.6
 6 C  pz              2.8       7.0       0.7       1.3       0.6       2.0
 6 C  px              0.4       0.1      12.0       4.5       0.7       0.5
 6 C  py              0.5       1.5       2.8       0.5       0.0       1.5
 6 C  dz2             0.0       0.3       0.5       0.0       0.0       0.0
 6 C  dxz             0.0       0.1       0.6       0.1       0.0       0.4
 6 C  dyz             0.1       0.2       0.1       0.0       0.0       0.0
 6 C  dx2y2           0.4       0.4       1.2       1.1       0.0       0.0
 6 C  dxy             0.0       0.0       0.1       0.1       0.3       0.0
 7 C  s               0.1       0.0       0.1       5.1       3.8       0.0
 7 C  pz              1.8       4.8       0.4       1.1       0.3       0.7
 7 C  px              0.2       0.0       0.8       1.4      11.8       1.1
 7 C  py              0.2       1.0       0.4       0.9       0.3       0.8
 7 C  dz2             0.1       0.2       0.2       0.0       0.1       0.3
 7 C  dxz             0.0       0.0       0.4       0.0       0.1       0.0
 7 C  dyz             0.1       0.2       0.0       0.0       0.3       0.1
 7 C  dx2y2           0.2       0.3       0.0       0.6       0.1       0.0
 7 C  dxy             0.0       0.0       0.3       0.1       0.0       0.1
 8 H  s               0.9      13.2       0.0       9.5       1.7      10.2
 9 H  s              15.9       1.2       0.6       5.7       0.2       1.4
10 H  s               0.6       0.5       3.6       1.2       3.6       1.3
11 H  s              11.2       3.5       1.0       0.1       4.9      17.8
12 H  s               0.3       0.7      12.5       1.4       8.9       2.9
13 H  s               7.2       0.4       3.4      17.0       0.7       8.3
14 H  s              15.7       9.5       1.0       1.5       1.4       1.5
15 H  s               3.2      11.6       1.5       1.0       6.9       1.1
16 H  s               4.5      10.2      12.2       5.3       0.6      10.5
17 H  s               1.5       0.6       3.4       1.1      35.3       3.2
18 H  s               2.3       6.9       1.7       1.8       0.8       0.3
19 H  s               2.5       7.6       1.8      13.4       0.2       3.3

                     42        43        44        45        46        47   
                   0.12519   0.13232   0.13853   0.14700   0.18382   0.18742
                   0.00000   0.00000   0.00000   0.00000   0.00000   0.00000
                  --------  --------  --------  --------  --------  --------
 0 C  s               0.3       0.0       2.1       0.2       1.5       0.5
 0 C  pz              3.9       4.5       4.3       3.3       0.4       1.5
 0 C  px              0.6       0.3       2.8       5.1       0.4       1.9
 0 C  py              0.2       0.0       3.0       0.5      12.2       1.6
 0 C  dz2             0.2       0.3       0.0       0.4       0.6       0.3
 0 C  dxz             0.1       0.0       0.2       0.4       0.2       0.0
 0 C  dyz             0.2       0.1       0.4       0.0       0.0       0.0
 0 C  dx2y2           0.0       0.0       0.4       0.0       2.6       0.1
 0 C  dxy             0.0       0.3       0.1       0.0       0.2       0.6
 1 C  s               2.2       0.6       0.7       0.2       6.0       0.6
 1 C  pz              0.2       5.1       0.4       0.3       5.8       2.1
 1 C  px              1.1       6.2       0.9       2.1       8.9       3.6
 1 C  py              0.2       0.6       1.2       0.0       3.3       3.9
 1 C  dz2             0.0       0.2       0.2       0.0       1.3       0.1
 1 C  dxz             0.0       0.2       0.0       0.3       2.0       0.8
 1 C  dyz             0.5       0.1       0.4       0.2       0.1       0.0
 1 C  dx2y2           0.0       0.1       0.3       0.0       0.8       0.2
 1 C  dxy             0.0       0.0       0.1       0.1       0.0       1.8
 2 C  s               1.3       0.0       0.4       0.4       2.3       2.7
 2 C  pz              2.4       0.8       3.5       0.1       3.0       6.4
 2 C  px              3.2       0.3       0.3       0.1       0.5       0.3
 2 C  py              0.0       1.9       5.4       1.3       5.5       4.7
 2 C  dz2             0.1       0.2       0.2       0.1       0.0       0.2
 2 C  dxz             0.3       0.1       0.0       0.0       0.0       0.1
 2 C  dyz             0.1       0.7       0.2       0.2       1.4       1.0
 2 C  dx2y2           0.3       0.0       0.0       0.0       0.0       1.1
 2 C  dxy             0.1       0.0       0.0       0.1       1.0       0.4
 3 C  s               1.6       1.0       0.2       1.7       0.4       9.8
 3 C  pz              1.0       0.0       0.1       0.0       1.1       0.1
[...]
 2 C  py              0.9       0.1       0.0       0.1       0.0       0.0
 2 C  dz2             0.0       0.0       0.1       0.7       1.0       0.6
 2 C  dxz             4.6       1.4       0.1       2.3       0.9       0.0
 2 C  dyz             2.8       1.2       0.0       0.5       0.1       0.0
 2 C  dx2y2           0.4       1.6       0.0       0.0       0.1       0.6
 2 C  dxy             8.1       1.1       0.4       0.3       0.3       0.3
 3 C  s               0.8       0.2       0.0       0.1       0.1       1.0
 3 C  pz              0.0       0.2       0.0       0.4       0.0       1.8
 3 C  px              0.4       0.5       0.0       0.4       0.0       1.1
 3 C  py              0.1       0.0       0.0       0.1       1.0       0.4
 3 C  dz2             0.0       0.1       0.1       4.1       0.9       0.0
 3 C  dxz             0.2       0.2       0.4       0.8       3.4       3.9
 3 C  dyz             0.2       0.8       0.1       0.1       0.0       0.7
 3 C  dx2y2           0.3       2.0       0.7       1.3       4.2       1.3
 3 C  dxy             0.1       0.2       1.1       6.7       4.2       0.0
 4 O  s               0.0       0.0       0.0       1.2       0.2       0.3
 4 O  pz              0.0       0.0       0.0       0.3       0.2       0.2
 4 O  px              0.0       0.0       0.0       0.4       0.0       0.6
 4 O  py              0.0       0.0       0.0       0.1       0.2       0.0
 4 O  dz2             0.0       1.2       1.0       1.5       5.1       0.3
 4 O  dxz             0.9       0.5       0.1      11.9       0.0      22.0
 4 O  dyz             0.8       7.7       2.1       2.7       6.1       0.0
 4 O  dx2y2           0.2      45.0       0.1       2.0      11.0       0.5
 4 O  dxy            29.0      15.2       5.3       0.8       1.6       3.2
 5 O  s               0.0       0.1       0.0       0.4       0.1       7.7
 5 O  pz              0.1       0.4       0.1       0.9       0.1       0.9
 5 O  px              0.0       0.0       0.1       1.3       0.7       0.1
 5 O  py              0.1       0.1       1.0       0.1       0.3       0.1
 5 O  dz2             1.1       4.6      10.2      27.3       0.4       0.0
 5 O  dxz             0.4       0.8       0.1       6.6      15.8       2.5
 5 O  dyz             3.0       2.9      25.4       1.2      19.2       7.2
 5 O  dx2y2           0.3       0.8       0.3      13.0       4.8      30.0
 5 O  dxy             0.0       0.0      29.6       3.2      13.2       6.7
 6 C  s               0.1       0.3       0.2       0.4       0.1       0.5
 6 C  pz              0.1       0.2       0.0       0.0       0.0       0.1
 6 C  px              0.0       0.2       0.2       0.5       0.3       0.6
 6 C  py              0.0       0.0       0.2       0.1       0.0       0.0
 6 C  dz2             0.1       0.0       0.1       0.7       0.9       0.0
 6 C  dxz             0.4       0.9       1.4       0.4       0.1       1.9
 6 C  dyz             0.0       0.1       1.6       0.0       0.9       0.0
 6 C  dx2y2           0.2       0.7       2.0       2.4       0.7       1.5
 6 C  dxy             0.2       0.3      10.5       1.5       0.2       0.1
 7 C  s               0.1       0.1       0.1       0.0       0.0       0.0
 7 C  px              0.0       0.0       0.1       0.0       0.0       0.0
 7 C  py              0.0       0.1       0.2       0.0       0.0       0.0
 7 C  dxz             0.0       0.1       0.6       0.2       0.0       0.0
 7 C  dyz             0.1       0.1       0.9       0.0       0.0       0.1
 7 C  dx2y2           0.1       0.1       2.0       0.0       0.3       0.0
 7 C  dxy             0.0       0.1       0.8       0.1       0.0       0.1
 8 H  s               0.2       0.0       0.0       0.0       0.0       0.0
13 H  s               0.2       0.0       0.0       0.0       0.0       0.0
15 H  s               0.1       0.1       0.0       0.0       0.0       0.0
16 H  s               0.0       0.1       0.0       0.1       0.0       0.0
17 H  s               0.0       0.0       0.2       0.0       0.0       0.0

                    132       133       134       135   
                   3.12316   3.32228   3.48552   3.55866
                   0.00000   0.00000   0.00000   0.00000
                  --------  --------  --------  --------
 2 C  s               0.0       0.2       0.1       0.0
 2 C  px              0.0       0.1       0.3       0.1
 2 C  dz2             0.0       0.0       0.7       0.0
 2 C  dxz             0.2       0.7       0.0       0.4
 2 C  dx2y2           0.3       0.0       1.0       0.0
 2 C  dxy             0.5       0.0       0.1       0.0
 3 C  s               0.0       3.6       0.1       6.3
 3 C  pz              0.0       0.1       2.8       3.5
 3 C  px              0.0       1.5       0.4       0.5
 3 C  py              0.5       0.1       0.6       0.3
 3 C  dz2             6.1       2.8       0.1       8.3
 3 C  dxz             0.3       0.3      16.6       0.4
 3 C  dyz            11.0       0.3       1.4       3.4
 3 C  dx2y2           2.6       3.2       0.2       0.7
 3 C  dxy             0.1       0.3       2.2       0.0
 4 O  s               0.0       1.7       0.9       4.3
 4 O  pz              0.2       0.6       0.7       2.6
 4 O  px              0.0       0.1       0.3       0.6
 4 O  py              0.8       0.1       0.2       0.2
 4 O  dz2            17.3      10.0      11.3      25.4
 4 O  dxz             0.0       1.9       7.8      18.3
 4 O  dyz            33.6       6.4       6.7       8.0
 4 O  dx2y2           2.5       0.3       2.3       0.1
 4 O  dxy             4.3       0.3       0.4       1.7
 5 O  s               0.3       0.1       0.7       0.4
 5 O  pz              0.0       0.3       0.4       0.1
 5 O  px              0.0       2.1       2.8       0.1
 5 O  py              0.1       0.3       0.4       0.0
 5 O  dz2             0.3      17.2       0.0       4.3
 5 O  dxz             1.5      15.6      27.2       1.0
 5 O  dyz             0.9       5.8       3.4       0.0
 5 O  dx2y2           1.4      14.7       0.4       5.8
 5 O  dxy            13.3       0.1       5.3       2.0
 6 C  s               0.0       0.8       0.3       0.0
 6 C  pz              0.0       0.3       0.0       0.0
 6 C  px              0.0       1.5       0.4       0.1
 6 C  dz2             0.1       0.6       0.5       0.0
 6 C  dxz             0.0       2.0       0.0       0.6
 6 C  dyz             0.4       0.0       0.0       0.0
 6 C  dx2y2           0.1       3.3       0.4       0.2
 6 C  dxy             0.8       0.1       0.1       0.0


                      *****************************
                      * MAYER POPULATION ANALYSIS *
                      *****************************

  NA   - Mulliken gross atomic population
  ZA   - Total nuclear charge
  QA   - Mulliken gross atomic charge
  VA   - Mayer's total valence
  BVA  - Mayer's bonded valence
  FA   - Mayer's free valence

  ATOM       NA         ZA         QA         VA         BVA        FA
  0 C      6.2921     6.0000    -0.2921     4.0114     4.0114    -0.0000
  1 C      6.2078     6.0000    -0.2078     4.1747     4.1747     0.0000
  2 C      6.1120     6.0000    -0.1120     3.9353     3.9353     0.0000
  3 C      5.9124     6.0000     0.0876     4.4082     4.4082    -0.0000
  4 O      8.2130     8.0000    -0.2130     2.2775     2.2775    -0.0000
  5 O      8.2348     8.0000    -0.2348     2.2706     2.2706     0.0000
  6 C      6.0140     6.0000    -0.0140     4.0593     4.0593     0.0000
  7 C      6.3104     6.0000    -0.3104     4.0122     4.0122     0.0000
  8 H      0.8922     1.0000     0.1078     0.9500     0.9500    -0.0000
  9 H      0.8997     1.0000     0.1003     0.9567     0.9567    -0.0000
 10 H      0.8818     1.0000     0.1182     0.9602     0.9602    -0.0000
 11 H      0.8920     1.0000     0.1080     0.9580     0.9580     0.0000
 12 H      0.9062     1.0000     0.0938     0.9414     0.9414    -0.0000
 13 H      0.8897     1.0000     0.1103     0.9549     0.9549     0.0000
 14 H      0.9079     1.0000     0.0921     0.9735     0.9735    -0.0000
 15 H      0.8986     1.0000     0.1014     0.9504     0.9504    -0.0000
 16 H      0.8931     1.0000     0.1069     0.9762     0.9762     0.0000
 17 H      0.8879     1.0000     0.1121     0.9542     0.9542     0.0000
 18 H      0.8694     1.0000     0.1306     0.9682     0.9682     0.0000
 19 H      0.8851     1.0000     0.1149     0.9563     0.9563     0.0000

  Mayer bond orders larger than 0.100000
B(  0-C ,  1-C ) :   1.1533 B(  0-C ,  8-H ) :   0.9510 B(  0-C ,  9-H ) :   0.9536 
B(  0-C , 10-H ) :   0.9470 B(  1-C ,  2-C ) :   1.1130 B(  1-C , 11-H ) :   0.9218 
B(  1-C , 12-H ) :   0.9289 B(  2-C ,  3-C ) :   1.0208 B(  2-C , 13-H ) :   0.8946 
B(  2-C , 14-H ) :   0.9093 B(  3-C ,  4-O ) :   2.0358 B(  3-C ,  5-O ) :   1.2142 
B(  5-O ,  6-C ) :   0.9241 B(  6-C ,  7-C ) :   1.1740 B(  6-C , 15-H ) :   0.9374 
B(  6-C , 16-H ) :   0.9145 B(  7-C , 17-H ) :   0.9435 B(  7-C , 18-H ) :   0.9429 
B(  7-C , 19-H ) :   0.9473 

-------
TIMINGS
-------

Total SCF time: 0 days 0 hours 0 min 8 sec 

Total time                  ....       8.404 sec
Sum of individual times     ....       7.918 sec  ( 94.2%)

SCF preparation             ....       0.164 sec  (  2.0%)
Fock matrix formation       ....       6.943 sec  ( 82.6%)
  Startup                   ....       0.057 sec  (  0.8% of F)
  Split-RI-J                ....       2.392 sec  ( 34.4% of F)
  XC integration            ....       3.994 sec  ( 57.5% of F)
    XC Preparation          ....       0.000 sec  (  0.0% of XC)
    Basis function eval.    ....       1.380 sec  ( 34.5% of XC)
    Density eval.           ....       0.478 sec  ( 12.0% of XC)
    XC-Functional eval.     ....       0.352 sec  (  8.8% of XC)
    XC-Potential eval.      ....       0.749 sec  ( 18.7% of XC)
Diagonalization             ....       0.000 sec  (  0.0%)
Density matrix formation    ....       0.176 sec  (  2.1%)
Total Energy calculation    ....       0.038 sec  (  0.5%)
Population analysis         ....       0.075 sec  (  0.9%)
Orbital Transformation      ....       0.049 sec  (  0.6%)
Orbital Orthonormalization  ....       0.000 sec  (  0.0%)
DIIS solution               ....       0.319 sec  (  3.8%)
  MO trafo                  ....       0.000 sec  (  0.0 % of DIIS)
  Orb grad                  ....       0.000 sec  (  0.0 % of DIIS)
  Energy W gradient         ....       0.000 sec  (  0.0 % of DIIS)
  DIIS error                ....       0.005 sec  (  1.6 % of DIIS)
  DIIS work                 ....       0.270 sec  ( 84.7 % of DIIS)
  Form Q                    ....       0.000 sec  (  0.0 % of DIIS)
  Form QpQm                 ....       0.000 sec  (  0.0 % of DIIS)
  Exp/Cayley                ....       0.000 sec  (  0.0 % of DIIS)
  Orb update                ....       0.000 sec  (  0.0 % of DIIS)
  Wake-sleep                ....       0.016 sec  (  4.9 % of DIIS)
SOSCF solution              ....       0.154 sec  (  1.8%)
  MO trafo                  ....       0.052 sec  ( 34.1 % of SOSCF)
  Orb grad                  ....       0.003 sec  (  1.7 % of SOSCF)
  Rot update                ....       0.061 sec  ( 39.5 % of SOSCF)
  Step                      ....       0.038 sec  ( 24.6 % of SOSCF)
Finished LeanSCF after   8.5 sec

Maximum memory used throughout the entire LEANSCF-calculation: 12.9 MB


-------------------------------------------------------------------------------
                          DFT DISPERSION CORRECTION                            
                                                                               
                                DFTD4 V3.4.0                                   
-------------------------------------------------------------------------------
The PBE functional is recognized
Active option DFTDOPT                   ...         5   

-------------------------   ----------------
Dispersion correction           -0.015589743
-------------------------   ----------------

------------------   -----------------
gCP correction             0.090401063
------------------   -----------------

-------------------------   --------------------
FINAL SINGLE POINT ENERGY      -385.458507740474
-------------------------   --------------------


------------------------------------------------------------------------------
                              ORCA PROPERTY CALCULATIONS
------------------------------------------------------------------------------

GBWName                                 ... sp.gbw
Number of atoms                         ...     20
Number of basis functions               ...    136
Max core memory                         ...   1024 MB

Electric properties:
Dipole moment                           ... YES
Quadrupole moment                       ...  NO
Static polarizability (Dipole/Dipole)   ...  NO
Static polarizability (Dipole/Quad.)    ...  NO
Static polarizability (Quad./Quad.)     ...  NO
Static polarizability (Velocity)        ...  NO

Atomic electric properties:
Dipole moment                           ...  NO
Quadrupole moment                       ...  NO
Static polarizability                   ...  NO

Choice of electric origin               ... Center of mass
Position of electric origin             ...    -0.000010    -0.000020    -0.000003

General magnetic properties:
Magnetizability                         ...  NO

EPR properties:
g-Tensor (aka g-matrix)                 ...  NO
Zero-Field splitting spin-orbit         ...  NO
Zero-field splitting spin-spin          ...  NO
Hyperfine couplings                     ...  NO (   0 nuclei)
Quadrupole couplings                    ...  NO (   0 nuclei)
Contact density                         ...  NO (   0 nuclei)

NMR properties:
Chemical shifts                         ...  NO (   0 nuclei)
Spin-rotation constants                 ...  NO (   0 nuclei)
Spin-spin couplings                     ...  NO (   0 nuclei,    0 pairs)

Choice of magnetic origin               ... GIAO
Position of magnetic origin             ...     0.000000     0.000000     0.000000

Properties with geometric perturbations:
SCF Hessian                             ...  NO
IR spectrum                             ...  NO
VCD spectrum                            ...  NO
X-ray spectroscopy properties:
SCF XES/XAS/RIXS spectra                ...  NO


-------------
DIPOLE MOMENT
-------------

Method             : SCF
Type of density    : Electron Density
Multiplicity       :   1
Irrep              :   0
Energy             :  -385.5333190600200624 Eh
Relativity type    : 
Basis              : AO
                                X                 Y                 Z
Electronic contribution:      2.056919792       5.916072495      -0.062999747
Nuclear contribution   :     -1.922017850      -6.289205586      -0.484162445
                        -----------------------------------------
Total Dipole Moment    :      0.134901942      -0.373133090      -0.547162192
                        -----------------------------------------
Magnitude (a.u.)       :      0.675879650
Magnitude (Debye)      :      1.717949542



--------------------
Rotational spectrum 
--------------------
 
Rotational constants in cm-1:             0.108100             0.042127             0.036967 
Rotational constants in MHz :          3240.768906          1262.943955          1108.241059 

Dipole components along the rotational axes: 
x,y,z [a.u.] :     0.134661    -0.383243    -0.540189 
x,y,z [Debye]:     0.342281    -0.974126    -1.373052 

 

Dipole moment calculation done in   0.0 sec 

Maximum memory used throughout the entire PROP-calculation: 8.1 MB

--------------------------------
SUGGESTED CITATIONS FOR THIS RUN
--------------------------------

Below you find a list of papers that are relevant to this ORCA run
We neither can nor want to force you to cite these papers, but we appreciate if you do
You receive ORCA, which is the product of decades of hard work by many enthusiastic individuals, for free
The only thing we kindly ask in return is that you cite our papers,
We deeply appreciate it, if you show your appreciation for ORCA by not just citing the generic ORCA reference.

Please note that relegating all ORCA citations to the supporting information does *not* help us.
SI sections are not indexed - citations you put there will not count into any citation statistics
But we need these citations in order to attract the funding resources that allow us to do what we are doing

Therefore, if you are a happy ORCA user, please consider citing a few of the papers listed below in the main body of your paper

In addition to the list printed below, the program has created the file sp.bibtex that contains the list in bibtex format
You can import this file easily into all common literature databanks and citation aid programs


List of essential papers. We consider these as the minimum necessary citations

  1. Neese,F.
     Software update: the ORCA program system, version 5.0
     WIRES Comput. Molec. Sci., 2022 12(1)e1606
     doi.org/10.1002/wcms.1606

List of papers to cite with high priority. The work reported in these papers was absolutely
necessary for this run to complete.
Our perspective: the developers of density functionals and basis sets usually get cited in chemistry papers
Good! But without the algorithms to do something with them, the functionals or basis sets would not do anything.
Hence, in our opinion, the algorithm design and method developments papers are equally worthy of getting cited

  1. Neese,F.
     An improvement of the resolution of the identity approximation for the formation of the Coulomb matrix
     J. Comp. Chem., 2003 24(14)1740-1747
     doi.org/10.1002/jcc.10318
  2. Neese,F.
     The SHARK Integral Generation and Digestion System
     J. Comp. Chem., 2022  1-16
     doi.org/10.1002/jcc.26942
  3. Caldeweyher,E.; Bannwarth,C.; Grimme,S.
     Extension of the D3 dispersion coefficient model
     J. Chem. Phys., 2017 147 034112-XXXX
     doi.org/10.1063/1.4993215
  4. Caldeweyher,E.; Ehlert,S.; Hansen,A.; Neugebauer,H.; Spicher,S.; Bannwarth,C.; Grimme,S.
     A generally applicable atomic-charge dependent London dispersion correction
     J. Chem. Phys., 2019 150 154122-XXXX
     doi.org/10.1063/1.5090222
  5. Caldeweyher,E.; Mewes,J.; Ehlert,S.; Grimme,S.
     Extension and evaluation of the D4 London-dispersion model for periodic systems
     Phys. Chem. Chem. Phys., 2020 22(16)8499-8512
     doi.org/10.1039/D0CP00502A

List of suggested additional citations. These are papers that are important in the 'surrounding' of 
of this run, or papers that preceded the highly important papers. If you like your results we are grateful for a citation.

  1. Neese,F.
     The ORCA program system
     WIRES Comput. Molec. Sci., 2012 2(1)73-78
     doi.org/10.1002/wcms.81
  2. Neese,F.
     Software update: the ORCA program system, version 4.0
     WIRES Comput. Molec. Sci., 2018 8(1)1-6
     doi.org/10.1002/wcms.1327
  3. Neese,F.; Wennmohs,F.; Becker,U.; Riplinger,C.
     The ORCA quantum chemistry program package
     J. Chem. Phys., 2020 152 Art. No. L224108
     doi.org/10.1063/5.0004608

List of optional additional citations

  1. Neese,F.
     Approximate second-order SCF convergence for spin unrestricted wavefunctions
     Chem. Phys. Lett., 2000 325(1-3)93-98
     doi.org/10.1016/s0009-2614(00)00662-x

Timings for individual modules:

Sum of individual times          ...       10.239 sec (=   0.171 min)
Startup calculation              ...        0.806 sec (=   0.013 min)   7.9 %
SCF iterations                   ...        9.326 sec (=   0.155 min)  91.1 %
Property calculations            ...        0.107 sec (=   0.002 min)   1.0 %
                             ****ORCA TERMINATED NORMALLY****
TOTAL RUN TIME: 0 days 0 hours 0 minutes 10 seconds 971 msec
