
                                 *****************
                                 * O   R   C   A *
                                 *****************

                                            #,                                       
                                            ###                                      
                                            ####                                     
                                            #####                                    
                                            ######                                   
                                           ########,                                 
                                     ,,################,,,,,                         
                               ,,#################################,,                 
                          ,,##########################################,,             
                       ,#########################################, ''#####,          
                    ,#############################################,,   '####,        
                  ,##################################################,,,,####,       
                ,###########''''           ''''###############################       
              ,#####''   ,,,,##########,,,,          '''####'''          '####       
            ,##' ,,,,###########################,,,                        '##       
           ' ,,###''''                  '''############,,,                           
         ,,##''                                '''############,,,,        ,,,,,,###''
      ,#''                                            '''#######################'''  
     '                                                          ''''####''''         
             ,#######,   #######,   ,#######,      ##                                
            ,#'     '#,  ##    ##  ,#'     '#,    #''#        ,####,   ,####,        
            ##       ##  ##   ,#'  ##            #'  '#       #'       #'  '#        
            ##       ##  #######   ##           ,######,      #####,   #    #        
            '#,     ,#'  ##    ##  '#,     ,#' ,#      #,     #,   #   #,  ,#        
             '#######'   ##     ##  '#######'  #'      '#     '####' # '####'        



                #########################################################
                #                        -***-                          #
                #          Department of theory and spectroscopy        #
                #                                                       #
                #                      Frank Neese                      #
                #                                                       #
                #     Directorship, Architecture, Infrastructure        #
                #                    SHARK, DRIVERS                     #
                #        Core code/Algorithms in most modules           #
                #                                                       #
                #        Max Planck Institute fuer Kohlenforschung      #
                #                Kaiser Wilhelm Platz 1                 #
                #                 D-45470 Muelheim/Ruhr                 #
                #                      Germany                          #
                #                                                       #
                #                  All rights reserved                  #
                #                        -***-                          #
                #########################################################


                         Program Version 6.0.0  -   RELEASE  -


 With contributions from (in alphabetic order):
   Daniel Aravena         : Magnetic Suceptibility
   Michael Atanasov       : Ab Initio Ligand Field Theory (pilot matlab implementation)
   Alexander A. Auer      : GIAO ZORA, VPT2 properties, NMR spectrum
   Ute Becker             : All parallelization in ORCA, NUMFREQ, NUMCALC
   Giovanni Bistoni       : ED, misc. LED, open-shell LED, HFLD
   Martin Brehm           : Molecular dynamics
   Dmytro Bykov           : pre 5.0 version of the SCF Hessian
   Marcos Casanova-Páez   : Triplet and SCS-CIS(D). UHF-(DLPNO)-IP/EA/STEOM-CCSD. UHF-CVS-IP/STEOM-CCSD
   Vijay G. Chilkuri      : MRCI spin determinant printing, contributions to CSF-ICE
   Pauline Colinet        : FMM embedding
   Dipayan Datta          : RHF DLPNO-CCSD density
   Achintya Kumar Dutta   : EOM-CC, STEOM-CC
   Nicolas Foglia         : Exact transition moments, OPA infrastructure, MCD improvements
   Dmitry Ganyushin       : Spin-Orbit,Spin-Spin,Magnetic field MRCI
   Miquel Garcia          : C-PCM and meta-GGA Hessian, CCSD/C-PCM, Gaussian charge scheme
   Tiago L. C. Gouveia    : GS-ROHF, GS-ROCIS
   Yang Guo               : DLPNO-NEVPT2, F12-NEVPT2, CIM, IAO-localization
   Andreas Hansen         : Spin unrestricted coupled pair/coupled cluster methods
   Ingolf Harden          : AUTO-CI MPn and infrastructure 
   Benjamin Helmich-Paris : MC-RPA, TRAH-(SCF,CASSCF), AVAS, COSX integrals, SCF dyn. polar.
   Lee Huntington         : MR-EOM, pCC
   Robert Izsak           : Overlap fitted RIJCOSX, COSX-SCS-MP3, EOM
   Riya Kayal             : Wick's Theorem for AUTO-CI, AUTO-CI UHF-CCSDT
   Emily Kempfer          : AUTO-CI, RHF CISDT and CCSDT
   Christian Kollmar      : KDIIS, OOCD, Brueckner-CCSD(T), CCSD density, CASPT2, CASPT2-K, improved NEVPT2
   Axel Koslowski         : Symmetry handling
   Simone Kossmann        : Meta GGA functionals, TD-DFT gradient, OOMP2, (MP2 Hessian; deprecated post 5.0)
   Lucas Lang             : DCDCAS
   Marvin Lechner         : AUTO-CI (C++ implementation), FIC-MRCC
   Spencer Leger          : CASSCF response
   Dagmar Lenk            : GEPOL surface, SMD, ORCA-2-JSON
   Dimitrios Liakos       : Extrapolation schemes; Compound Job, initial MDCI parallelization
   Dimitrios Manganas     : Further ROCIS development; embedding schemes. LFT, Crystal Embedding
   Dimitrios Pantazis     : SARC Basis sets
   Anastasios Papadopoulos: AUTO-CI, single reference methods and gradients
   Taras Petrenko         : pre 6.0 DFT Hessian and TD-DFT gradient, (ASA, deprecated), ECA, 1-Electron XAS/XES, NRVS
   Peter Pinski           : DLPNO-MP2, DLPNO-MP2 Gradient
   Christoph Reimann      : Effective Core Potentials
   Marius Retegan         : Local ZFS, SOC
   Christoph Riplinger    : Optimizer, TS searches, QM/MM, DLPNO-CCSD(T), (RO)-DLPNO pert. Triples
   Michael Roemelt        : Original ROCIS implementation
   Masaaki Saitow         : Open-shell DLPNO-CCSD energy and density
   Barbara Sandhoefer     : DKH picture change effects
   Kantharuban Sivalingam : CASSCF convergence/infrastructure, NEVPT2 and variants, FIC-MRCI
   Bernardo de Souza      : ESD, SOC TD-DFT
   Georgi Stoychev        : AutoAux, RI-MP2 NMR, DLPNO-MP2 response, X2C
   Van Anh Tran           : RI-MP2 g-tensors
   Willem Van den Heuvel  : Paramagnetic NMR
   Zikuan Wang            : NOTCH, Electric field optimization 
   Frank Wennmohs         : Technical directorship and infrastructure
   Hang Xu                : AUTO-CI-Response properties 


 We gratefully acknowledge several colleagues who have allowed us to
 interface, adapt or use parts of their codes:
   Stefan Grimme, W. Hujo, H. Kruse, P. Pracht,  : VdW corrections, initial TS optimization,
                  C. Bannwarth, S. Ehlert,         DFT functionals, gCP, sTDA/sTD-DF
                  L. Wittmann, M. Mueller
   Ed Valeev, F. Pavosevic, A. Kumar             : LibInt (2-el integral package), F12 methods
   Garnet Chan, S. Sharma, J. Yang, R. Olivares  : DMRG
   Ulf Ekstrom                                   : XCFun DFT Library
   Mihaly Kallay                                 : mrcc  (arbitrary order and MRCC methods)
   Frank Weinhold                                : gennbo (NPA and NBO analysis)
   Simon Mueller                                 : openCOSMO-RS
   Christopher J. Cramer and Donald G. Truhlar   : smd solvation model
   Lars Goerigk                                  : TD-DFT with DH, B97 family of functionals
   V. Asgeirsson, H. Jonsson                     : NEB implementation
   FAccTs GmbH                                   : IRC, NEB, NEB-TS, DLPNO-Multilevel, CI-OPT
                                                   MM, QMMM, 2- and 3-layer-ONIOM, Crystal-QMMM,
                                                   LR-CPCM, SF, NACMEs, symmetry and pop. for TD-DFT,
                                                   nearIR, NL-DFT gradient (VV10), updates on ESD,
                                                   ML-optimized integration grids, MBIS, APM,
                                                   GOAT, DOCKER, SOLVATOR, interface openCOSMO-RS
   S Lehtola, MJT Oliveira, MAL Marques          : LibXC Library
   Liviu Ungur et al                             : ANISO software


 Your calculation uses the libint2 library for the computation of 2-el integrals
 For citations please refer to: http://libint.valeyev.net

 Your ORCA version has been built with support for libXC version: 6.2.2
 For citations please refer to: https://libxc.gitlab.io

 This ORCA versions uses:
   CBLAS   interface :  Fast vector & matrix operations
   LAPACKE interface :  Fast linear algebra routines
   SCALAPACK package :  Parallel linear algebra routines
   Shared memory     :  Shared parallel matrices
   BLAS/LAPACK       :  OpenBLAS 0.3.27  USE64BITINT DYNAMIC_ARCH NO_AFFINITY SkylakeX SINGLE_THREADED
        Core in use  :  SkylakeX
   Copyright (c) 2011-2014, The OpenBLAS Project


Your calculation utilizes the geometrical counterpoise correction gCP
Please cite in your paper:
H.Kruse, S. Grimme J.Chem.Phys., 136, (2012), 154101 
   

Your calculation utilizes the atom-pairwise dispersion correction
based on EEQ partial charges (D4)


================================================================================

----- Orbital basis set information -----
Your calculation utilizes the basis: def2-mTZVPP
   Stefan Grimme, Andreas Hansen, Sebastian Ehlert, and Jan-Michael Mewes 
   J. Chem. Phys. 154, 064103 (2021). DOI: 10.1063/5.0040021

----- AuxJ basis set information -----
Your calculation utilizes the auxiliary basis: def2/J
   F. Weigend, Phys. Chem. Chem. Phys. 8, 1057 (2006).

================================================================================
                                        WARNINGS
                       Please study these warnings very carefully!
================================================================================

Using LibXC functional ID 497 : Re-regularized SCAN exchange by Furness et al
[ 1]  J. W. Furness, A. D. Kaplan, J. Ning, J. P. Perdew, and J. Sun.,  J. Phys. Chem. Lett. 11, 8208-8215 (2020)
[ 2]  J. W. Furness, A. D. Kaplan, J. Ning, J. P. Perdew, and J. Sun.,  J. Phys. Chem. Lett. 11, 9248-9248 (2020)
Using LibXC functional ID 498 : Re-regularized SCAN correlation by Furness et al
[ 1]  J. W. Furness, A. D. Kaplan, J. Ning, J. P. Perdew, and J. Sun.,  J. Phys. Chem. Lett. 11, 8208-8215 (2020)
[ 2]  J. W. Furness, A. D. Kaplan, J. Ning, J. P. Perdew, and J. Sun.,  J. Phys. Chem. Lett. 11, 9248-9248 (2020)
Using LibXC functional ID 497 : Re-regularized SCAN exchange by Furness et al
[ 1]  J. W. Furness, A. D. Kaplan, J. Ning, J. P. Perdew, and J. Sun.,  J. Phys. Chem. Lett. 11, 8208-8215 (2020)
[ 2]  J. W. Furness, A. D. Kaplan, J. Ning, J. P. Perdew, and J. Sun.,  J. Phys. Chem. Lett. 11, 9248-9248 (2020)
Using LibXC functional ID 498 : Re-regularized SCAN correlation by Furness et al
[ 1]  J. W. Furness, A. D. Kaplan, J. Ning, J. P. Perdew, and J. Sun.,  J. Phys. Chem. Lett. 11, 8208-8215 (2020)
[ 2]  J. W. Furness, A. D. Kaplan, J. Ning, J. P. Perdew, and J. Sun.,  J. Phys. Chem. Lett. 11, 9248-9248 (2020)

================================================================================
                                       INPUT FILE
================================================================================
NAME = sp_gas.inp
|  1> ! r2scan-3c def2/J RI DEFGRID2 scfconv6 printgap
|  2> %output
|  3>     printlevel normal
|  4> end
|  5> * xyz 0 1
|  6> C -2.0065860505 -1.5714759636 0.0384253679
|  7> C -2.3780182086 -0.1010348042 0.1854838806
|  8> C -1.4213058045 0.8084313514 -0.5968253187
|  9> C -0.0418409958 0.7547334378 0.0066910928
| 10> O 0.2399043081 1.1472236989 1.1201705936
| 11> O 0.8395734995 0.2210768082 -0.8296352306
| 12> C 2.1994687486 0.0717671883 -0.3892494737
| 13> C 2.3840435431 -1.2139006652 0.40263449
| 14> H -2.0085499188 -1.8621152509 -1.0092964427
| 15> H -1.0144133457 -1.7580156458 0.4442448091
| 16> H -2.7172634353 -2.1960066185 0.5731134562
| 17> H -2.3481663892 0.1846881724 1.2388837483
| 18> H -3.3911966076 0.0593310198 -0.1841130695
| 19> H -1.7724143857 1.8390522651 -0.5349386123
| 20> H -1.3613616141 0.4985973298 -1.6391178329
| 21> H 2.7854007762 0.0596844692 -1.3085535309
| 22> H 2.4655036046 0.9401030525 0.2212554284
| 23> H 1.7998167288 -1.1732937429 1.3196050672
| 24> H 2.0610474747 -2.0674088546 -0.187613056
| 25> H 3.4317237163 -1.3313107022 0.6593163095
| 26> *
| 27> 
| 28>                          ****END OF INPUT****
================================================================================

                       ****************************
                       * Single Point Calculation *
                       ****************************

---------------------------------
CARTESIAN COORDINATES (ANGSTROEM)
---------------------------------
  C     -2.006586   -1.571476    0.038425
  C     -2.378018   -0.101035    0.185484
  C     -1.421306    0.808431   -0.596825
  C     -0.041841    0.754733    0.006691
  O      0.239904    1.147224    1.120171
  O      0.839573    0.221077   -0.829635
  C      2.199469    0.071767   -0.389249
  C      2.384044   -1.213901    0.402634
  H     -2.008550   -1.862115   -1.009296
  H     -1.014413   -1.758016    0.444245
  H     -2.717263   -2.196007    0.573113
  H     -2.348166    0.184688    1.238884
  H     -3.391197    0.059331   -0.184113
  H     -1.772414    1.839052   -0.534939
  H     -1.361362    0.498597   -1.639118
  H      2.785401    0.059684   -1.308554
  H      2.465504    0.940103    0.221255
  H      1.799817   -1.173294    1.319605
  H      2.061047   -2.067409   -0.187613
  H      3.431724   -1.331311    0.659316

----------------------------
CARTESIAN COORDINATES (A.U.)
----------------------------
  NO LB      ZA    FRAG     MASS         X           Y           Z
   0 C     6.0000    0    12.011   -3.791898   -2.969659    0.072613
   1 C     6.0000    0    12.011   -4.493803   -0.190928    0.350514
   2 C     6.0000    0    12.011   -2.685879    1.527714   -1.127836
   3 C     6.0000    0    12.011   -0.079068    1.426240    0.012644
   4 O     8.0000    0    15.999    0.453353    2.167939    2.116816
   5 O     8.0000    0    15.999    1.586564    0.417775   -1.567783
   6 C     6.0000    0    12.011    4.156394    0.135620   -0.735575
   7 C     6.0000    0    12.011    4.505189   -2.293940    0.760869
   8 H     1.0000    0     1.008   -3.795609   -3.518888   -1.907294
   9 H     1.0000    0     1.008   -1.916963   -3.322168    0.839501
  10 H     1.0000    0     1.008   -5.134884   -4.149851    1.083027
  11 H     1.0000    0     1.008   -4.437391    0.349010    2.341151
  12 H     1.0000    0     1.008   -6.408433    0.112119   -0.347923
  13 H     1.0000    0     1.008   -3.349378    3.475305   -1.010887
  14 H     1.0000    0     1.008   -2.572601    0.942212   -3.097484
  15 H     1.0000    0     1.008    5.263645    0.112787   -2.472808
  16 H     1.0000    0     1.008    4.659127    1.776537    0.418112
  17 H     1.0000    0     1.008    3.401161   -2.217204    2.493692
  18 H     1.0000    0     1.008    3.894815   -3.906837   -0.354537
  19 H     1.0000    0     1.008    6.485018   -2.515813    1.245927

--------------------------------
INTERNAL COORDINATES (ANGSTROEM)
--------------------------------
 C      0   0   0     0.000000000000     0.00000000     0.00000000
 C      1   0   0     1.523740547956     0.00000000     0.00000000
 C      2   1   0     1.534416825915   111.76410322     0.00000000
 C      3   2   1     1.506664754787   110.21320370   293.46499643
 O      4   3   2     1.213781537193   124.64317342   295.11925327
 O      4   3   2     1.327072955814   111.71567484   115.05716436
 C      6   4   3     1.437201470219   118.49774700   181.36715072
 C      7   6   4     1.521213297422   111.23045118    84.36875445
 H      1   2   3     1.087288390680   110.51884837   302.05984367
 H      1   2   3     1.088068540140   110.59302194    62.07108005
 H      1   2   3     1.086734666764   110.34595198   181.90015312
 H      2   1   3     1.091869970165   109.81446020   239.35046184
 H      2   1   3     1.090343785799   109.61697156   120.48946766
 H      3   2   1     1.090544207255   109.29725411   175.16403938
 H      3   2   1     1.089019794155   110.71102284    53.92950592
 H      7   6   4     1.090221208128   104.55475601   204.68222232
 H      7   6   4     1.094302496182   108.57495619   322.53281661
 H      8   7   6     1.088028001541   110.00031113   295.53424339
 H      8   7   6     1.086827886619   110.17869676    55.86576454
 H      8   7   6     1.085036597801   109.37541733   176.02772229

---------------------------
INTERNAL COORDINATES (A.U.)
---------------------------
 C      0   0   0     0.000000000000     0.00000000     0.00000000
 C      1   0   0     2.879452334788     0.00000000     0.00000000
 C      2   1   0     2.899627576259   111.76410322     0.00000000
 C      3   2   1     2.847183762179   110.21320370   293.46499643
 O      4   3   2     2.293714691704   124.64317342   295.11925327
 O      4   3   2     2.507804446222   111.71567484   115.05716436
 C      6   4   3     2.715917177983   118.49774700   181.36715072
 C      7   6   4     2.874676523407   111.23045118    84.36875445
 H      1   2   3     2.054677286978   110.51884837   302.05984367
 H      1   2   3     2.056151555799   110.59302194    62.07108005
 H      1   2   3     2.053630900421   110.34595198   181.90015312
 H      2   1   3     2.063335217465   109.81446020   239.35046184
 H      2   1   3     2.060451146983   109.61697156   120.48946766
 H      3   2   1     2.060829888646   109.29725411   175.16403938
 H      3   2   1     2.057949165372   110.71102284    53.92950592
 H      7   6   4     2.060219508755   104.55475601   204.68222232
 H      7   6   4     2.067932025451   108.57495619   322.53281661
 H      8   7   6     2.056074948949   110.00031113   295.53424339
 H      8   7   6     2.053807060419   110.17869676    55.86576454
 H      8   7   6     2.050422015125   109.37541733   176.02772229

---------------------
BASIS SET INFORMATION
---------------------
There are 3 groups of distinct atoms

 Group   1 Type C   : 11s6p1d contracted to 5s3p1d pattern {62111/411/1}
 Group   2 Type O   : 11s6p2d contracted to 5s3p2d pattern {62111/411/11}
 Group   3 Type H   : 4s1p contracted to 2s1p pattern {31/1}

Atom   0C    basis set group =>   1
Atom   1C    basis set group =>   1
Atom   2C    basis set group =>   1
Atom   3C    basis set group =>   1
Atom   4O    basis set group =>   2
Atom   5O    basis set group =>   2
Atom   6C    basis set group =>   1
Atom   7C    basis set group =>   1
Atom   8H    basis set group =>   3
Atom   9H    basis set group =>   3
Atom  10H    basis set group =>   3
Atom  11H    basis set group =>   3
Atom  12H    basis set group =>   3
Atom  13H    basis set group =>   3
Atom  14H    basis set group =>   3
Atom  15H    basis set group =>   3
Atom  16H    basis set group =>   3
Atom  17H    basis set group =>   3
Atom  18H    basis set group =>   3
Atom  19H    basis set group =>   3
---------------------------------
AUXILIARY/J BASIS SET INFORMATION
---------------------------------
There are 3 groups of distinct atoms

 Group   1 Type C   : 12s5p4d2f1g contracted to 6s4p3d1f1g pattern {711111/2111/211/2/1}
 Group   2 Type O   : 12s5p4d2f1g contracted to 6s4p3d1f1g pattern {711111/2111/211/2/1}
 Group   3 Type H   : 5s2p1d contracted to 3s1p1d pattern {311/2/1}

Atom   0C    basis set group =>   1
Atom   1C    basis set group =>   1
Atom   2C    basis set group =>   1
Atom   3C    basis set group =>   1
Atom   4O    basis set group =>   2
Atom   5O    basis set group =>   2
Atom   6C    basis set group =>   1
Atom   7C    basis set group =>   1
Atom   8H    basis set group =>   3
Atom   9H    basis set group =>   3
Atom  10H    basis set group =>   3
Atom  11H    basis set group =>   3
Atom  12H    basis set group =>   3
Atom  13H    basis set group =>   3
Atom  14H    basis set group =>   3
Atom  15H    basis set group =>   3
Atom  16H    basis set group =>   3
Atom  17H    basis set group =>   3
Atom  18H    basis set group =>   3
Atom  19H    basis set group =>   3

Checking for AutoStart:
The File: sp_gas.gbw exists
Trying to determine its content:
     ... Fine, the file contains calculation information
     ... Fine, the calculation information was read
     ... Fine, the file contains a basis set
     ... Fine, the basis set was read
     ... Fine, the file contains a geometry
     ... Fine, the geometry was read
     ... Fine, the file contains a set of orbitals
     ... Fine, the orbitals can be read
     => possible old guess file was deleted
     => GBW file was renamed to GES file
     => GES file is set as startup file
     => Guess is set to MORead
     ... now leaving AutoStart

------------------------------------------------------------------------------
                             ORCA STARTUP CALCULATIONS
                           -- RI-GTO INTEGRALS CHOSEN --
------------------------------------------------------------------------------
------------------------------------------------------------------------------
                   ___                                                        
                  /   \      - P O W E R E D   B Y -                         
                 /     \                                                     
                 |  |  |   _    _      __       _____    __    __             
                 |  |  |  | |  | |    /  \     |  _  \  |  |  /  |          
                  \  \/   | |  | |   /    \    | | | |  |  | /  /          
                 / \  \   | |__| |  /  /\  \   | |_| |  |  |/  /          
                |  |  |   |  __  | /  /__\  \  |    /   |      \           
                |  |  |   | |  | | |   __   |  |    \   |  |\   \          
                \     /   | |  | | |  |  |  |  | |\  \  |  | \   \       
                 \___/    |_|  |_| |__|  |__|  |_| \__\ |__|  \__/        
                                                                              
                      - O R C A' S   B I G   F R I E N D -                    
                                      &                                       
                       - I N T E G R A L  F E E D E R -                       
                                                                              
 v1 FN, 2020, v2 2021, v3 2022-2024                                           
------------------------------------------------------------------------------


----------------------
SHARK INTEGRAL PACKAGE
----------------------

Number of atoms                             ...     20
Number of basis functions                   ...    222
Number of shells                            ...    110
Maximum angular momentum                    ...      2
Integral batch strategy                     ... SHARK/LIBINT Hybrid
RI-J (if used) integral strategy            ... SPLIT-RIJ (Revised 2003 algorithm where possible)
Printlevel                                  ...      1
Contraction scheme used                     ... SEGMENTED contraction
Prescreening option                         ... SCHWARTZ
   Thresh                                   ... 1.000e-10
   Tcut                                     ... 1.000e-11
   Tpresel                                  ... 1.000e-11 
Coulomb Range Separation                    ... NOT USED
Exchange Range Separation                   ... NOT USED
Multipole approximations                    ... NOT USED
Finite Nucleus Model                        ... NOT USED
CABS basis                                  ... NOT available
Auxiliary Coulomb fitting basis             ... AVAILABLE
   # of basis functions in Aux-J            ...    524
   # of shells in Aux-J                     ...    180
   Maximum angular momentum in Aux-J        ...      4
Auxiliary J/K fitting basis                 ... NOT available
Auxiliary Correlation fitting basis         ... NOT available
Auxiliary 'external' fitting basis          ... NOT available

Checking pre-screening integrals            ... done (  0.0 sec) Dimension = 110
Check shell pair data                       ... done (  0.0 sec)
Shell pair information
Shell pair cut-off parameter TPreSel        ...   1.0e-11
Total number of shell pairs                 ...      6105
Shell pairs after pre-screening             ...      5421
Total number of primitive shell pairs       ...     21533
Primitive shell pairs kept                  ...     13554
          la=0 lb=0:   1824 shell pairs
          la=1 lb=0:   2038 shell pairs
          la=1 lb=1:    596 shell pairs
          la=2 lb=0:    579 shell pairs
          la=2 lb=1:    330 shell pairs
          la=2 lb=2:     54 shell pairs

Calculating one electron integrals          ... done (  0.0 sec)
Calculating RI/J V-Matrix + Cholesky decomp.... done (  0.1 sec)
Calculating Nuclear repulsion               ... done (  0.0 sec) ENN=    399.994961640557 Eh

Diagonalization of the overlap matrix:
Smallest eigenvalue                        ... 1.978e-04
Time for diagonalization                   ...    0.010 sec
Threshold for overlap eigenvalues          ... 1.000e-07
Number of eigenvalues below threshold      ... 0
Time for construction of square roots      ...    0.021 sec
Total time needed                          ...    0.042 sec

-------------------
DFT GRID GENERATION
-------------------

General Integration Accuracy     IntAcc      ... 4.388
Radial Grid Type                 RadialGrid  ... OptM3 with GC (2021)
Angular Grid (max. ang.)         AngularGrid ... 4 (Lebedev-302)
Angular grid pruning method      GridPruning ... 4 (adaptive)
Weight generation scheme         WeightScheme... mBecke (2022)
Basis function cutoff            BFCut       ... 1.0000e-10
Integration weight cutoff        WCut        ... 1.0000e-14
Partially contracted basis set               ... off
Rotationally invariant grid construction     ... off
Angular grids for H and He will be reduced by one unit
Diffuse basis detected: some atoms will have their outermost
                        angular grid increased by 1.

Total number of grid points                  ...    87278
Total number of batches                      ...     1376
Average number of points per batch           ...       63
Average number of grid points per atom       ...     4364
Initializing property integral containers    ... done (  0.0 sec)

SHARK setup successfully completed in   1.4 seconds

Maximum memory used throughout the entire STARTUP-calculation: 39.5 MB
-------------------------------------------------------------------------------
                                 ORCA GUESS
                   Start orbitals & Density for SCF / CASSCF
-------------------------------------------------------------------------------

------------
SCF SETTINGS
------------
Hamiltonian:
 Density Functional     Method          .... DFT(GTOs)
  Functional kind                       .... Exchange
  Functional name                       .... Re-regularized SCAN exchange by Furness et al
  Functional family                     .... MGGA
  Functional refs                              
    [ 0] J. W. Furness, A. D. Kaplan, J. Ning, J. P. Perdew, and J. Sun.,  J. Phys. Chem. Lett. 11, 8208-8215 (2020), doi: 10.1021/acs.jpclett.0c02405
    [ 1] J. W. Furness, A. D. Kaplan, J. Ning, J. P. Perdew, and J. Sun.,  J. Phys. Chem. Lett. 11, 9248-9248 (2020), doi: 10.1021/acs.jpclett.0c03077
  Functional external parameters        .... 6
    Parameter  0 _c1        =  6.670000e-01 : c1 parameter        
    Parameter  1 _c2        =  8.000000e-01 : c2 parameter        
    Parameter  2 _d         =  1.240000e+00 : d parameter         
    Parameter  3 _k1        =  6.500000e-02 : k1 parameter        
    Parameter  4 _eta       =  1.000000e-03 : eta parameter       
    Parameter  5 _dp2       =  3.610000e-01 : dp2 parameter       
  Functional kind                       .... Correlation
  Functional name                       .... Re-regularized SCAN correlation by Furness et al
  Functional family                     .... MGGA
  Functional refs                              
    [ 0] J. W. Furness, A. D. Kaplan, J. Ning, J. P. Perdew, and J. Sun.,  J. Phys. Chem. Lett. 11, 8208-8215 (2020), doi: 10.1021/acs.jpclett.0c02405
    [ 1] J. W. Furness, A. D. Kaplan, J. Ning, J. P. Perdew, and J. Sun.,  J. Phys. Chem. Lett. 11, 9248-9248 (2020), doi: 10.1021/acs.jpclett.0c03077
  Functional external parameters        .... 1
    Parameter  0 _eta       =  1.000000e-03 : Regularization parameter
 Gradients option       PostSCFGGA      .... off
 RI-approximation to the Coulomb term is turned on
   Number of AuxJ basis functions       .... 524


General Settings:
 Integral files         IntName         .... sp_gas
 Hartree-Fock type      HFTyp           .... RHF
 Total Charge           Charge          ....    0
 Multiplicity           Mult            ....    1
 Number of Electrons    NEL             ....   64
 Basis Dimension        Dim             ....  222
 Nuclear Repulsion      ENuc            ....    399.9949616406 Eh

Convergence Acceleration:
 AO-DIIS                CNVDIIS         .... on
   Start iteration      DIISMaxIt       ....    12
   Startup error        DIISStart       ....  0.200000
   # of expansion vecs  DIISMaxEq       ....     5
   Bias factor          DIISBfac        ....   1.050
   Max. coefficient     DIISMaxC        ....  10.000
 MO-DIIS                CNVKDIIS        .... off
 Trust-Rad. Augm. Hess. CNVTRAH         .... auto
   Auto Start mean grad. ratio tolernc. ....  1.125000
   Auto Start start iteration           ....     1
   Auto Start num. interpolation iter.  ....    10
   Max. Number of Micro iterations      ....    24
   Max. Number of Macro iterations      .... Maxiter - #DIIS iter
   Number of Davidson start vectors     ....     2
   Converg. threshold    (grad. norm)   ....   3.330e-04
   Grad. Scal. Fac. for Micro threshold ....   0.100
   Minimum threshold for Micro iter.    ....   1.000e-02
   NR start threshold (gradient norm)   ....   1.000e-04
   Initial trust radius                 ....   0.400
   Minimum AH scaling param. (alpha)    ....   1.000
   Maximum AH scaling param. (alpha)    .... 1000.000
   Quad. conv. algorithm                .... NR
   White noise on init. David. guess    .... on
   Maximum white noise                  ....   0.010
   Pseudo random numbers                .... off
   Inactive MOs                         .... canonical
   Orbital update algorithm             .... Taylor
   Preconditioner                       .... Diag
   Full preconditioner red. dimension   ....   250
   COSX micro iterations for RIJONX calc.... off
 SOSCF                  CNVSOSCF        .... on
   Start iteration      SOSCFMaxIt      ....   150
   Startup grad/error   SOSCFStart      ....  0.003300
   Hessian update       SOSCFHessUp     .... L-BFGS
 Level Shifting         CNVShift        .... on
   Level shift para.    LevelShift      ....    0.2500
   Turn off err/grad.   ShiftErr        ....    0.0010
 Zerner damping         CNVZerner       .... off
 Static damping         CNVDamp         .... on
   Fraction old density DampFac         ....    0.7000
   Max. Damping (<1)    DampMax         ....    0.9800
   Min. Damping (>=0)   DampMin         ....    0.0000
   Turn off err/grad.   DampErr         ....    0.1000

SCF Procedure:
 Maximum # iterations   MaxIter         ....   125
 SCF integral mode      SCFMode         .... Direct
   Integral package                     .... SHARK and LIBINT hybrid scheme
 Reset frequency        DirectResetFreq ....    20
 Integral Threshold     Thresh          ....  1.000e-10 Eh
 Primitive CutOff       TCut            ....  1.000e-11 Eh

Convergence Tolerance:
 Convergence Check Mode ConvCheckMode   .... Total+1el-Energy
 Convergence forced     ConvForced      .... 0
 Energy Change          TolE            ....  1.000e-06 Eh
 1-El. energy change                    ....  1.000e-03 Eh
 Orbital Gradient       TolG            ....  3.330e-04
 Orbital Rotation angle TolX            ....  3.330e-04
 DIIS Error             TolErr          ....  1.000e-06

---------------------
INITIAL GUESS: MOREAD
---------------------
Guess MOs are being read from file: sp_gas.ges
Input Geometry matches current geometry (good)
Atom 0: N(Shells)= 9 and 6 - projection required
Input basis set needs projection
NBasis(read)= 136
NBasis(calc)= 222
Basis set overlap was calculated
Using GuessMode=FMatrix for the initial guess
C*T matrix was formed
Effective Fockian was calculated
Effective Fockian was diagonalized
Initial density was built
                      ------------------
                      INITIAL GUESS DONE (   0.1 sec)
                      ------------------
             **** ENERGY FILE WAS UPDATED (sp_gas.en.tmp) ****
Finished Guess after   0.4 sec
Maximum memory used throughout the entire GUESS-calculation: 15.3 MB

-------------------------------------------------------------------------------------------
                                      ORCA LEAN-SCF
                              memory conserving SCF solver
-------------------------------------------------------------------------------------------

----------------------------------------D-I-I-S--------------------------------------------
Iteration    Energy (Eh)           Delta-E    RMSDP     MaxDP     DIISErr   Damp  Time(sec)
-------------------------------------------------------------------------------------------
               ***  Starting incremental Fock matrix formation  ***
    1    -386.0471732134660101     0.00e+00  3.73e-03  1.29e-01  6.26e-01  0.700   3.1
    2    -386.1053781811070280    -5.82e-02  3.03e-03  9.59e-02  4.40e-01  0.700   3.0
    3    -386.1465028599121183    -4.11e-02  2.22e-03  6.81e-02  3.08e-01  0.700   2.9
    4    -386.1753690228583196    -2.89e-02  1.59e-03  4.80e-02  2.16e-01  0.700   3.0
                               ***Turning on AO-DIIS***
    5    -386.1956137242949012    -2.02e-02  1.15e-03  3.44e-02  1.51e-01  0.700   2.9
    6    -386.2098031549756456    -1.42e-02  8.14e-04  2.43e-02  1.06e-01  0.700   2.8
    7    -386.2197491227913702    -9.95e-03  5.74e-04  1.70e-02  7.40e-02  0.700   2.9
    8    -386.2267170721965499    -6.97e-03  1.35e-03  3.97e-02  5.19e-02  0.000   3.0
                              *** Initializing SOSCF ***
---------------------------------------S-O-S-C-F--------------------------------------
Iteration    Energy (Eh)           Delta-E    RMSDP     MaxDP     MaxGrad    Time(sec)
--------------------------------------------------------------------------------------
    9    -386.2429955008399816    -1.63e-02  7.96e-06  3.04e-04  1.09e-04     2.7
               *** Restarting incremental Fock matrix formation ***
   10    -386.2429956205148187    -1.20e-07  4.93e-06  1.45e-04  3.87e-05     3.1
                  *** Gradient check signals convergence ***

               *****************************************************
               *                     SUCCESS                       *
               *           SCF CONVERGED AFTER  10 CYCLES          *
               *****************************************************

             **** ENERGY FILE WAS UPDATED (sp_gas.en.tmp) ****

----------------
TOTAL SCF ENERGY
----------------

Total Energy       :       -386.24299562051482 Eh          -10510.20624 eV

Components:
Nuclear Repulsion  :        399.99496164055705 Eh           10884.41626 eV
Electronic Energy  :       -786.23795726107187 Eh          -21394.62250 eV
One Electron Energy:      -1317.14320271802058 Eh          -35841.28868 eV
Two Electron Energy:        530.90524545694871 Eh           14446.66618 eV

Virial components:
Potential Energy   :       -770.88567521253958 Eh          -20976.86567 eV
Kinetic Energy     :        384.64267959202471 Eh           10466.65943 eV
Virial Ratio       :          2.00416052641425

DFT components:
N(Alpha)           :       31.999999470302 electrons
N(Beta)            :       31.999999470302 electrons
N(Total)           :       63.999998940604 electrons
E(X)               :      -52.078166833736 Eh       
E(C)               :       -2.037967162771 Eh       
E(XC)              :      -54.116133996507 Eh       

---------------
SCF CONVERGENCE
---------------

  Last Energy change         ...    1.1967e-07  Tolerance :   1.0000e-06
  Last MAX-Density change    ...    1.4521e-04  Tolerance :   1.0000e-05
  Last RMS-Density change    ...    4.9295e-06  Tolerance :   1.0000e-06
  Last DIIS Error            ...    1.0914e-04  Tolerance :   1.0000e-06
  Last Orbital Gradient      ...    3.8660e-05  Tolerance :   3.3300e-04
  Last Orbital Rotation      ...    1.5143e-04  Tolerance :   3.3300e-04


----------------
ORBITAL ENERGIES
----------------

  NO   OCC          E(Eh)            E(eV) 
   0   2.0000     -18.996823      -516.9298 
   1   2.0000     -18.927058      -515.0314 
   2   2.0000     -10.150923      -276.2207 
   3   2.0000     -10.090998      -274.5900 
   4   2.0000     -10.039914      -273.2000 
   5   2.0000     -10.035829      -273.0888 
   6   2.0000     -10.028886      -272.8999 
   7   2.0000     -10.020622      -272.6750 
   8   2.0000      -1.071165       -29.1479 
   9   2.0000      -0.974845       -26.5269 
  10   2.0000      -0.773693       -21.0532 
  11   2.0000      -0.739386       -20.1197 
  12   2.0000      -0.677490       -18.4354 
  13   2.0000      -0.625995       -17.0342 
  14   2.0000      -0.566699       -15.4207 
  15   2.0000      -0.518626       -14.1125 
  16   2.0000      -0.474071       -12.9001 
  17   2.0000      -0.454171       -12.3586 
  18   2.0000      -0.445100       -12.1118 
  19   2.0000      -0.418678       -11.3928 
  20   2.0000      -0.406575       -11.0635 
  21   2.0000      -0.391242       -10.6462 
  22   2.0000      -0.378082       -10.2881 
  23   2.0000      -0.367103        -9.9894 
  24   2.0000      -0.351713        -9.5706 
  25   2.0000      -0.344964        -9.3870 
  26   2.0000      -0.318232        -8.6595 
  27   2.0000      -0.311329        -8.4717 
  28   2.0000      -0.309597        -8.4246 
  29   2.0000      -0.302846        -8.2409 
  30   2.0000      -0.270953        -7.3730 
  31   2.0000      -0.234973        -6.3939 
  32   0.0000      -0.015587        -0.4241 
  33   0.0000       0.074661         2.0316 
  34   0.0000       0.087582         2.3832 
  35   0.0000       0.110829         3.0158 
  36   0.0000       0.117090         3.1862 
  37   0.0000       0.126232         3.4350 
  38   0.0000       0.131998         3.5919 
  39   0.0000       0.138867         3.7788 
  40   0.0000       0.144604         3.9349 
  41   0.0000       0.154133         4.1942 
  42   0.0000       0.165685         4.5085 
*Only the first 10 virtual orbitals were printed.

                    ********************************
                    * MULLIKEN POPULATION ANALYSIS *
                    ********************************

-----------------------
MULLIKEN ATOMIC CHARGES
-----------------------
   0 C :   -0.491003
   1 C :   -0.226152
   2 C :   -0.302759
   3 C :    0.350714
   4 O :   -0.425652
   5 O :   -0.170594
   6 C :   -0.133036
   7 C :   -0.479661
   8 H :    0.148374
   9 H :    0.154469
  10 H :    0.148498
  11 H :    0.161139
  12 H :    0.146189
  13 H :    0.164529
  14 H :    0.162793
  15 H :    0.148126
  16 H :    0.167216
  17 H :    0.176150
  18 H :    0.153114
  19 H :    0.147549
Sum of atomic charges:   -0.0000000

--------------------------------
MULLIKEN REDUCED ORBITAL CHARGES
--------------------------------
  0 C s       :     3.331327  s :     3.331327
      pz      :     1.086816  p :     3.132603
      px      :     1.084439
      py      :     0.961348
      dz2     :     0.006068  d :     0.027073
      dxz     :     0.003241
      dyz     :     0.005298
      dx2y2   :     0.006659
      dxy     :     0.005806

  1 C s       :     3.201422  s :     3.201422
      pz      :     1.056106  p :     2.987740
      px      :     1.020053
      py      :     0.911581
      dz2     :     0.008657  d :     0.036990
      dxz     :     0.004320
      dyz     :     0.006730
      dx2y2   :     0.010025
      dxy     :     0.007258

  2 C s       :     3.224911  s :     3.224911
      pz      :     1.017088  p :     3.043196
      px      :     0.943645
      py      :     1.082463
      dz2     :     0.008860  d :     0.034651
      dxz     :     0.006806
      dyz     :     0.003811
      dx2y2   :     0.010145
      dxy     :     0.005029

  3 C s       :     3.173741  s :     3.173741
      pz      :     0.745518  p :     2.350336
      px      :     0.844901
      py      :     0.759917
      dz2     :     0.028842  d :     0.125209
      dxz     :     0.044640
      dyz     :     0.023877
      dx2y2   :     0.013889
      dxy     :     0.013960

  4 O s       :     3.837417  s :     3.837417
      pz      :     1.333514  p :     4.567702
      px      :     1.767868
      py      :     1.466321
      dz2     :     0.009886  d :     0.020532
      dxz     :    -0.000649
      dyz     :     0.008034
      dx2y2   :     0.001223
      dxy     :     0.002039

  5 O s       :     3.701249  s :     3.701249
      pz      :     1.620071  p :     4.443048
      px      :     1.144952
      py      :     1.678026
      dz2     :     0.006489  d :     0.026297
      dxz     :     0.009032
      dyz     :     0.007381
      dx2y2   :     0.004181
      dxy     :    -0.000787

  6 C s       :     3.251175  s :     3.251175
      pz      :     1.054252  p :     2.828326
      px      :     0.750702
      py      :     1.023371
      dz2     :     0.007074  d :     0.053535
      dxz     :     0.012968
      dyz     :     0.008966
      dx2y2   :     0.014954
      dxy     :     0.009573

  7 C s       :     3.331232  s :     3.331232
      pz      :     1.056848  p :     3.122785
      px      :     1.098716
      py      :     0.967221
      dz2     :     0.004243  d :     0.025644
      dxz     :     0.004450
      dyz     :     0.007203
      dx2y2   :     0.007594
      dxy     :     0.002154

  8 H s       :     0.833420  s :     0.833420
      pz      :     0.010370  p :     0.018206
      px      :     0.003694
      py      :     0.004141

  9 H s       :     0.827279  s :     0.827279
      pz      :     0.004666  p :     0.018253
      px      :     0.009752
      py      :     0.003834

 10 H s       :     0.833208  s :     0.833208
      pz      :     0.005429  p :     0.018295
      px      :     0.006703
      py      :     0.006163

 11 H s       :     0.821049  s :     0.821049
      pz      :     0.010592  p :     0.017812
      px      :     0.003336
      py      :     0.003884

 12 H s       :     0.835886  s :     0.835886
      pz      :     0.004312  p :     0.017924
      px      :     0.010030
      py      :     0.003583

 13 H s       :     0.817426  s :     0.817426
      pz      :     0.003403  p :     0.018045
      px      :     0.004229
      py      :     0.010413

 14 H s       :     0.819431  s :     0.819431
      pz      :     0.010628  p :     0.017776
      px      :     0.003245
      py      :     0.003903

 15 H s       :     0.834502  s :     0.834502
      pz      :     0.008929  p :     0.017372
      px      :     0.004916
      py      :     0.003527

 16 H s       :     0.814971  s :     0.814971
      pz      :     0.006317  p :     0.017814
      px      :     0.002819
      py      :     0.008677

 17 H s       :     0.805643  s :     0.805643
      pz      :     0.008967  p :     0.018207
      px      :     0.005736
      py      :     0.003504

 18 H s       :     0.828691  s :     0.828691
      pz      :     0.005644  p :     0.018196
      px      :     0.004304
      py      :     0.008248

 19 H s       :     0.833960  s :     0.833960
      pz      :     0.004218  p :     0.018492
      px      :     0.010516
      py      :     0.003758


------------------------
MULLIKEN OVERLAP CHARGES
------------------------
B(  0-C ,  1-C ) :   0.4307 B(  0-C ,  2-C ) :  -0.1983 B(  0-C ,  8-H ) :   0.8473 
B(  0-C ,  9-H ) :   0.8390 B(  0-C , 10-H ) :   0.7941 B(  0-C , 11-H ) :  -0.0572 
B(  0-C , 12-H ) :  -0.0505 B(  1-C ,  2-C ) :   0.4202 B(  1-C ,  3-C ) :  -0.1014 
B(  1-C ,  8-H ) :  -0.0895 B(  1-C ,  9-H ) :  -0.0863 B(  1-C , 10-H ) :  -0.0733 
B(  1-C , 11-H ) :   0.8527 B(  1-C , 12-H ) :   0.8235 B(  1-C , 13-H ) :  -0.0582 
B(  1-C , 14-H ) :  -0.0765 B(  2-C ,  3-C ) :   0.2553 B(  2-C ,  4-O ) :  -0.1197 
B(  2-C ,  5-O ) :  -0.0699 B(  2-C ,  9-H ) :  -0.0510 B(  2-C , 11-H ) :  -0.0610 
B(  2-C , 12-H ) :  -0.1147 B(  2-C , 13-H ) :   0.7743 B(  2-C , 14-H ) :   0.9104 
B(  3-C ,  4-O ) :   0.9443 B(  3-C ,  5-O ) :   0.3113 B(  3-C ,  6-C ) :  -0.2057 
B(  3-C ,  9-H ) :   0.0622 B(  3-C , 14-H ) :  -0.1758 B(  4-O ,  5-O ) :  -0.2248 
B(  5-O ,  6-C ) :   0.3345 B(  5-O ,  7-C ) :  -0.1216 B(  5-O , 15-H ) :  -0.0960 
B(  5-O , 16-H ) :  -0.0642 B(  6-C ,  7-C ) :   0.5219 B(  6-C , 15-H ) :   0.7945 
B(  6-C , 16-H ) :   0.8728 B(  6-C , 17-H ) :  -0.0950 B(  6-C , 18-H ) :  -0.0680 
B(  6-C , 19-H ) :  -0.0629 B(  7-C , 16-H ) :  -0.0868 B(  7-C , 17-H ) :   0.8516 
B(  7-C , 18-H ) :   0.8245 B(  7-C , 19-H ) :   0.7932 


                     *******************************
                     * LOEWDIN POPULATION ANALYSIS *
                     *******************************

----------------------
LOEWDIN ATOMIC CHARGES
----------------------
   0 C :   -0.416842
   1 C :   -0.290742
   2 C :   -0.231422
   3 C :    0.353834
   4 O :   -0.436124
   5 O :   -0.595611
   6 C :    0.027070
   7 C :   -0.393084
   8 H :    0.151844
   9 H :    0.155088
  10 H :    0.152441
  11 H :    0.165740
  12 H :    0.153084
  13 H :    0.180672
  14 H :    0.176305
  15 H :    0.177874
  16 H :    0.187802
  17 H :    0.165730
  18 H :    0.157124
  19 H :    0.159214

-------------------------------
LOEWDIN REDUCED ORBITAL CHARGES
-------------------------------
  0 C s       :     2.970581  s :     2.970581
      pz      :     1.156032  p :     3.382995
      px      :     1.149543
      py      :     1.077421
      dz2     :     0.015179  d :     0.063265
      dxz     :     0.008176
      dyz     :     0.011317
      dx2y2   :     0.015707
      dxy     :     0.012885

  1 C s       :     2.934984  s :     2.934984
      pz      :     1.128048  p :     3.275860
      px      :     1.092236
      py      :     1.055577
      dz2     :     0.019869  d :     0.079897
      dxz     :     0.009673
      dyz     :     0.013453
      dx2y2   :     0.022121
      dxy     :     0.014781

  2 C s       :     2.924195  s :     2.924195
      pz      :     1.099019  p :     3.233579
      px      :     1.018448
      py      :     1.116112
      dz2     :     0.020439  d :     0.073648
      dxz     :     0.013901
      dyz     :     0.008009
      dx2y2   :     0.020208
      dxy     :     0.011092

  3 C s       :     2.736542  s :     2.736542
      pz      :     0.943474  p :     2.637311
      px      :     0.944246
      py      :     0.749591
      dz2     :     0.064829  d :     0.272314
      dxz     :     0.099296
      dyz     :     0.052633
      dx2y2   :     0.028116
      dxy     :     0.027439

  4 O s       :     3.548027  s :     3.548027
      pz      :     1.477577  p :     4.669423
      px      :     1.725823
      py      :     1.466022
      dz2     :     0.065860  d :     0.218675
      dxz     :     0.067074
      dyz     :     0.049644
      dx2y2   :     0.020455
      dxy     :     0.015642

  5 O s       :     3.465129  s :     3.465129
      pz      :     1.638312  p :     4.655912
      px      :     1.355389
      py      :     1.662211
      dz2     :     0.076070  d :     0.474569
      dxz     :     0.130896
      dyz     :     0.053368
      dx2y2   :     0.115603
      dxy     :     0.098631

  6 C s       :     2.870139  s :     2.870139
      pz      :     1.072529  p :     2.982599
      px      :     0.840672
      py      :     1.069397
      dz2     :     0.013543  d :     0.120192
      dxz     :     0.031816
      dyz     :     0.021512
      dx2y2   :     0.033784
      dxy     :     0.019536

  7 C s       :     2.974398  s :     2.974398
      pz      :     1.130385  p :     3.358274
      px      :     1.146518
      py      :     1.081371
      dz2     :     0.009412  d :     0.060412
      dxz     :     0.010999
      dyz     :     0.016706
      dx2y2   :     0.018634
      dxy     :     0.004660

  8 H s       :     0.804758  s :     0.804758
      pz      :     0.025906  p :     0.043398
      px      :     0.008118
      py      :     0.009374

  9 H s       :     0.801101  s :     0.801101
      pz      :     0.010744  p :     0.043811
      px      :     0.024351
      py      :     0.008716

 10 H s       :     0.804049  s :     0.804049
      pz      :     0.012710  p :     0.043510
      px      :     0.016265
      py      :     0.014536

 11 H s       :     0.790529  s :     0.790529
      pz      :     0.026915  p :     0.043731
      px      :     0.007642
      py      :     0.009174

 12 H s       :     0.803613  s :     0.803613
      pz      :     0.010340  p :     0.043303
      px      :     0.024586
      py      :     0.008376

 13 H s       :     0.775319  s :     0.775319
      pz      :     0.007874  p :     0.044009
      px      :     0.010149
      py      :     0.025986

 14 H s       :     0.779658  s :     0.779658
      pz      :     0.026899  p :     0.044036
      px      :     0.007564
      py      :     0.009574

 15 H s       :     0.782294  s :     0.782294
      pz      :     0.022194  p :     0.039831
      px      :     0.009630
      py      :     0.008007

 16 H s       :     0.769348  s :     0.769348
      pz      :     0.014897  p :     0.042849
      px      :     0.006357
      py      :     0.021595

 17 H s       :     0.790082  s :     0.790082
      pz      :     0.022465  p :     0.044188
      px      :     0.013860
      py      :     0.007863

 18 H s       :     0.799367  s :     0.799367
      pz      :     0.013745  p :     0.043509
      px      :     0.009796
      py      :     0.019968

 19 H s       :     0.796739  s :     0.796739
      pz      :     0.009532  p :     0.044046
      px      :     0.026174
      py      :     0.008341


---------------------------------
LOEWDIN BOND ORDERS (THRESH 0.050000)
---------------------------------
B(  0-C ,  1-C ) :   1.1424 B(  0-C ,  2-C ) :   0.0665 B(  0-C ,  8-H ) :   0.9288 
B(  0-C ,  9-H ) :   0.9203 B(  0-C , 10-H ) :   0.9291 B(  1-C ,  2-C ) :   1.0834 
B(  1-C ,  3-C ) :   0.0723 B(  1-C , 11-H ) :   0.8876 B(  1-C , 12-H ) :   0.8940 
B(  2-C ,  3-C ) :   0.9220 B(  2-C ,  4-O ) :   0.1812 B(  2-C ,  5-O ) :   0.1842 
B(  2-C , 13-H ) :   0.8660 B(  2-C , 14-H ) :   0.8657 B(  3-C ,  4-O ) :   2.1662 
B(  3-C ,  5-O ) :   1.4522 B(  3-C ,  6-C ) :   0.0834 B(  4-O ,  5-O ) :   0.4610 
B(  4-O ,  6-C ) :   0.0639 B(  5-O ,  6-C ) :   1.3084 B(  5-O ,  7-C ) :   0.1557 
B(  5-O , 15-H ) :   0.0968 B(  5-O , 16-H ) :   0.0918 B(  6-C ,  7-C ) :   1.0831 
B(  6-C , 15-H ) :   0.8338 B(  6-C , 16-H ) :   0.8189 B(  7-C , 17-H ) :   0.9188 
B(  7-C , 18-H ) :   0.9249 B(  7-C , 19-H ) :   0.9185 

------------------------------------------
LOEWDIN REDUCED ORBITAL POPULATIONS PER MO
-------------------------------------------
THRESHOLD FOR PRINTING IS 0.1%%
                      0         1         2         3         4         5   
                 -18.99682 -18.92706 -10.15092 -10.09100 -10.03991 -10.03583
                   2.00000   2.00000   2.00000   2.00000   2.00000   2.00000
                  --------  --------  --------  --------  --------  --------
 1 C  s               0.0       0.0       0.0       0.0       0.0      99.7
 2 C  s               0.0       0.0       0.0       0.0      99.6       0.0
 3 C  s               0.0       0.0      98.9       0.0       0.0       0.0
 4 O  s               0.0      99.9       0.0       0.0       0.0       0.0
 4 O  pz              0.0       0.0       0.2       0.0       0.0       0.0
 4 O  dz2             0.0       0.0       0.2       0.0       0.0       0.0
 5 O  s              99.9       0.0       0.0       0.0       0.0       0.0
 5 O  dxz             0.0       0.0       0.2       0.1       0.0       0.0
 5 O  dx2y2           0.0       0.0       0.0       0.2       0.0       0.0
 6 C  s               0.0       0.0       0.0      99.4       0.0       0.0

                      6         7         8         9        10        11   
                 -10.02889 -10.02062  -1.07117  -0.97484  -0.77369  -0.73939
                   2.00000   2.00000   2.00000   2.00000   2.00000   2.00000
                  --------  --------  --------  --------  --------  --------
 0 C  s               0.0      99.7       0.0       0.0       8.8       5.3
 0 C  py              0.0       0.0       0.0       0.0       2.4       0.7
 1 C  s               0.0       0.0       0.1       0.0      19.3       7.0
 1 C  pz              0.0       0.0       0.0       0.0       0.6       0.0
 1 C  px              0.0       0.0       0.2       0.1       1.3       0.1
 1 C  py              0.0       0.1       0.0       0.0       0.0       0.3
 2 C  s               0.0       0.0       1.0       0.3      19.9       1.0
 2 C  pz              0.0       0.0       0.2       0.4       0.5       0.3
 2 C  px              0.0       0.0       1.8       0.1       0.2       1.7
 2 C  py              0.0       0.0       0.0       0.0       1.1       0.3
 3 C  s               0.0       0.0      16.1       4.2       2.6       1.0
 3 C  pz              0.0       0.0       0.1      19.1       3.2       1.5
 3 C  px              0.0       0.0       4.6       0.4       6.1       0.6
 3 C  py              0.0       0.0       0.3       3.6       0.2       0.3
 3 C  dz2             0.0       0.0       0.2       0.8       0.0       0.0
 3 C  dxz             0.0       0.0       0.2       0.8       0.0       0.1
 3 C  dyz             0.0       0.0       0.5       0.2       0.0       0.0
 3 C  dxy             0.0       0.0       0.1       0.2       0.0       0.0
 4 O  s               0.0       0.0      11.6      42.7       1.5       0.2
 4 O  pz              0.0       0.0       2.6       3.1       0.3       0.1
 4 O  px              0.0       0.0       0.0       0.3       0.2       0.0
 4 O  py              0.0       0.0       0.4       0.3       0.0       0.0
 4 O  dz2             0.0       0.0       0.8       0.1       0.1       0.2
 4 O  dxz             0.0       0.0       0.0       0.2       0.4       0.0
 4 O  dyz             0.0       0.0       0.6       0.0       0.0       0.0
 5 O  s               0.0       0.0      42.2      15.7       0.0       1.2
 5 O  pz              0.0       0.0       2.4       0.4       0.0       0.1
 5 O  px              0.0       0.0       0.1       0.6       5.0       9.0
 5 O  py              0.0       0.0       0.4       0.2       0.3       1.0
 5 O  dz2             0.0       0.0       0.0       0.5       0.0       0.2
 5 O  dxz             0.0       0.0       0.1       0.4       0.3       0.7
 5 O  dyz             0.0       0.0       0.2       0.4       0.0       0.1
 5 O  dx2y2           0.0       0.0       0.2       0.1       0.0       0.6
 5 O  dxy             0.0       0.0       0.2       0.0       0.0       0.1
 6 C  s               0.0       0.0       4.5       1.8       4.1      18.1
 6 C  pz              0.0       0.0       0.2       0.4       0.0       0.5
 6 C  px              0.0       0.0       5.2       1.3       0.1       0.6
 6 C  py              0.1       0.0       0.1       0.0       0.2       2.0
 6 C  dx2y2           0.0       0.0       0.3       0.1       0.0       0.1
 7 C  s              99.7       0.0       0.4       0.1       2.3      20.1
 7 C  pz              0.0       0.0       0.2       0.1       0.1       0.6
 7 C  px              0.0       0.0       0.2       0.0       0.0       0.0
 7 C  py              0.0       0.0       0.5       0.1       0.3       1.3
 8 H  s               0.0       0.0       0.0       0.0       1.2       0.8
 9 H  s               0.0       0.0       0.0       0.0       1.2       0.8
10 H  s               0.0       0.0       0.0       0.0       1.1       0.8
11 H  s               0.0       0.0       0.0       0.0       2.5       1.0
11 H  pz              0.0       0.0       0.0       0.0       0.2       0.1
12 H  s               0.0       0.0       0.0       0.0       2.6       1.1
12 H  px              0.0       0.0       0.0       0.0       0.2       0.1
13 H  s               0.0       0.0       0.1       0.0       2.7       0.2
13 H  py              0.0       0.0       0.0       0.0       0.2       0.0
14 H  s               0.0       0.0       0.1       0.0       3.0       0.1
14 H  pz              0.0       0.0       0.0       0.0       0.3       0.0
15 H  s               0.0       0.0       0.3       0.2       0.7       3.4
15 H  pz              0.0       0.0       0.0       0.0       0.0       0.2
16 H  s               0.0       0.0       0.3       0.1       0.6       2.8
16 H  py              0.0       0.0       0.0       0.0       0.0       0.2
17 H  s               0.0       0.0       0.0       0.0       0.3       3.1
17 H  pz              0.0       0.0       0.0       0.0       0.0       0.2
18 H  s               0.0       0.0       0.0       0.0       0.3       3.2
18 H  py              0.0       0.0       0.0       0.0       0.0       0.2
19 H  s               0.0       0.0       0.0       0.0       0.3       3.4
19 H  px              0.0       0.0       0.0       0.0       0.0       0.3

                     12        13        14        15        16        17   
                  -0.67749  -0.62600  -0.56670  -0.51863  -0.47407  -0.45417
                   2.00000   2.00000   2.00000   2.00000   2.00000   2.00000
                  --------  --------  --------  --------  --------  --------
 0 C  s              19.5       5.6       7.8       0.3       0.1       0.0
 0 C  pz              0.0       0.0       0.3       0.2       2.3       0.0
 0 C  px              0.1       0.1       1.1       0.2       0.6       2.4
 0 C  py              0.1       0.9       6.2       0.8       0.5       0.0
 1 C  s               2.5       1.4      13.9       1.2       0.2       0.2
 1 C  pz              0.5       0.1       1.0       0.9       8.7       0.0
 1 C  px              0.6       0.0       3.6       0.5       1.9       4.0
 1 C  py              8.3       3.9       2.3       0.1       0.1       0.4
 1 C  dxy             0.1       0.0       0.0       0.0       0.0       0.0
 2 C  s              12.3       3.4       2.2       1.6       2.0       0.3
 2 C  pz              0.2       0.1       1.5       0.8      12.8       1.9
 2 C  px              1.4       2.2       5.6       0.5       7.8       0.2
 2 C  py              1.1       0.2       1.2       0.5       0.7       0.1
 2 C  dxz             0.0       0.0       0.1       0.0       0.1       0.0
 2 C  dx2y2           0.0       0.0       0.0       0.1       0.1       0.0
 3 C  s               2.5       1.5       0.9       2.5       2.0       0.3
 3 C  pz              2.0       1.5       0.6       1.2       0.2       3.2
 3 C  px              4.5       1.2       3.2       1.8       9.2       0.2
 3 C  py              0.1       1.0       0.5       0.3       0.6       3.4
 3 C  dz2             0.0       0.0       0.0       0.0       0.0       0.3
 3 C  dxz             0.1       0.1       0.1       0.0       0.0       0.0
 4 O  s               0.9       0.3       0.2       1.9       1.4       3.9
 4 O  pz              0.4       0.2       0.2       2.3       1.0       3.1
 4 O  px              0.3       0.1       0.3       0.6       7.7       0.1
 4 O  py              0.0       0.1       0.1       0.4       0.5       5.5
 4 O  dz2             0.1       0.1       0.0       0.2       0.0       0.1
 4 O  dxz             0.4       0.0       0.2       0.1       0.8       0.0
 4 O  dyz             0.0       0.1       0.0       0.1       0.0       0.4
 4 O  dx2y2           0.0       0.1       0.0       0.0       0.0       0.0
 4 O  dxy             0.0       0.0       0.0       0.0       0.3       0.0
 5 O  s               1.0       0.1       0.8       4.3       0.2       1.5
 5 O  pz              0.1       1.2       0.2       7.2       2.8      17.8
 5 O  px              2.2      16.4       0.3       7.0       0.1       3.7
 5 O  py              0.1       0.5       0.1       7.3       3.0       4.2
 5 O  dz2             0.2       0.1       0.5       0.0       0.3       0.5
 5 O  dxz             0.0       0.2       0.0       0.1       1.2       0.1
 5 O  dyz             0.0       0.1       0.0       0.2       0.0       0.1
 5 O  dx2y2           0.3       0.5       1.0       0.5       0.2       0.0
 5 O  dxy             0.4       0.1       0.0       0.1       0.2       0.0
 6 C  s               0.4       4.7       3.3       5.1       0.1       0.3
 6 C  pz              1.0       4.1       0.4       3.7       5.4       8.7
 6 C  px              1.1       0.7       1.3      10.7       0.4       8.7
 6 C  py              1.3       3.8       1.0       5.2       2.3       0.0
 6 C  dxz             0.0       0.0       0.0       0.2       0.0       0.0
 6 C  dx2y2           0.1       0.2       0.0       0.2       0.0       0.0
 7 C  s               7.5      14.1       1.5       1.1       0.0       0.2
 7 C  pz              0.0       0.9       0.5       0.0       2.4       0.9
 7 C  px              0.0       0.1       0.0       0.9       0.0       7.3
 7 C  py              0.0       1.7       1.3       5.6       0.2       1.7
 8 H  s               3.9       1.5       3.8       0.4       1.1       0.0
 8 H  pz              0.3       0.1       0.3       0.0       0.0       0.0
 9 H  s               3.8       1.7       3.8       0.3       0.2       0.8
 9 H  px              0.3       0.1       0.2       0.0       0.0       0.0
10 H  s               4.4       1.7       3.0       0.1       0.1       0.2
10 H  px              0.2       0.1       0.1       0.0       0.0       0.0
10 H  py              0.1       0.0       0.0       0.0       0.0       0.0
11 H  s               0.5       0.4       5.9       0.9       2.7       0.0
11 H  pz              0.0       0.0       0.4       0.1       0.1       0.0
12 H  s               0.6       0.5       6.9       0.6       0.9       1.6
12 H  px              0.0       0.0       0.4       0.0       0.0       0.0
13 H  s               3.1       1.4       0.9       1.4       2.8       0.0
13 H  py              0.2       0.1       0.0       0.1       0.1       0.0
14 H  s               2.7       0.5       1.4       1.1       6.0       0.3
14 H  pz              0.2       0.0       0.1       0.0       0.2       0.0
15 H  s               0.0       2.4       2.2       2.1       2.1       5.8
15 H  pz              0.0       0.1       0.1       0.2       0.1       0.1
15 H  px              0.0       0.1       0.0       0.0       0.0       0.0
16 H  s               0.1       1.2       1.6       9.7       1.4       0.2
16 H  pz              0.0       0.1       0.1       0.2       0.0       0.0
16 H  py              0.0       0.0       0.1       0.4       0.0       0.0
17 H  s               1.5       4.2       0.9       0.7       0.7       1.0
17 H  pz              0.1       0.2       0.0       0.0       0.0       0.1
17 H  px              0.0       0.1       0.0       0.0       0.0       0.0
18 H  s               1.5       3.9       0.8       2.4       0.2       0.4
18 H  pz              0.0       0.1       0.0       0.1       0.0       0.0
18 H  py              0.1       0.2       0.0       0.1       0.0       0.0
19 H  s               1.8       4.5       0.5       0.1       0.0       2.7
19 H  px              0.1       0.3       0.0       0.0       0.0       0.1

                     18        19        20        21        22        23   
                  -0.44510  -0.41868  -0.40658  -0.39124  -0.37808  -0.36710
                   2.00000   2.00000   2.00000   2.00000   2.00000   2.00000
                  --------  --------  --------  --------  --------  --------
 0 C  s               0.3       0.0       0.1       0.0       0.1       0.0
 0 C  pz              2.4       6.2       4.6       2.2       7.4      15.6
 0 C  px              1.8       3.5       3.6      14.1       0.2       2.1
 0 C  py              2.6       0.0       5.2       0.3       3.9       0.1
 0 C  dz2             0.0       0.0       0.0       0.0       0.1       0.1
 1 C  s               0.0       0.0       0.3       0.0       0.1       0.0
 1 C  pz              4.1       8.0       3.5       0.8       1.4       0.8
 1 C  px              2.3       4.9       5.8       5.2       0.1       0.0
 1 C  py              0.3       0.2       0.7       3.6       5.8       2.2
 2 C  s               0.0       0.1       0.1       0.2       0.0       0.2
 2 C  pz              2.6       0.8       0.2       0.0       7.6      10.9
 2 C  px              0.1       0.4       0.1       9.3       3.3       0.0
 2 C  py             17.0       0.1       9.6       0.7       1.5       0.7
 2 C  dz2             0.0       0.0       0.0       0.0       0.1       0.2
 2 C  dxz             0.0       0.0       0.0       0.2       0.0       0.0
 2 C  dx2y2           0.0       0.0       0.0       0.1       0.0       0.0
 2 C  dxy             0.0       0.0       0.1       0.0       0.0       0.0
 3 C  s               0.5       1.9       0.1       0.4       0.0       0.1
 3 C  pz              0.3       2.7       0.7       0.3       1.0       3.3
 3 C  px              0.0       0.9       0.1       7.9       0.3       0.2
 3 C  py             11.4       0.1       1.3       0.5       1.5       1.2
 3 C  dxz             0.0       0.0       0.0       0.0       0.1       0.1
 3 C  dxy             0.0       0.0       0.2       0.0       0.1       0.0
 4 O  s               3.7       5.5       1.2       0.0       0.0       1.0
 4 O  pz             10.3      19.2       4.5       0.2       0.1       3.7
 4 O  px              0.5       0.5       0.3       3.3       1.7       0.1
 4 O  py              1.2       2.4       0.0       0.7       1.6       6.0
 4 O  dz2             0.4       0.3       0.0       0.0       0.1       0.1
 4 O  dxz             0.0       0.0       0.0       0.3       0.1       0.0
 4 O  dyz             0.2       0.1       0.0       0.0       0.1       0.1
 4 O  dx2y2           0.2       0.1       0.0       0.0       0.0       0.1
 5 O  s               0.0       0.6       0.0       0.2       1.6       0.1
 5 O  pz              0.0       2.3       1.8       3.2       0.5       0.1
 5 O  px              4.9       0.0       4.9       0.3       0.7       0.8
 5 O  py              8.6       0.5       8.0       1.4       3.1       1.8
 5 O  dz2             0.0       0.0       0.0       0.0       0.2       0.2
 5 O  dxz             0.0       0.5       0.1       0.2       0.1       0.0
 5 O  dyz             0.2       0.0       0.2       0.0       0.0       0.0
 5 O  dx2y2           0.6       0.0       0.0       0.1       0.0       0.1
 5 O  dxy             0.0       0.5       0.5       0.1       0.3       0.1
 6 C  s               0.3       0.1       0.3       0.0       0.1       0.1
 6 C  pz              0.0       3.6       0.9       3.5       0.3       0.1
 6 C  px              1.7       0.0       0.4       1.2       0.9       0.2
 6 C  py              2.1       4.4       8.4       0.1       0.1       0.0
 7 C  s               0.3       0.0       0.3       0.0       0.0       0.0
 7 C  pz              1.7       8.5       6.2       6.5       3.1       2.4
 7 C  px              0.1       0.1       2.2       2.8      16.9      11.9
 7 C  py              1.6       0.8       4.4       4.6       4.1       1.0
 7 C  dx2y2           0.0       0.0       0.1       0.0       0.2       0.2
 8 H  s               0.1       1.9       0.6       0.5       4.9       7.4
 8 H  pz              0.0       0.0       0.0       0.0       0.1       0.1
 9 H  s               0.0       2.4       0.0       7.3       0.0       0.0
 9 H  pz              0.0       0.0       0.0       0.0       0.0       0.1
 9 H  px              0.0       0.1       0.0       0.1       0.0       0.0
10 H  s               2.8       0.0       5.8       0.7       0.0       3.4
11 H  s               1.1       2.9       1.0       0.6       0.3       0.0
12 H  s               0.2       3.2       0.8       2.2       0.4       0.2
13 H  s               5.2       0.1       4.5       2.4       1.7       0.2
13 H  py              0.1       0.0       0.1       0.1       0.0       0.0
14 H  s               2.7       0.1       0.0       0.0       4.7       7.5
14 H  pz              0.1       0.0       0.0       0.0       0.1       0.1
15 H  s               0.8       1.4       0.0       1.8       0.1       0.0
16 H  s               0.0       2.6       0.4       0.5       0.0       0.3
17 H  s               0.6       2.3       1.1       3.8       0.3       0.1
18 H  s               0.2       1.7       0.0       2.7       7.1       3.9
18 H  py              0.0       0.1       0.0       0.0       0.1       0.1
19 H  s               0.5       0.4       3.0       0.7       8.6       6.9
19 H  px              0.0       0.0       0.1       0.0       0.1       0.1

                     24        25        26        27        28        29   
                  -0.35171  -0.34496  -0.31823  -0.31133  -0.30960  -0.30285
                   2.00000   2.00000   2.00000   2.00000   2.00000   2.00000
                  --------  --------  --------  --------  --------  --------
 0 C  s               0.1       0.0       0.4       0.2       0.0       0.1
 0 C  pz              0.3       0.1       0.2       7.7       8.2       0.0
 0 C  px              0.8      12.7       6.9       2.0       1.7       3.4
 0 C  py              6.1       0.2       8.3       7.6       5.9       1.7
 0 C  dz2             0.0       0.0       0.0       0.3       0.1       0.0
 0 C  dyz             0.0       0.0       0.0       0.1       0.3       0.0
 0 C  dx2y2           0.0       0.1       0.2       0.0       0.0       0.1
 0 C  dxy             0.0       0.1       0.0       0.1       0.2       0.0
 1 C  s               0.2       0.1       0.2       0.0       0.2       0.1
 1 C  pz              0.1       0.0       0.0      14.8      10.7       0.0
 1 C  px              1.3       1.3       8.7       2.7       3.5       5.9
 1 C  py              3.3       0.2       6.6       6.9       6.5       0.9
 1 C  dz2             0.0       0.0       0.0       0.7       0.1       0.0
 1 C  dyz             0.0       0.0       0.0       0.1       0.3       0.0
 1 C  dx2y2           0.0       0.0       0.4       0.0       0.0       0.3
 1 C  dxy             0.0       0.1       0.0       0.1       0.2       0.0
 2 C  s               0.0       0.5       0.1       0.0       0.6       0.0
 2 C  pz              0.0       1.9       1.5       1.9       6.1       0.2
 2 C  px              0.5       0.8       1.2       0.0       3.9       4.9
 2 C  py              0.1       0.7       3.0       4.2      11.8       0.6
 2 C  dz2             0.0       0.0       0.1       0.4       0.0       0.0
 2 C  dx2y2           0.0       0.0       0.2       0.0       0.1       0.2
 2 C  dxy             0.0       0.0       0.0       0.0       0.2       0.0
 3 C  s               0.0       0.0       0.0       0.1       0.0       0.6
 3 C  pz              1.0       1.1       0.3       0.1       0.2       2.9
 3 C  px              0.1       1.4       1.6       0.9       0.1       0.5
 3 C  py              6.8       2.4       0.2       0.3       0.9       0.1
 3 C  dz2             0.1       0.2       0.1       0.0       0.0       0.3
 3 C  dyz             0.1       0.1       0.0       0.0       0.1       0.1
 3 C  dx2y2           0.0       0.2       0.0       0.0       0.0       0.1
 3 C  dxy             0.0       0.0       0.0       0.1       0.2       0.0
 4 O  s               0.0       0.8       0.0       0.1       0.0       0.6
 4 O  pz              0.8       8.7       0.5       1.1       0.7       4.1
 4 O  px              0.2       0.0       2.1       0.8       0.3       0.1
 4 O  py             13.8       0.4       0.1       0.0       4.8       1.2
 4 O  dz2             0.2       0.1       0.0       0.0       0.0       0.3
 4 O  dxz             0.0       0.0       0.0       0.1       0.0       0.0
 4 O  dyz             0.2       0.2       0.0       0.0       0.0       0.1
 5 O  s               0.0       0.4       0.2       0.0       0.0       2.7
 5 O  pz              0.3       9.1       2.3       0.2       0.7      17.5
 5 O  px              0.7       2.8       0.2       0.1       0.1       5.4
 5 O  py              0.0       0.2       0.5       1.3       2.2       2.2
 5 O  dz2             0.0       0.0       0.0       0.0       0.0       0.4
 5 O  dxz             0.7       0.0       0.6       0.1       0.0       0.6
 5 O  dx2y2           0.5       0.2       0.0       0.0       0.1       0.6
 5 O  dxy             0.8       0.2       0.1       0.1       0.1       0.5
 6 C  s               0.3       0.1       0.0       0.0       0.0       0.2
 6 C  pz              6.1       0.3       6.6       0.1       0.0       6.6
 6 C  px              1.7       2.1       0.5       0.0       0.0       2.0
 6 C  py              8.8       3.2       2.2       1.4       1.8       1.9
 6 C  dz2             0.1       0.2       0.1       0.0       0.0       0.0
 6 C  dxz             0.2       0.0       0.3       0.0       0.0       0.2
 6 C  dyz             0.1       0.1       0.1       0.0       0.1       0.1
 6 C  dx2y2           0.0       0.0       0.1       0.0       0.0       0.3
 6 C  dxy             0.1       0.0       0.0       0.0       0.0       0.1
 7 C  s               0.3       0.0       0.0       0.1       0.1       0.0
 7 C  pz              7.2       4.5       4.7       0.0       0.0       2.9
 7 C  px              6.5       6.1       0.5       0.1       0.4       0.8
 7 C  py              8.2       8.1       1.3       1.1       1.8       0.5
 7 C  dz2             0.1       0.1       0.1       0.0       0.0       0.0
 7 C  dxz             0.1       0.2       0.1       0.0       0.0       0.0
 7 C  dyz             0.1       0.1       0.1       0.0       0.0       0.1
 7 C  dx2y2           0.0       0.0       0.1       0.0       0.0       0.2
 8 H  s               0.0       0.1       0.0       8.1       4.0       0.0
 8 H  px              0.0       0.1       0.1       0.0       0.0       0.0
 9 H  s               0.0       6.1       5.2       3.8       0.0       2.5
 9 H  py              0.1       0.0       0.1       0.1       0.1       0.0
10 H  s               2.5       3.5       0.0       0.6       9.1       0.3
10 H  pz              0.0       0.1       0.0       0.1       0.0       0.0
10 H  px              0.0       0.0       0.0       0.0       0.1       0.0
11 H  s               0.0       0.1       0.4      14.6       4.3       0.0
11 H  pz              0.0       0.0       0.0       0.2       0.0       0.0
11 H  py              0.0       0.0       0.0       0.0       0.1       0.0
12 H  s               0.7       1.1       6.5       4.9       0.0       4.7
12 H  pz              0.0       0.0       0.0       0.0       0.1       0.0
13 H  s               0.0       0.1       4.0       2.7       3.3       1.9
13 H  px              0.0       0.0       0.0       0.0       0.1       0.0
14 H  s               0.0       0.3       1.7       4.3       1.0       0.1
14 H  py              0.0       0.0       0.0       0.0       0.2       0.0
15 H  s               5.4       1.3       5.5       0.0       0.0       2.3
15 H  py              0.1       0.0       0.0       0.0       0.0       0.0
16 H  s               1.0       0.8       4.7       0.9       0.6       7.2
16 H  pz              0.1       0.0       0.0       0.0       0.0       0.0
17 H  s               7.2       6.1       4.0       0.1       0.1       0.8
18 H  s               1.2       3.8       2.7       0.3       0.3       3.0
18 H  pz              0.1       0.0       0.0       0.0       0.0       0.0
18 H  px              0.0       0.1       0.0       0.0       0.0       0.0
19 H  s               1.4       2.7       0.1       0.1       0.4       1.1

                     30        31        32        33        34        35   
                  -0.27095  -0.23497  -0.01559   0.07466   0.08758   0.11083
                   2.00000   2.00000   0.00000   0.00000   0.00000   0.00000
                  --------  --------  --------  --------  --------  --------
 0 C  s               0.0       0.0       0.2      11.4       2.4       6.9
 0 C  pz              0.0       0.0       0.1       0.1       0.3       0.5
 0 C  px              0.1       0.0       0.1       1.5       0.5       2.2
 0 C  py              0.1       0.0       0.3       0.6       1.4       1.6
 0 C  dz2             0.0       0.0       0.0       0.0       0.0       0.2
 0 C  dx2y2           0.0       0.0       0.1       0.1       0.0       0.1
 0 C  dxy             0.0       0.0       0.0       0.1       0.1       0.2
 1 C  s               0.0       0.0       1.8       3.4       0.0       9.0
 1 C  pz              0.2       0.0       1.1       0.6       0.0       0.2
 1 C  px              0.1       0.4       0.8       0.8       0.3       5.2
 1 C  py              0.1       0.0       0.7       0.1       2.4       0.1
 1 C  dz2             0.0       0.1       0.1       0.1       0.0       0.1
 1 C  dxy             0.0       0.0       0.0       0.0       0.2       0.0
 2 C  s               0.0       0.5       0.1       6.4       3.0       1.2
 2 C  pz              0.0       2.3       0.0       0.9       0.4       0.6
 2 C  px              0.0       4.8       0.6       0.6       0.2       3.7
 2 C  py              0.2       0.1       0.1       0.6       1.0       1.0
 2 C  dz2             0.0       0.1       0.0       0.0       0.1       0.0
 2 C  dxz             0.0       0.0       0.2       0.0       0.1       0.2
 2 C  dx2y2           0.0       0.0       0.2       0.0       0.0       0.0
 2 C  dxy             0.0       0.0       1.6       0.0       0.0       0.0
 3 C  s               0.0       0.3       0.0       9.6       0.5       0.1
 3 C  pz              0.1       0.6       5.2       1.5       2.5       1.3
 3 C  px              0.1       1.3       1.6       1.0       0.5       2.4
 3 C  py              0.4       0.1      31.7       0.4       1.4       1.9
 3 C  dz2             0.8       0.1       0.2       0.3       0.2       0.0
 3 C  dxz             0.3       2.9       0.0       0.1       0.0       0.0
 3 C  dyz             0.8       0.5       0.4       0.6       0.0       0.0
 3 C  dx2y2           0.3       0.3       0.0       0.4       0.6       0.0
 3 C  dxy             0.0       0.3       0.5       0.1       0.2       0.0
[...]
 3 C  px              0.2       0.3       3.2       0.5       0.0       0.0
 3 C  py              0.2       0.2       1.2       0.8       0.0       0.0
 3 C  dz2             4.0       0.0       0.1       3.9       0.0       0.0
 3 C  dxz             4.0       1.1       8.3       0.7       0.0       0.0
 3 C  dyz             1.1       0.2       1.7       1.8       0.0       0.0
 3 C  dx2y2           5.1       0.0       0.1       0.0       0.0       0.0
 3 C  dxy             0.0       0.3       2.3       0.1       0.0       0.0
 4 O  s               2.1       1.0       0.6      19.3       0.0       0.0
 4 O  pz              1.0       0.8       0.1      18.2       0.0       0.0
 4 O  px              5.5       0.1       0.4       1.2       0.0       0.0
 4 O  py              0.9       0.2       0.0       2.6       0.0       0.0
 4 O  dz2             0.2       1.3       0.2      19.2       0.0       0.0
 4 O  dxz            14.6       0.0       1.2       4.6       0.0       0.0
 4 O  dyz             1.9       0.6       0.1       9.0       0.0       0.0
 4 O  dx2y2           0.2       0.2       0.8       0.1       0.0       0.0
 4 O  dxy             2.1       0.0       0.0       0.6       0.0       0.0
 5 O  s               4.0      26.6       6.4       1.4       0.0       0.0
 5 O  pz              5.0       5.3       4.1       0.2       0.0       0.0
 5 O  px              0.1       9.2      23.5       0.4       0.0       0.0
 5 O  py              1.0       0.0       3.4       0.0       0.0       0.0
 5 O  dz2             6.2       2.1       0.8       0.2       0.0       0.0
 5 O  dxz             0.2       0.7      19.9       0.2       0.0       0.0
 5 O  dyz             2.2       0.3       4.5       0.0       0.0       0.0
 5 O  dx2y2           0.5      17.8       0.0       1.4       0.0       0.0
 5 O  dxy             0.1       3.6       4.1       0.1       0.0       0.0
 6 C  s               0.1       1.4       0.5       0.1       1.0       8.5
 6 C  pz              0.2       0.4       0.2       0.0       0.0       0.0
 6 C  px              0.1       7.4       1.8       0.3       0.0       0.0
 6 C  py              0.2       0.0       0.0       0.0       0.0       0.0
 6 C  dz2             0.0       1.9       0.5       0.1       0.0       0.0
 6 C  dxz             1.6       3.6       0.6       0.2       0.0       0.0
 6 C  dyz             0.4       0.2       0.1       0.0       0.0       0.0
 6 C  dx2y2           0.1       7.0       1.4       0.2       0.0       0.0
 6 C  dxy             0.5       0.4       0.1       0.0       0.0       0.0
 7 C  s               0.0       0.0       0.0       0.0      43.0      40.4
 7 C  pz              0.2       0.0       0.0       0.0       0.0       0.0
 7 C  py              0.2       0.1       0.0       0.0       0.0       0.0
 7 C  dxz             0.3       0.2       0.0       0.0       0.0       0.0
 7 C  dyz             0.6       0.0       0.0       0.0       0.0       0.0
 7 C  dx2y2           0.4       0.3       0.0       0.0       0.0       0.0
 7 C  dxy             0.2       0.0       0.0       0.0       0.0       0.0
 8 H  s               0.1       0.0       0.0       0.0       0.0       0.0
 8 H  pz              0.2       0.0       0.0       0.0       0.0       0.0
 9 H  s               0.4       0.0       0.0       0.0       0.0       0.0
 9 H  pz              0.2       0.0       0.0       0.0       0.0       0.0
 9 H  px              0.8       0.0       0.0       0.0       0.0       0.0
 9 H  py              0.1       0.0       0.0       0.0       0.0       0.0
11 H  s               0.4       0.0       0.0       0.0       0.0       0.0
11 H  pz              0.8       0.0       0.0       0.0       0.0       0.0
12 H  s               0.9       0.0       0.0       0.0       0.0       0.0
12 H  pz              0.2       0.0       0.0       0.0       0.0       0.0
12 H  px              1.9       0.0       0.0       0.0       0.0       0.0
14 H  s               1.3       0.0       0.1       0.0       0.0       0.0
14 H  pz              3.4       0.0       0.1       0.0       0.0       0.0
14 H  py              0.1       0.0       0.0       0.0       0.0       0.0
15 H  s               0.3       0.4       0.1       0.0       0.0       0.0
15 H  pz              0.7       1.2       0.1       0.0       0.0       0.0
16 H  s               0.4       0.3       0.1       0.0       0.0       0.0
16 H  pz              0.2       0.1       0.0       0.0       0.0       0.0
16 H  px              0.2       0.1       0.0       0.0       0.0       0.0
16 H  py              1.1       0.6       0.2       0.0       0.0       0.0
17 H  s               0.1       0.0       0.0       0.0       0.0       0.0
17 H  pz              0.1       0.0       0.0       0.0       0.0       0.0
18 H  s               0.5       0.0       0.0       0.0       0.0       0.0
18 H  pz              0.3       0.0       0.0       0.0       0.0       0.0
18 H  py              0.7       0.0       0.0       0.0       0.0       0.0
19 H  s               0.0       0.1       0.0       0.0       0.0       0.0
19 H  px              0.0       0.2       0.0       0.0       0.0       0.0

                    216       217       218       219       220       221   
                  22.01742  22.04049  22.10045  22.30578  43.70707  43.80213
                   0.00000   0.00000   0.00000   0.00000   0.00000   0.00000
                  --------  --------  --------  --------  --------  --------
 0 C  s               0.0      17.9       0.6       0.0       0.0       0.0
 1 C  s              77.8       1.1       2.6       8.5       0.0       0.0
 2 C  s               7.4      28.1      48.8       0.6       0.0       0.0
 3 C  s               8.2       0.1       0.0      89.9       0.0       0.0
 4 O  s               0.0       0.0       0.0       0.2      84.4      15.5
 4 O  pz              0.0       0.0       0.0       0.1       0.0       0.0
 5 O  s               0.0       0.0       0.1       0.1      15.5      84.4
 6 C  s               0.1      43.4      46.5       0.0       0.0       0.0
 7 C  s               6.2       9.0       1.1       0.1       0.0       0.0



                      *****************************
                      * MAYER POPULATION ANALYSIS *
                      *****************************

  NA   - Mulliken gross atomic population
  ZA   - Total nuclear charge
  QA   - Mulliken gross atomic charge
  VA   - Mayer's total valence
  BVA  - Mayer's bonded valence
  FA   - Mayer's free valence

  ATOM       NA         ZA         QA         VA         BVA        FA
  0 C      6.4910     6.0000    -0.4910     3.8332     3.8332    -0.0000
  1 C      6.2262     6.0000    -0.2262     3.6461     3.6461     0.0000
  2 C      6.3028     6.0000    -0.3028     3.6952     3.6952    -0.0000
  3 C      5.6493     6.0000     0.3507     3.7965     3.7965    -0.0000
  4 O      8.4257     8.0000    -0.4257     1.9348     1.9348    -0.0000
  5 O      8.1706     8.0000    -0.1706     1.9016     1.9016     0.0000
  6 C      6.1330     6.0000    -0.1330     3.6778     3.6778    -0.0000
  7 C      6.4797     6.0000    -0.4797     3.8063     3.8063    -0.0000
  8 H      0.8516     1.0000     0.1484     0.9633     0.9633     0.0000
  9 H      0.8455     1.0000     0.1545     0.9630     0.9630    -0.0000
 10 H      0.8515     1.0000     0.1485     0.9620     0.9620    -0.0000
 11 H      0.8389     1.0000     0.1611     0.9614     0.9614     0.0000
 12 H      0.8538     1.0000     0.1462     0.9590     0.9590     0.0000
 13 H      0.8355     1.0000     0.1645     0.9576     0.9576    -0.0000
 14 H      0.8372     1.0000     0.1628     0.9627     0.9627    -0.0000
 15 H      0.8519     1.0000     0.1481     0.9519     0.9519     0.0000
 16 H      0.8328     1.0000     0.1672     0.9600     0.9600     0.0000
 17 H      0.8239     1.0000     0.1761     0.9567     0.9567    -0.0000
 18 H      0.8469     1.0000     0.1531     0.9612     0.9612    -0.0000
 19 H      0.8525     1.0000     0.1475     0.9646     0.9646     0.0000

  Mayer bond orders larger than 0.100000
B(  0-C ,  1-C ) :   0.9047 B(  0-C ,  8-H ) :   0.9806 B(  0-C ,  9-H ) :   0.9718 
B(  0-C , 10-H ) :   0.9692 B(  1-C ,  2-C ) :   0.8833 B(  1-C , 11-H ) :   0.9727 
B(  1-C , 12-H ) :   0.9650 B(  2-C ,  3-C ) :   0.9378 B(  2-C , 13-H ) :   0.9446 
B(  2-C , 14-H ) :   1.0042 B(  3-C ,  4-O ) :   1.8330 B(  3-C ,  5-O ) :   1.0503 
B(  5-O ,  6-C ) :   0.8276 B(  6-C ,  7-C ) :   0.9277 B(  6-C , 15-H ) :   0.9616 
B(  6-C , 16-H ) :   0.9695 B(  7-C , 17-H ) :   0.9725 B(  7-C , 18-H ) :   0.9726 
B(  7-C , 19-H ) :   0.9641 

-------
TIMINGS
-------

Total SCF time: 0 days 0 hours 0 min 29 sec 

Total time                  ....      29.937 sec
Sum of individual times     ....      28.933 sec  ( 96.6%)

SCF preparation             ....       0.219 sec  (  0.7%)
Fock matrix formation       ....      27.364 sec  ( 91.4%)
  Startup                   ....       0.079 sec  (  0.3% of F)
  Split-RI-J                ....       5.413 sec  ( 19.8% of F)
  XC integration            ....      21.136 sec  ( 77.2% of F)
    XC Preparation          ....       0.000 sec  (  0.0% of XC)
    Basis function eval.    ....       3.654 sec  ( 17.3% of XC)
    Density eval.           ....       6.152 sec  ( 29.1% of XC)
    XC-Functional eval.     ....       2.586 sec  ( 12.2% of XC)
    XC-Potential eval.      ....       6.878 sec  ( 32.5% of XC)
Diagonalization             ....       0.000 sec  (  0.0%)
Density matrix formation    ....       0.292 sec  (  1.0%)
Total Energy calculation    ....       0.041 sec  (  0.1%)
Population analysis         ....       0.155 sec  (  0.5%)
Orbital Transformation      ....       0.091 sec  (  0.3%)
Orbital Orthonormalization  ....       0.000 sec  (  0.0%)
DIIS solution               ....       0.700 sec  (  2.3%)
  MO trafo                  ....       0.000 sec  (  0.0 % of DIIS)
  Orb grad                  ....       0.000 sec  (  0.0 % of DIIS)
  Energy W gradient         ....       0.000 sec  (  0.0 % of DIIS)
  DIIS error                ....       0.028 sec  (  3.9 % of DIIS)
  DIIS work                 ....       0.605 sec  ( 86.3 % of DIIS)
  Form Q                    ....       0.000 sec  (  0.0 % of DIIS)
  Form QpQm                 ....       0.000 sec  (  0.0 % of DIIS)
  Exp/Cayley                ....       0.000 sec  (  0.0 % of DIIS)
  Orb update                ....       0.000 sec  (  0.0 % of DIIS)
  Wake-sleep                ....       0.023 sec  (  3.3 % of DIIS)
SOSCF solution              ....       0.071 sec  (  0.2%)
  MO trafo                  ....       0.054 sec  ( 75.8 % of SOSCF)
  Orb grad                  ....       0.001 sec  (  1.0 % of SOSCF)
  Rot update                ....       0.000 sec  (  0.1 % of SOSCF)
  Step                      ....       0.016 sec  ( 23.0 % of SOSCF)
Finished LeanSCF after  30.1 sec

Maximum memory used throughout the entire LEANSCF-calculation: 24.2 MB


-------------------------------------------------------------------------------
                          DFT DISPERSION CORRECTION                            
                                                                               
                                DFTD4 V3.4.0                                   
-------------------------------------------------------------------------------
The R2SCAN3C composite method is recognized
Using three-body term ABC
Active option DFTDOPT                   ...         5   

-------------------------   ----------------
Dispersion correction           -0.005308846
-------------------------   ----------------

------------------   -----------------
gCP correction             0.011726015
------------------   -----------------

-------------------------   --------------------
FINAL SINGLE POINT ENERGY      -386.236578452002
-------------------------   --------------------


------------------------------------------------------------------------------
                              ORCA PROPERTY CALCULATIONS
------------------------------------------------------------------------------

GBWName                                 ... sp_gas.gbw
Number of atoms                         ...     20
Number of basis functions               ...    222
Max core memory                         ...   1024 MB

Electric properties:
Dipole moment                           ... YES
Quadrupole moment                       ...  NO
Static polarizability (Dipole/Dipole)   ...  NO
Static polarizability (Dipole/Quad.)    ...  NO
Static polarizability (Quad./Quad.)     ...  NO
Static polarizability (Velocity)        ...  NO

Atomic electric properties:
Dipole moment                           ...  NO
Quadrupole moment                       ...  NO
Static polarizability                   ...  NO

Choice of electric origin               ... Center of mass
Position of electric origin             ...    -0.000010    -0.000020    -0.000003

General magnetic properties:
Magnetizability                         ...  NO

EPR properties:
g-Tensor (aka g-matrix)                 ...  NO
Zero-Field splitting spin-orbit         ...  NO
Zero-field splitting spin-spin          ...  NO
Hyperfine couplings                     ...  NO (   0 nuclei)
Quadrupole couplings                    ...  NO (   0 nuclei)
Contact density                         ...  NO (   0 nuclei)

NMR properties:
Chemical shifts                         ...  NO (   0 nuclei)
Spin-rotation constants                 ...  NO (   0 nuclei)
Spin-spin couplings                     ...  NO (   0 nuclei,    0 pairs)

Choice of magnetic origin               ... GIAO
Position of magnetic origin             ...     0.000000     0.000000     0.000000

Properties with geometric perturbations:
SCF Hessian                             ...  NO
IR spectrum                             ...  NO
VCD spectrum                            ...  NO
X-ray spectroscopy properties:
SCF XES/XAS/RIXS spectra                ...  NO


-------------
DIPOLE MOMENT
-------------

Method             : SCF
Type of density    : Electron Density
Multiplicity       :   1
Irrep              :   0
Energy             :  -386.2429956205148187 Eh
Relativity type    : 
Basis              : AO
                                X                 Y                 Z
Electronic contribution:      2.009659133       5.933038156      -0.227887571
Nuclear contribution   :     -1.925879613      -6.365524727      -0.377726250
                        -----------------------------------------
Total Dipole Moment    :      0.083779519      -0.432486571      -0.605613820
                        -----------------------------------------
Magnitude (a.u.)       :      0.748887002
Magnitude (Debye)      :      1.903519483



--------------------
Rotational spectrum 
--------------------
 
Rotational constants in cm-1:             0.107153             0.042471             0.037060 
Rotational constants in MHz :          3212.366029          1273.254562          1111.027152 

Dipole components along the rotational axes: 
x,y,z [a.u.] :     0.083711    -0.443279    -0.597769 
x,y,z [Debye]:     0.212775    -1.126726    -1.519408 

 

Dipole moment calculation done in   0.0 sec 

Maximum memory used throughout the entire PROP-calculation: 14.0 MB

--------------------------------
SUGGESTED CITATIONS FOR THIS RUN
--------------------------------

Below you find a list of papers that are relevant to this ORCA run
We neither can nor want to force you to cite these papers, but we appreciate if you do
You receive ORCA, which is the product of decades of hard work by many enthusiastic individuals, for free
The only thing we kindly ask in return is that you cite our papers,
We deeply appreciate it, if you show your appreciation for ORCA by not just citing the generic ORCA reference.

Please note that relegating all ORCA citations to the supporting information does *not* help us.
SI sections are not indexed - citations you put there will not count into any citation statistics
But we need these citations in order to attract the funding resources that allow us to do what we are doing

Therefore, if you are a happy ORCA user, please consider citing a few of the papers listed below in the main body of your paper

In addition to the list printed below, the program has created the file sp_gas.bibtex that contains the list in bibtex format
You can import this file easily into all common literature databanks and citation aid programs


List of essential papers. We consider these as the minimum necessary citations

  1. Neese,F.
     Software update: the ORCA program system, version 5.0
     WIRES Comput. Molec. Sci., 2022 12(1)e1606
     doi.org/10.1002/wcms.1606
  2. Grimme,S.; Hansen,A.; Ehlert,S.; Mewes,J.
     r2SCAN-3c: A 'Swiss army knife' composite electronic-structure method
     J. Chem. Phys., 2021 154 064103
     doi.org/10.1063/5.0040021

List of papers to cite with high priority. The work reported in these papers was absolutely
necessary for this run to complete.
Our perspective: the developers of density functionals and basis sets usually get cited in chemistry papers
Good! But without the algorithms to do something with them, the functionals or basis sets would not do anything.
Hence, in our opinion, the algorithm design and method developments papers are equally worthy of getting cited

  1. Neese,F.
     An improvement of the resolution of the identity approximation for the formation of the Coulomb matrix
     J. Comp. Chem., 2003 24(14)1740-1747
     doi.org/10.1002/jcc.10318
  2. Neese,F.
     The SHARK Integral Generation and Digestion System
     J. Comp. Chem., 2022  1-16
     doi.org/10.1002/jcc.26942
  3. Lehtola,S.; Steigemann,C.; Oliveira,M.; Marques,M.
     Recent developments in Libxc - A comprehensive library of functionals for density functional theory
     Software X, 2018 7 
     doi.org/10.1016/j.softx.2017.11.002
  4. Caldeweyher,E.; Bannwarth,C.; Grimme,S.
     Extension of the D3 dispersion coefficient model
     J. Chem. Phys., 2017 147 034112-XXXX
     doi.org/10.1063/1.4993215
  5. Caldeweyher,E.; Ehlert,S.; Hansen,A.; Neugebauer,H.; Spicher,S.; Bannwarth,C.; Grimme,S.
     A generally applicable atomic-charge dependent London dispersion correction
     J. Chem. Phys., 2019 150 154122-XXXX
     doi.org/10.1063/1.5090222
  6. Caldeweyher,E.; Mewes,J.; Ehlert,S.; Grimme,S.
     Extension and evaluation of the D4 London-dispersion model for periodic systems
     Phys. Chem. Chem. Phys., 2020 22(16)8499-8512
     doi.org/10.1039/D0CP00502A

List of suggested additional citations. These are papers that are important in the 'surrounding' of 
of this run, or papers that preceded the highly important papers. If you like your results we are grateful for a citation.

  1. Neese,F.
     The ORCA program system
     WIRES Comput. Molec. Sci., 2012 2(1)73-78
     doi.org/10.1002/wcms.81
  2. Neese,F.
     Software update: the ORCA program system, version 4.0
     WIRES Comput. Molec. Sci., 2018 8(1)1-6
     doi.org/10.1002/wcms.1327
  3. Neese,F.; Wennmohs,F.; Becker,U.; Riplinger,C.
     The ORCA quantum chemistry program package
     J. Chem. Phys., 2020 152 Art. No. L224108
     doi.org/10.1063/5.0004608

List of optional additional citations

  1. Neese,F.
     Approximate second-order SCF convergence for spin unrestricted wavefunctions
     Chem. Phys. Lett., 2000 325(1-3)93-98
     doi.org/10.1016/s0009-2614(00)00662-x

Timings for individual modules:

Sum of individual times          ...       32.093 sec (=   0.535 min)
Startup calculation              ...        1.442 sec (=   0.024 min)   4.5 %
SCF iterations                   ...       30.516 sec (=   0.509 min)  95.1 %
Property calculations            ...        0.135 sec (=   0.002 min)   0.4 %
                             ****ORCA TERMINATED NORMALLY****
TOTAL RUN TIME: 0 days 0 hours 0 minutes 33 seconds 74 msec
