22
 energy: -23.417836157098 gnorm: 0.028672679209 xtb: 6.7.1 (edcfbbe)
C            2.41474428257861        0.67442258693919        0.56760913307567
C            1.14050405599823       -0.10467828374826        0.24319756399200
C            1.25943481377329       -0.73222767578960       -1.15156409402847
N           -0.00090052825232        0.81009700238929        0.44032661666135
C           -1.37924544587481        0.28665004280368        0.28413167888359
C           -1.56762515911855       -1.04304394218001        1.00398977907810
C           -1.89086320048766        0.20936605892535       -1.16136774560557
H            2.40843610570174        1.03727988155937        1.59904505081515
H            3.29874424322725        0.04574554138234        0.42945552348082
H            2.51222861370047        1.54024801899190       -0.09873630208053
H            1.04393327750299       -0.91425447474808        0.97711793153749
H            1.24918520119318        0.04719774879650       -1.92399168694118
H            0.44607492983314       -1.43138560637680       -1.35854579927904
H            2.20128410964700       -1.28563364675096       -1.24162208222839
H            0.11231652728401        1.56799933849495       -0.22861814609762
H           -2.02295672757586        1.01872890366423        0.79391559849914
H           -1.01237449737155       -1.85061040259459        0.51651959709536
H           -1.24741265769256       -0.98407123819756        2.04935572395573
H           -2.62684238939905       -1.31634250156545        0.99084717846992
H           -1.66393814654098        1.13524128721372       -1.70229058553920
H           -2.97948540613181        0.08109360772515       -1.16407590436196
H           -1.45555539709177       -0.62713589863085       -1.71501754487537
22
 energy: -23.419200208136 gnorm: 0.012530329030 xtb: 6.7.1 (edcfbbe)
C            2.40636462533285        0.67768784406272        0.56528289232923
C            1.14068634504437       -0.11386149010730        0.23852452986111
C            1.26951905095104       -0.73077109265390       -1.15862215462601
N            0.00012586314876        0.78838654337985        0.41921902496938
C           -1.37477507953052        0.28217279921255        0.28528994816414
C           -1.57247694337783       -1.04821388481101        1.00129442424533
C           -1.89301049283512        0.20903943928141       -1.15753629056915
H            2.37610336257594        1.04396161259131        1.58900893499176
H            3.28624294360426        0.04748242721986        0.44635371123008
H            2.50578705354337        1.53433789622760       -0.10236581221129
H            1.03794932795626       -0.91741461842998        0.97600343930317
H            1.25626105371834        0.04542914201559       -1.92545882036678
H            0.46389942191821       -1.43282495044352       -1.36067225614434
H            2.21031058295786       -1.27446491579714       -1.23720918353942
H            0.11179079472627        1.56737369886772       -0.22554756319399
H           -1.98875046700929        1.03355824803565        0.80533549431582
H           -1.02764178710851       -1.85290663612475        0.50963231535442
H           -1.23569354120427       -0.97757587228255        2.03418047571864
H           -2.63064355899482       -1.30683842722782        1.00025250692024
H           -1.66220364098828        1.12993488135449       -1.69406211974849
H           -2.97570466099425        0.08581308014718       -1.15140599122907
H           -1.46445364853164       -0.62561937621445       -1.70781602126779
22
 energy: -23.419587738945 gnorm: 0.004466558073 xtb: 6.7.1 (edcfbbe)
C            2.39958501310712        0.67908413337732        0.56866826407802
C            1.14044685546559       -0.11951551590920        0.22851364565320
C            1.28477161759157       -0.73680962242530       -1.16872576025069
N            0.00232179130150        0.77208613889940        0.40439030778544
C           -1.37020235675083        0.28252103231337        0.28475125204423
C           -1.57467029406816       -1.04705264573021        1.00285303445218
C           -1.90240955822226        0.21008157126123       -1.15452851310763
H            2.34289880072574        1.05582749737128        1.58537746895626
H            3.27977197834028        0.04900922663330        0.47372555992635
H            2.50242317888850        1.52429878750782       -0.10713274634431
H            1.03505973416529       -0.92262126267903        0.96443434185014
H            1.26738946603356        0.04178203230786       -1.92764067004527
H            0.48507946721341       -1.44212393199648       -1.37274887827797
H            2.22841055658059       -1.27034254948933       -1.24132529145599
H            0.11245293825740        1.57170129397026       -0.21441651546965
H           -1.96810173095973        1.04320841813749        0.81114623277017
H           -1.04318773948452       -1.85102558923248        0.50170737824769
H           -1.22278335222730       -0.97485078515510        2.02759948001901
H           -2.63326731765040       -1.29173620378151        1.01283216625454
H           -1.67011111028859        1.12817907224066       -1.68955293156654
H           -2.98197991425845        0.08766059702916       -1.14056403804840
H           -1.47421141885732       -0.62467534634697       -1.69968230296378
22
 energy: -23.419705555164 gnorm: 0.003022999202 xtb: 6.7.1 (edcfbbe)
C            2.39587142244913        0.67778842896440        0.57210503807245
C            1.13995134819452       -0.12405397205249        0.22269552182688
C            1.29551325063674       -0.73831138906768       -1.17705512102382
N            0.00397909469046        0.76469563954693        0.39644185318181
C           -1.36906545225174        0.28530071926065        0.28507608300840
C           -1.57647691000349       -1.04362738530229        1.00593240985929
C           -1.90892873528309        0.20987320161733       -1.15273295444283
H            2.31975201309342        1.06627126182346        1.58344161390987
H            3.27796616044561        0.04727932884220        0.49981925852893
H            2.50772664332514        1.51470843076749       -0.11267184217694
H            1.03357949606670       -0.93069119181750        0.95504737874519
H            1.27719159054132        0.04189365832692       -1.93423227789158
H            0.50051230879029       -1.44792327806998       -1.38600607920104
H            2.24283829591689       -1.26571532571167       -1.24498155506392
H            0.11504843617745        1.57510268652514       -0.20652790697180
H           -1.96279806223071        1.04864760694063        0.81204223240057
H           -1.05638656340739       -1.85029807761179        0.49688028088037
H           -1.21234690787550       -0.97476160068420        2.02656455842600
H           -2.63670675953390       -1.27944012208347        1.02677092188154
H           -1.67957597459180        1.12764887466068       -1.68945589189791
H           -2.98799863536293        0.08599529311453       -1.13287639048621
H           -1.47995945488414       -0.62569643968575       -1.69659564705824
22
 energy: -23.419784028969 gnorm: 0.002974821467 xtb: 6.7.1 (edcfbbe)
C            2.39298878347440        0.67407732907781        0.57762846419708
C            1.13948155287974       -0.12744160075914        0.21616206043773
C            1.30601929016789       -0.73662516194361       -1.18657236438621
N            0.00507717149067        0.76019669054273        0.38985012293448
C           -1.36886190600486        0.28811026672584        0.28505748564904
C           -1.57886658243783       -1.03864344926317        1.01069451033917
C           -1.91536643694879        0.20787074752928       -1.15122104029544
H            2.29606867871175        1.07964161862901        1.58124184709014
H            3.27568895341415        0.04064314164824        0.53475014137790
H            2.52179512930829        1.49983326586404       -0.11940033200928
H            1.03132656760452       -0.94041328168977        0.94191617773226
H            1.28787103618877        0.04589337351427       -1.94243379159963
H            0.51628935936261       -1.45093180438676       -1.40352284629614
H            2.25773848654106       -1.25793015338930       -1.25022765767216
H            0.11842880244941        1.57851580808753       -0.19920385666142
H           -1.96082968616431        1.05364944453016        0.81004404104542
H           -1.07372584306200       -1.85065226794640        0.49329021490073
H           -1.19925897996555       -0.97453481365578        2.02670825475249
H           -2.64135663366699       -1.26470355235166        1.04721172490438
H           -1.69239962166057        1.12609250239565       -1.69113767562032
H           -2.99433178792328        0.07951887015488       -1.12603148065932
H           -1.48408972885612       -0.62748062501028       -1.69512251565387
22
 energy: -23.419822582615 gnorm: 0.002879001115 xtb: 6.7.1 (edcfbbe)
C            2.39196357156364        0.66966262620694        0.58200169417827
C            1.13902878167220       -0.12870590773485        0.21253889215322
C            1.31083948628117       -0.73186442501227       -1.19246811330588
N            0.00501102415570        0.75957128654177        0.38754613623510
C           -1.36953003253068        0.28926807295144        0.28432947902165
C           -1.58020279799401       -1.03477062679914        1.01444526117406
C           -1.91793348325480        0.20446739608818       -1.15106649577693
H            2.28349900533440        1.08778667076518        1.57922731307508
H            3.27228333223033        0.03176734020814        0.55936458160250
H            2.53626507512287        1.48694552982314       -0.12301814340210
H            1.02837042485152       -0.94647034364348        0.93284020759158
H            1.29339758192410        0.05289376677449       -1.94682719222458
H            0.52393931570752       -1.44799343093002       -1.41522611669419
H            2.26463358500566       -1.25037008529512       -1.25488868942003
H            0.12038501472313        1.58005633337101       -0.19642542524248
H           -1.96137655607314        1.05657065673567        0.80658997868798
H           -1.08570480177977       -1.85139504747307        0.49319857924679
H           -1.19008085546629       -0.97267181613246        2.02698481398873
H           -2.64383867832311       -1.25468056715226        1.06284951208217
H           -1.70107675975696        1.12344441189904       -1.69309761427854
H           -2.99665962275781        0.07070045345676       -1.12381966036926
H           -1.48352600573267       -0.62952594634553       -1.69539751381607
22
 energy: -23.419861548347 gnorm: 0.002501356171 xtb: 6.7.1 (edcfbbe)
C            2.39175981970708        0.66316494758908        0.58739145173192
C            1.13840399546805       -0.12927592049555        0.20912989672747
C            1.31338775524999       -0.72356357080953       -1.19854158082739
N            0.00442497657635        0.76067069843830        0.38675080171278
C           -1.37062708725286        0.28965660576819        0.28289735494122
C           -1.58129977968096       -1.03043361011258        1.01905829554797
C           -1.91845378373180        0.19888139183934       -1.15177852204223
H            2.27232716609131        1.09560151317300        1.57682970487471
H            3.26660943714828        0.01779490307225        0.58680238533746
H            2.55536489233781        1.47011008400733       -0.12580061326434
H            1.02356285113888       -0.95184549509861        0.92326196418981
H            1.29661289271973        0.06497849177071       -1.94949232301322
H            0.52861561199597       -1.44009991241354       -1.42752992787022
H            2.26849110642589       -1.24001666800439       -1.26181432030993
H            0.12167037358604        1.58094253797123       -0.19632476749752
H           -1.96278213576890        1.05948680357966        0.80112489006187
H           -1.09823796005077       -1.85234797553658        0.49528322901866
H           -1.17972901100810       -0.96836038513474        2.02723077699776
H           -2.64563339567255       -1.24400268583217        1.08089267507562
H           -1.70956667590390        1.11897039366603       -1.69560174607965
H           -2.99647096084364        0.05680337011564       -1.12378571805910
H           -1.47874348362893       -0.63242916924952       -1.69630242274659
22
 energy: -23.419886491778 gnorm: 0.001810431751 xtb: 6.7.1 (edcfbbe)
C            2.39205460947359        0.65697158269034        0.59210009683136
C            1.13753641122338       -0.12957486571334        0.20677288270204
C            1.31351511309806       -0.71522903758552       -1.20336022959712
N            0.00391389616059        0.76231841007399        0.38671091505759
C           -1.37138966505573        0.28963604979358        0.28147866627304
C           -1.58175148337387       -1.02698017349573        1.02321964995489
C           -1.91711080163387        0.19330534023913       -1.15292206728459
H            2.26477046284136        1.09957715854909        1.57559779410296
H            3.26086646279358        0.00434726131313        0.60776697061143
H            2.57091251886344        1.45561469183421       -0.12610975175623
H            1.01828717574930       -0.95505419788367        0.91644746773485
H            1.29652568074970        0.07773684009809       -1.94954988377031
H            0.52971456974818       -1.43098422439368       -1.43698685601957
H            2.26904916106363       -1.23038870458217       -1.26930960835852
H            0.12154939789816        1.58060803877398       -0.19971290411689
H           -1.96364160997416        1.06198366481549        0.79610435051448
H           -1.10658543769126       -1.85266600573094        0.49872337774489
H           -1.17182543373597       -0.96270360349684        2.02764015776244
H           -2.64614712029947       -1.23592533583994        1.09473318304464
H           -1.71450871180731        1.11401771014816       -1.69779422744734
H           -2.99408786543519        0.04354952395709       -1.12533599206585
H           -1.47196072575317       -0.63547377526091       -1.69653250741110
22
 energy: -23.419898448568 gnorm: 0.000842890244 xtb: 6.7.1 (edcfbbe)
C            2.39236400512682        0.65071203792443        0.59719713691845
C            1.13622054633295       -0.13007682523095        0.20448757953824
C            1.31322444966798       -0.70711003816628       -1.20832372107815
N            0.00380760062406        0.76392989191560        0.38547507500953
C           -1.37164827221292        0.28997340248421        0.28025447945229
C           -1.58181166380788       -1.02362247913743        1.02767933575270
C           -1.91537386426711        0.18785844494563       -1.15404927187653
H            2.25783704558209        1.09989569726740        1.57643297835275
H            3.25508088739695       -0.00878291899295        0.62591341456299
H            2.58385317833729        1.44264871335776       -0.12363838231579
H            1.01207426843497       -0.95744111158020        0.91054862939941
H            1.29460194744926        0.09111253717223       -1.94830280615496
H            0.53043924638050       -1.42219061911800       -1.44615742926118
H            2.26930363867863       -1.22022720173057       -1.27805539829192
H            0.12016448455287        1.57888357117010       -0.20746646692450
H           -1.96344157634891        1.06487524776028        0.79171422442314
H           -1.11211100726241       -1.85204331220971        0.50333088036122
H           -1.16540317995502       -0.95559011046202        2.02873792401567
H           -2.64598747794610       -1.22877724532974        1.10621050590516
H           -1.71749184629798        1.10837927790898       -1.70012054422104
H           -2.99103535405473        0.03141540238833       -1.12694245795576
H           -1.46498045150835       -0.63913601403357       -1.69524420110463
22
 energy: -23.419901891420 gnorm: 0.000385273600 xtb: 6.7.1 (edcfbbe)
C            2.39213277366811        0.64948018225757        0.59880140620213
C            1.13576219323419       -0.13039249647049        0.20364463783952
C            1.31446118145494       -0.70620168098980       -1.20978314106074
N            0.00413553082188        0.76404289817775        0.38337936632956
C           -1.37144957090960        0.29070674120370        0.28021540298897
C           -1.58174563985606       -1.02255775110981        1.02878623722590
C           -1.91618023693245        0.18719533926257       -1.15385278046567
H            2.25616939201820        1.09731270751678        1.57852842431375
H            3.25438074751866       -0.01053203116862        0.62811494029042
H            2.58478309432576        1.44193794921438       -0.12096043667437
H            1.01044332269329       -0.95821919625548        0.90891864321918
H            1.29467964213364        0.09289156113163       -1.94864974544682
H            0.53271960428895       -1.42219705443550       -1.44860058382229
H            2.27132599605319       -1.21772746308345       -1.27983552524515
H            0.11968772196000        1.57791385794576       -0.21139355225754
H           -1.96278015376289        1.06594814525305        0.79149746933266
H           -1.11184588837434       -1.85122218360091        0.50484804860446
H           -1.16536010662489       -0.95366912312520        2.02976101285849
H           -2.64595946088316       -1.22749389112559        1.10717375101495
H           -1.71812545377566        1.10703712364381       -1.70095293440843
H           -2.99173211690879        0.03096492237469       -1.12606557155188
H           -1.46581596724000       -0.64053220831330       -1.69389358478003
22
 energy: -23.419905756339 gnorm: 0.000651730832 xtb: 6.7.1 (edcfbbe)
C            2.39190383728331        0.64763248957389        0.60134740551219
C            1.13531266540569       -0.13051970591684        0.20250504235042
C            1.31641653333803       -0.70522136253520       -1.21142564765640
N            0.00461437476915        0.76484115673551        0.37982320338932
C           -1.37125050381318        0.29184165228329        0.28008212523948
C           -1.58140313827681       -1.02080472029453        1.03016310092280
C           -1.91783876790490        0.18639956500070       -1.15336773554981
H            2.25616175544481        1.09029015098515        1.58333774304005
H            3.25409289442671       -0.01225813479747        0.62709394733586
H            2.58407036090650        1.44384772144019       -0.11417543278950
H            1.00798769678444       -0.95892964219749        0.90663229958022
H            1.29486395196488        0.09442625448288       -1.94965834887090
H            0.53642251393070       -1.42290441655995       -1.45124722559506
H            2.27455568104505       -1.21432008407528       -1.28150097631081
H            0.11928552091167        1.57605364836984       -0.21888290903229
H           -1.96195200488472        1.06750767311694        0.79124788400194
H           -1.10924081442207       -1.84954537300086        0.50828793756617
H           -1.16756573039997       -0.95038407339227        2.03207971777051
H           -2.64553359916722       -1.22693506940473        1.10604864564484
H           -1.71866092202866        1.10484772619674       -1.70254112025267
H           -2.99361697969591        0.03207693994526       -1.12432139529182
H           -1.46893872071452       -0.64325604765227       -1.69184677649745
22
 energy: -23.419907506713 gnorm: 0.000530223611 xtb: 6.7.1 (edcfbbe)
C            2.39154742697299        0.64587085087853        0.60352190017748
C            1.13519157938159       -0.13079685536428        0.20115464955593
C            1.31830072839890       -0.70396114421647       -1.21323970019317
N            0.00488496282441        0.76514159492408        0.37728587452257
C           -1.37116600441373        0.29248156348084        0.27971383650889
C           -1.58127326791442       -1.01918243919757        1.03137495898826
C           -1.91923212832782        0.18529579338923       -1.15302522414148
H            2.25412182428761        1.08628359729481        1.58675715272272
H            3.25380118234068       -0.01476205227654        0.62899515526975
H            2.58485207871348        1.44407056231986       -0.11011118589287
H            1.00596181017823       -0.95997290130751        0.90397747834133
H            1.29596303465380        0.09621842582199       -1.95092472690356
H            0.53955214256002       -1.42262820174100       -1.45422872606672
H            2.27730591613525       -1.21137207839962       -1.28316694779900
H            0.11954384914654        1.57529345862710       -0.22291296974888
H           -1.96102362502839        1.06903756798412        0.79056332857089
H           -1.10871476574075       -1.84855873013474        0.51057606953546
H           -1.16788597498770       -0.94739461379582        2.03358148135675
H           -2.64562196650057       -1.22540008931300        1.10700628274189
H           -1.71989516701802        1.10273829363630       -1.70386204155727
H           -2.99514242678839        0.03187665723406       -1.12279914521720
H           -1.47138460397074       -0.64559291154083       -1.69055601626469
22
 energy: -23.419908865646 gnorm: 0.000258937085 xtb: 6.7.1 (edcfbbe)
C            2.39129677394634        0.64469851570635        0.60479346496178
C            1.13518241492009       -0.13104347090952        0.20050752709006
C            1.31908453720577       -0.70297150762577       -1.21416867518971
N            0.00494093045194        0.76539356406517        0.37638825013790
C           -1.37126323375936        0.29281101414379        0.27926957639626
C           -1.58133018142328       -1.01795818241557        1.03222492607625
C           -1.91966186282250        0.18429933832679       -1.15311720942916
H            2.25449129972743        1.08243319272391        1.58903600688427
H            3.25360129377839       -0.01555821223863        0.62803637599650
H            2.58452729053404        1.44494472806036       -0.10641123097795
H            1.00488530689807       -0.96079559111890        0.90240167458956
H            1.29691149748308        0.09766257677328       -1.95142002825984
H            0.54066312948074       -1.42167051416171       -1.45607032617135
H            2.27828354519325       -1.21001964539137       -1.28405254143854
H            0.11990014229738        1.57494310771794       -0.22455267126980
H           -1.96085093568083        1.07002202184893        0.78948251929371
H           -1.10836233765380       -1.84784988861011        0.51265771784655
H           -1.16861949656915       -0.94509298379834        2.03463751805667
H           -2.64564810555723       -1.22450102020350        1.10750318839602
H           -1.72020232081926        1.10099621730513       -1.70514726589483
H           -2.99567027131752        0.03139602905484       -1.12240030729586
H           -1.47247281141061       -0.64745294094954       -1.68991700529139
22
 energy: -23.419910138063 gnorm: 0.000203585775 xtb: 6.7.1 (edcfbbe)
C            2.39115884305089        0.64384970775839        0.60547708950758
C            1.13529780228063       -0.13129318952159        0.19993667205543
C            1.31949638280185       -0.70195206577362       -1.21503860717658
N            0.00491152678098        0.76525009981357        0.37632473892248
C           -1.37138890244851        0.29288685161471        0.27886733539528
C           -1.58177122635646       -1.01699198884377        1.03308103237047
C           -1.91951424810001        0.18317318246055       -1.15341762987456
H            2.25439238575652        1.07995637378776        1.59039144062911
H            3.25366577966222       -0.01619391163112        0.62751042650114
H            2.58421282724453        1.44538543555526       -0.10426882909489
H            1.00449164459604       -0.96161856841515        0.90102220779505
H            1.29833702918936        0.09930750613335       -1.95167794433829
H            0.54076686631310       -1.41990368300766       -1.45805438785031
H            2.27839543177643       -1.20961195666342       -1.28480459230968
H            0.12037559837005        1.57521170506803       -0.22381901279213
H           -1.96088210221113        1.07081435316848        0.78813604657043
H           -1.10918140277486       -1.84754148051557        0.51433841925281
H           -1.16887833555585       -0.94333030758116        2.03531022133235
H           -2.64605137633881       -1.22331853508451        1.10880116908179
H           -1.72001797651507        1.09931985649190       -1.70631800106311
H           -2.99557164208880        0.03043293832758       -1.12255564166806
H           -1.47255830053011       -0.64914597483848       -1.68956066873922
22
 energy: -23.419911534528 gnorm: 0.000325741169 xtb: 6.7.1 (edcfbbe)
C            2.39095396010857        0.64312667827499        0.60603452490807
C            1.13530605650174       -0.13165127325180        0.19941821168437
C            1.31980608422173       -0.70069185208728       -1.21604687539848
N            0.00485722193842        0.76484384412502        0.37671320820382
C           -1.37146555342171        0.29283160907482        0.27845099708797
C           -1.58249473655889       -1.01603748606781        1.03415800153271
C           -1.91898854130851        0.18168039575533       -1.15392666169727
H            2.25450184940693        1.07728425439123        1.59182495996587
H            3.25366197675255       -0.01669441244324        0.62638805491470
H            2.58358038190091        1.44613562260544       -0.10221390755152
H            1.00422988431351       -0.96273343778672        0.89955409311522
H            1.30040338360171        0.10145254941225       -1.95176549743871
H            0.54032477020097       -1.41726985235043       -1.46056777740814
H            2.27803845310244       -1.20966870394803       -1.28562761043424
H            0.12079026636416        1.57581070321905       -0.22191001077413
H           -1.96090130966538        1.07161678704221        0.78647529554118
H           -1.11081478806962       -1.84752238584536        0.51604936355895
H           -1.16884793201781       -0.94142666538951        2.03601948691255
H           -2.64691018117901       -1.22142584209205        1.11078812137403
H           -1.71904912572381        1.09712788445966       -1.70778841452962
H           -2.99509870330612        0.02924326626730       -1.12327575903746
H           -1.47219681225980       -0.65134533506154       -1.68907032002276
22
 energy: -23.419912790633 gnorm: 0.000281141227 xtb: 6.7.1 (edcfbbe)
C            2.39091983275800        0.64231294529195        0.60660885339462
C            1.13523492208007       -0.13184812006962        0.19882359165982
C            1.32014039531416       -0.69931298285135       -1.21718786385573
N            0.00476177144131        0.76441838313563        0.37697192105284
C           -1.37160259468308        0.29283576341980        0.27815395349590
C           -1.58338350367687       -1.01506523103259        1.03542163896886
C           -1.91831570250628        0.18012881741456       -1.15444683859712
H            2.25468013940313        1.07439677105983        1.59341670398471
H            3.25393436479648       -0.01728040665304        0.62518545269194
H            2.58280310852756        1.44687699947807       -0.10006497594171
H            1.00400178590309       -0.96373480783808        0.89796958016610
H            1.30264612314153        0.10387230105411       -1.95179224627367
H            0.53982826170471       -1.41439768410250       -1.46339215535936
H            2.27766566950211       -1.20969184796989       -1.28653022300507
H            0.12089808086743        1.57629459389735       -0.22029451542032
H           -1.96112897147566        1.07241773874657        0.78479656031782
H           -1.11267311657428       -1.84746758394322        0.51801979976600
H           -1.16907549262234       -0.93969999581870        2.03687859958100
H           -2.64781398307805       -1.21954804573455        1.11289671307810
H           -1.71746314707225        1.09469948259307       -1.70941755466996
H           -2.99451914004439        0.02839962067951       -1.12409863755278
H           -1.47185219880338       -0.65392036245336       -1.68823687297489
22
 energy: -23.419913759719 gnorm: 0.000166891266 xtb: 6.7.1 (edcfbbe)
C            2.39073193609642        0.64167046087254        0.60724124123400
C            1.13507049047300       -0.13210775817287        0.19839158859111
C            1.32058056770440       -0.69807111115511       -1.21820811734132
N            0.00480224264790        0.76413935479498        0.37699374251922
C           -1.37158081570370        0.29285594732637        0.27791653444948
C           -1.58407124408633       -1.01424496339804        1.03647668676470
C           -1.91791609286098        0.17876058047988       -1.15479715215938
H            2.25478849524875        1.07181219540802        1.59495697787858
H            3.25384036967372       -0.01787506335874        0.62426632426894
H            2.58223965101506        1.44758694413644       -0.09804558126662
H            1.00356846046377       -0.96473366351556        0.89664456673598
H            1.30453069026457        0.10603750074145       -1.95182070180301
H            0.53973319247598       -1.41203464831085       -1.46592003295518
H            2.27760999999336       -1.20941269759575       -1.28736527987750
H            0.12095805716245        1.57650684988540       -0.21957494475758
H           -1.96109101399863        1.07309657137856        0.78351471231649