17
 energy: -657.270779951076 gnorm: 0.003752950186 xtb: 6.7.1 (edcfbbe)
C            2.86214037314470        0.15511170637812        0.65914806582613
C            1.86364546573560       -0.76220401066654       -0.04678592682104
C            0.96401470923767       -0.03328588171338       -1.04877032819732
C            0.10998638932753        1.09153068420995       -0.45394153098117
C           -0.74785912616836        0.69708673665835        0.72558807621954
Cl          -1.97574071529866       -0.61485636102199        0.25936696592095
H            3.47990778298889        0.69183431085748       -0.06970164472906
H            3.52999551642492       -0.41915667962739        1.30822108373253
H            2.35646350696049        0.89898252365574        1.28262616721004
H            2.41134590431748       -1.54360056447015       -0.58706990538164
H            1.24957314930471       -1.28193238020564        0.69970103940012
H            0.30318144687528       -0.76071458238620       -1.53304230867411
H            1.58850491473972        0.40012934243022       -1.83888910375747
H           -0.52467979934769        1.52261183579202       -1.23656886779739
H            0.75560472365616        1.90403007464990       -0.09370529292380
H           -0.17267166458173        0.27035714853468        1.54961570485387
H           -1.35051671047067        1.52890559105221        1.08906938798120
17
 energy: -657.270807254899 gnorm: 0.001810111164 xtb: 6.7.1 (edcfbbe)
C            2.86089582820453        0.15468481627595        0.65989543694068
C            1.86455641033337       -0.76210889855883       -0.04777591931106
C            0.96450239687073       -0.03379896460917       -1.04997393911372
C            0.10908430150735        1.08945973536229       -0.45557265650901
C           -0.74906016313423        0.69630566117610        0.72349287360661
Cl          -1.97959205745598       -0.61417061489919        0.26855956904272
H            3.47799547427137        0.69482812232158       -0.06741020207983
H            3.53085313510758       -0.41924269226570        1.30797738633705
H            2.35534005334527        0.89767100745202        1.28515548533362
H            2.41328584507867       -1.54390065827646       -0.58654787996499
H            1.25018106591512       -1.28324459708164        0.69759951853100
H            0.30576786698338       -0.76212471137774       -1.53679948846382
H            1.58857793899479        0.40082259218978       -1.84062881362900
H           -0.52331384256887        1.52476908808907       -1.23729429701628
H            0.75387668299023        1.90134868021514       -0.09125345572693
H           -0.17301113671027        0.27152057064649        1.54716520701589
H           -1.34704400573879        1.53201013926591        1.08827303479162
17
 energy: -657.270815982182 gnorm: 0.001433203143 xtb: 6.7.1 (edcfbbe)
C            2.85772559359188        0.15482241299551        0.66114392709850
C            1.86555555119889       -0.76215267853364       -0.04934744763061
C            0.96459774203151       -0.03561941637437       -1.05210260582844
C            0.10760479599761        1.08502219023865       -0.45754808882062
C           -0.74900610941867        0.69591725590755        0.72331302255664
Cl          -1.98233416679032       -0.60892117618367        0.27678060639322
H            3.47254877226471        0.70253691367339       -0.06307300395382
H            3.53181924794782       -0.41897173489189        1.30590162933797
H            2.35107819587984        0.89350599642418        1.29132300306401
H            2.41668855099536       -1.54310079205350       -0.58711320138961
H            1.25074137876133       -1.28639658651398        0.69377705146696
H            0.30933037887449       -0.76609514919287       -1.54177821108302
H            1.58784098114453        0.40078540772325       -1.84346074475033
H           -0.52140530085046        1.52543447844368       -1.23892684668614
H            0.75180740611426        1.89595667425320       -0.08852377474125
H           -0.17067500210717        0.27491298573215        1.54685280362168
H           -1.34102246917977        1.53719194905158        1.08764428243685
17
 energy: -657.270820746339 gnorm: 0.000477887600 xtb: 6.7.1 (edcfbbe)
C            2.85697999437357        0.15514584761329        0.66166265085739
C            1.86553017936764       -0.76261116962311       -0.04950191372574
C            0.96436187468670       -0.03582767294518       -1.05185334592015
C            0.10891309551512        1.08618872515689       -0.45746327889418
C           -0.74838189944007        0.69618023221285        0.72305110176170
Cl          -1.98189784637160       -0.60879189837713        0.27710750824209
H            3.47027563904686        0.70439409484430       -0.06245125891235
H            3.53191884587875       -0.41874307101556        1.30502305336375
H            2.34910006111250        0.89160725250651        1.29316109728129
H            2.41725195977358       -1.54249083879635       -0.58818440144864
H            1.25093045558121       -1.28729269969744        0.69343799645552
H            0.30814633111084       -0.76604714703157       -1.54018034405507
H            1.58754980742214        0.39993159869333       -1.84318114506343
H           -0.52148359315844        1.52468815176832       -1.23889505166393
H            0.75426168393621        1.89702998679081       -0.09081783829361
H           -0.16993986943682        0.27468895792847        1.54665944109316
H           -1.34062127521671        1.53677819292546        1.08728827460787
17
 energy: -657.270820746339 gnorm: 0.000477887600 xtb: 6.7.1 (edcfbbe)
C            2.85697999437357        0.15514584761329        0.66166265085739
C            1.86553017936764       -0.76261116962311       -0.04950191372574
C            0.96436187468670       -0.03582767294518       -1.05185334592015
C            0.10891309551512        1.08618872515689       -0.45746327889418
C           -0.74838189944007        0.69618023221285        0.72305110176170
Cl          -1.98189784637160       -0.60879189837713        0.27710750824209
H            3.47027563904686        0.70439409484430       -0.06245125891235
H            3.53191884587875       -0.41874307101556        1.30502305336375
H            2.34910006111250        0.89160725250651        1.29316109728129
H            2.41725195977358       -1.54249083879635       -0.58818440144864
H            1.25093045558121       -1.28729269969744        0.69343799645552
H            0.30814633111084       -0.76604714703157       -1.54018034405507
H            1.58754980742214        0.39993159869333       -1.84318114506343
H           -0.52148359315844        1.52468815176832       -1.23889505166393
H            0.75426168393621        1.89702998679081       -0.09081783829361
H           -0.16993986943682        0.27468895792847        1.54665944109316
H           -1.34062127521671        1.53677819292546        1.08728827460787
