
                                 *****************
                                 * O   R   C   A *
                                 *****************

                                            #,                                       
                                            ###                                      
                                            ####                                     
                                            #####                                    
                                            ######                                   
                                           ########,                                 
                                     ,,################,,,,,                         
                               ,,#################################,,                 
                          ,,##########################################,,             
                       ,#########################################, ''#####,          
                    ,#############################################,,   '####,        
                  ,##################################################,,,,####,       
                ,###########''''           ''''###############################       
              ,#####''   ,,,,##########,,,,          '''####'''          '####       
            ,##' ,,,,###########################,,,                        '##       
           ' ,,###''''                  '''############,,,                           
         ,,##''                                '''############,,,,        ,,,,,,###''
      ,#''                                            '''#######################'''  
     '                                                          ''''####''''         
             ,#######,   #######,   ,#######,      ##                                
            ,#'     '#,  ##    ##  ,#'     '#,    #''#        ,####,   ,####,        
            ##       ##  ##   ,#'  ##            #'  '#       #'       #'  '#        
            ##       ##  #######   ##           ,######,      #####,   #    #        
            '#,     ,#'  ##    ##  '#,     ,#' ,#      #,     #,   #   #,  ,#        
             '#######'   ##     ##  '#######'  #'      '#     '####' # '####'        



                #########################################################
                #                        -***-                          #
                #          Department of theory and spectroscopy        #
                #                                                       #
                #                      Frank Neese                      #
                #                                                       #
                #     Directorship, Architecture, Infrastructure        #
                #                    SHARK, DRIVERS                     #
                #        Core code/Algorithms in most modules           #
                #                                                       #
                #        Max Planck Institute fuer Kohlenforschung      #
                #                Kaiser Wilhelm Platz 1                 #
                #                 D-45470 Muelheim/Ruhr                 #
                #                      Germany                          #
                #                                                       #
                #                  All rights reserved                  #
                #                        -***-                          #
                #########################################################


                         Program Version 6.0.0  -   RELEASE  -


 With contributions from (in alphabetic order):
   Daniel Aravena         : Magnetic Suceptibility
   Michael Atanasov       : Ab Initio Ligand Field Theory (pilot matlab implementation)
   Alexander A. Auer      : GIAO ZORA, VPT2 properties, NMR spectrum
   Ute Becker             : All parallelization in ORCA, NUMFREQ, NUMCALC
   Giovanni Bistoni       : ED, misc. LED, open-shell LED, HFLD
   Martin Brehm           : Molecular dynamics
   Dmytro Bykov           : pre 5.0 version of the SCF Hessian
   Marcos Casanova-Páez   : Triplet and SCS-CIS(D). UHF-(DLPNO)-IP/EA/STEOM-CCSD. UHF-CVS-IP/STEOM-CCSD
   Vijay G. Chilkuri      : MRCI spin determinant printing, contributions to CSF-ICE
   Pauline Colinet        : FMM embedding
   Dipayan Datta          : RHF DLPNO-CCSD density
   Achintya Kumar Dutta   : EOM-CC, STEOM-CC
   Nicolas Foglia         : Exact transition moments, OPA infrastructure, MCD improvements
   Dmitry Ganyushin       : Spin-Orbit,Spin-Spin,Magnetic field MRCI
   Miquel Garcia          : C-PCM and meta-GGA Hessian, CCSD/C-PCM, Gaussian charge scheme
   Tiago L. C. Gouveia    : GS-ROHF, GS-ROCIS
   Yang Guo               : DLPNO-NEVPT2, F12-NEVPT2, CIM, IAO-localization
   Andreas Hansen         : Spin unrestricted coupled pair/coupled cluster methods
   Ingolf Harden          : AUTO-CI MPn and infrastructure 
   Benjamin Helmich-Paris : MC-RPA, TRAH-(SCF,CASSCF), AVAS, COSX integrals, SCF dyn. polar.
   Lee Huntington         : MR-EOM, pCC
   Robert Izsak           : Overlap fitted RIJCOSX, COSX-SCS-MP3, EOM
   Riya Kayal             : Wick's Theorem for AUTO-CI, AUTO-CI UHF-CCSDT
   Emily Kempfer          : AUTO-CI, RHF CISDT and CCSDT
   Christian Kollmar      : KDIIS, OOCD, Brueckner-CCSD(T), CCSD density, CASPT2, CASPT2-K, improved NEVPT2
   Axel Koslowski         : Symmetry handling
   Simone Kossmann        : Meta GGA functionals, TD-DFT gradient, OOMP2, (MP2 Hessian; deprecated post 5.0)
   Lucas Lang             : DCDCAS
   Marvin Lechner         : AUTO-CI (C++ implementation), FIC-MRCC
   Spencer Leger          : CASSCF response
   Dagmar Lenk            : GEPOL surface, SMD, ORCA-2-JSON
   Dimitrios Liakos       : Extrapolation schemes; Compound Job, initial MDCI parallelization
   Dimitrios Manganas     : Further ROCIS development; embedding schemes. LFT, Crystal Embedding
   Dimitrios Pantazis     : SARC Basis sets
   Anastasios Papadopoulos: AUTO-CI, single reference methods and gradients
   Taras Petrenko         : pre 6.0 DFT Hessian and TD-DFT gradient, (ASA, deprecated), ECA, 1-Electron XAS/XES, NRVS
   Peter Pinski           : DLPNO-MP2, DLPNO-MP2 Gradient
   Christoph Reimann      : Effective Core Potentials
   Marius Retegan         : Local ZFS, SOC
   Christoph Riplinger    : Optimizer, TS searches, QM/MM, DLPNO-CCSD(T), (RO)-DLPNO pert. Triples
   Michael Roemelt        : Original ROCIS implementation
   Masaaki Saitow         : Open-shell DLPNO-CCSD energy and density
   Barbara Sandhoefer     : DKH picture change effects
   Kantharuban Sivalingam : CASSCF convergence/infrastructure, NEVPT2 and variants, FIC-MRCI
   Bernardo de Souza      : ESD, SOC TD-DFT
   Georgi Stoychev        : AutoAux, RI-MP2 NMR, DLPNO-MP2 response, X2C
   Van Anh Tran           : RI-MP2 g-tensors
   Willem Van den Heuvel  : Paramagnetic NMR
   Zikuan Wang            : NOTCH, Electric field optimization 
   Frank Wennmohs         : Technical directorship and infrastructure
   Hang Xu                : AUTO-CI-Response properties 


 We gratefully acknowledge several colleagues who have allowed us to
 interface, adapt or use parts of their codes:
   Stefan Grimme, W. Hujo, H. Kruse, P. Pracht,  : VdW corrections, initial TS optimization,
                  C. Bannwarth, S. Ehlert,         DFT functionals, gCP, sTDA/sTD-DF
                  L. Wittmann, M. Mueller
   Ed Valeev, F. Pavosevic, A. Kumar             : LibInt (2-el integral package), F12 methods
   Garnet Chan, S. Sharma, J. Yang, R. Olivares  : DMRG
   Ulf Ekstrom                                   : XCFun DFT Library
   Mihaly Kallay                                 : mrcc  (arbitrary order and MRCC methods)
   Frank Weinhold                                : gennbo (NPA and NBO analysis)
   Simon Mueller                                 : openCOSMO-RS
   Christopher J. Cramer and Donald G. Truhlar   : smd solvation model
   Lars Goerigk                                  : TD-DFT with DH, B97 family of functionals
   V. Asgeirsson, H. Jonsson                     : NEB implementation
   FAccTs GmbH                                   : IRC, NEB, NEB-TS, DLPNO-Multilevel, CI-OPT
                                                   MM, QMMM, 2- and 3-layer-ONIOM, Crystal-QMMM,
                                                   LR-CPCM, SF, NACMEs, symmetry and pop. for TD-DFT,
                                                   nearIR, NL-DFT gradient (VV10), updates on ESD,
                                                   ML-optimized integration grids, MBIS, APM,
                                                   GOAT, DOCKER, SOLVATOR, interface openCOSMO-RS
   S Lehtola, MJT Oliveira, MAL Marques          : LibXC Library
   Liviu Ungur et al                             : ANISO software


 Your calculation uses the libint2 library for the computation of 2-el integrals
 For citations please refer to: http://libint.valeyev.net

 Your ORCA version has been built with support for libXC version: 6.2.2
 For citations please refer to: https://libxc.gitlab.io

 This ORCA versions uses:
   CBLAS   interface :  Fast vector & matrix operations
   LAPACKE interface :  Fast linear algebra routines
   SCALAPACK package :  Parallel linear algebra routines
   Shared memory     :  Shared parallel matrices
   BLAS/LAPACK       :  OpenBLAS 0.3.27  USE64BITINT DYNAMIC_ARCH NO_AFFINITY SkylakeX SINGLE_THREADED
        Core in use  :  SkylakeX
   Copyright (c) 2011-2014, The OpenBLAS Project


Your calculation utilizes the geometrical counterpoise correction gCP
Please cite in your paper:
H.Kruse, S. Grimme J.Chem.Phys., 136, (2012), 154101 
   

Your calculation utilizes the atom-pairwise dispersion correction
based on EEQ partial charges (D4)


================================================================================

----- Orbital basis set information -----
Your calculation utilizes the basis: def2-mTZVPP
   Stefan Grimme, Andreas Hansen, Sebastian Ehlert, and Jan-Michael Mewes 
   J. Chem. Phys. 154, 064103 (2021). DOI: 10.1063/5.0040021

----- AuxJ basis set information -----
Your calculation utilizes the auxiliary basis: def2/J
   F. Weigend, Phys. Chem. Chem. Phys. 8, 1057 (2006).

================================================================================
                                        WARNINGS
                       Please study these warnings very carefully!
================================================================================

Using LibXC functional ID 497 : Re-regularized SCAN exchange by Furness et al
[ 1]  J. W. Furness, A. D. Kaplan, J. Ning, J. P. Perdew, and J. Sun.,  J. Phys. Chem. Lett. 11, 8208-8215 (2020)
[ 2]  J. W. Furness, A. D. Kaplan, J. Ning, J. P. Perdew, and J. Sun.,  J. Phys. Chem. Lett. 11, 9248-9248 (2020)
Using LibXC functional ID 498 : Re-regularized SCAN correlation by Furness et al
[ 1]  J. W. Furness, A. D. Kaplan, J. Ning, J. P. Perdew, and J. Sun.,  J. Phys. Chem. Lett. 11, 8208-8215 (2020)
[ 2]  J. W. Furness, A. D. Kaplan, J. Ning, J. P. Perdew, and J. Sun.,  J. Phys. Chem. Lett. 11, 9248-9248 (2020)
Using LibXC functional ID 497 : Re-regularized SCAN exchange by Furness et al
[ 1]  J. W. Furness, A. D. Kaplan, J. Ning, J. P. Perdew, and J. Sun.,  J. Phys. Chem. Lett. 11, 8208-8215 (2020)
[ 2]  J. W. Furness, A. D. Kaplan, J. Ning, J. P. Perdew, and J. Sun.,  J. Phys. Chem. Lett. 11, 9248-9248 (2020)
Using LibXC functional ID 498 : Re-regularized SCAN correlation by Furness et al
[ 1]  J. W. Furness, A. D. Kaplan, J. Ning, J. P. Perdew, and J. Sun.,  J. Phys. Chem. Lett. 11, 8208-8215 (2020)
[ 2]  J. W. Furness, A. D. Kaplan, J. Ning, J. P. Perdew, and J. Sun.,  J. Phys. Chem. Lett. 11, 9248-9248 (2020)

================================================================================
                                       INPUT FILE
================================================================================
NAME = sp_gas.inp
|  1> ! r2scan-3c def2/J RI DEFGRID2 scfconv6 printgap
|  2> %output
|  3>     printlevel normal
|  4> end
|  5> * xyz 0 1
|  6> C -3.4341873813 -0.9663527911 0.3058051708
|  7> C -2.0865462996 -0.6243520702 -0.3164644219
|  8> C -1.2951369298 0.3455504152 0.5739132533
|  9> C 0.0156287484 0.6704231042 -0.0897735257
| 10> O 0.20894729 1.6281026864 -0.8117706245
| 11> O 0.9356492946 -0.2427121556 0.1814636766
| 12> C 2.2438633318 -0.1103635306 -0.4009221423
| 13> C 3.2661465841 -0.6696714165 0.5715867651
| 14> H -3.9787398489 -1.6533748032 -0.3360291899
| 15> H -3.2967203024 -1.4346755562 1.2768337596
| 16> H -4.0324079784 -0.0683445531 0.4364664134
| 17> H -2.2362137587 -0.165240394 -1.296003129
| 18> H -1.5016088374 -1.5354318423 -0.4551084184
| 19> H -1.1007526218 -0.1203882138 1.5390249202
| 20> H -1.8582465339 1.2689316897 0.7059700656
| 21> H 2.245144251 -0.6689379066 -1.3418488944
| 22> H 2.4210187057 0.9476405937 -0.6190309391
| 23> H 3.2534424053 -0.1029482108 1.4983026789
| 24> H 3.0368228484 -1.7078835858 0.792403011
| 25> H 4.2544500959 -0.6064742757 0.1283244098
| 26> *
| 27> 
| 28>                          ****END OF INPUT****
================================================================================

                       ****************************
                       * Single Point Calculation *
                       ****************************

---------------------------------
CARTESIAN COORDINATES (ANGSTROEM)
---------------------------------
  C     -3.434187   -0.966353    0.305805
  C     -2.086546   -0.624352   -0.316464
  C     -1.295137    0.345550    0.573913
  C      0.015629    0.670423   -0.089774
  O      0.208947    1.628103   -0.811771
  O      0.935649   -0.242712    0.181464
  C      2.243863   -0.110364   -0.400922
  C      3.266147   -0.669671    0.571587
  H     -3.978740   -1.653375   -0.336029
  H     -3.296720   -1.434676    1.276834
  H     -4.032408   -0.068345    0.436466
  H     -2.236214   -0.165240   -1.296003
  H     -1.501609   -1.535432   -0.455108
  H     -1.100753   -0.120388    1.539025
  H     -1.858247    1.268932    0.705970
  H      2.245144   -0.668938   -1.341849
  H      2.421019    0.947641   -0.619031
  H      3.253442   -0.102948    1.498303
  H      3.036823   -1.707884    0.792403
  H      4.254450   -0.606474    0.128324

----------------------------
CARTESIAN COORDINATES (A.U.)
----------------------------
  NO LB      ZA    FRAG     MASS         X           Y           Z
   0 C     6.0000    0    12.011   -6.489674   -1.826142    0.577888
   1 C     6.0000    0    12.011   -3.943001   -1.179854   -0.598031
   2 C     6.0000    0    12.011   -2.447454    0.652996    1.084539
   3 C     6.0000    0    12.011    0.029534    1.266916   -0.169647
   4 O     8.0000    0    15.999    0.394853    3.076668   -1.534024
   5 O     8.0000    0    15.999    1.768121   -0.458660    0.342917
   6 C     6.0000    0    12.011    4.240287   -0.208557   -0.757633
   7 C     6.0000    0    12.011    6.172123   -1.265496    1.080142
   8 H     1.0000    0     1.008   -7.518729   -3.124426   -0.635003
   9 H     1.0000    0     1.008   -6.229899   -2.711144    2.412866
  10 H     1.0000    0     1.008   -7.620147   -0.129152    0.824802
  11 H     1.0000    0     1.008   -4.225832   -0.312259   -2.449091
  12 H     1.0000    0     1.008   -2.837629   -2.901546   -0.860030
  13 H     1.0000    0     1.008   -2.080121   -0.227501    2.908336
  14 H     1.0000    0     1.008   -3.511577    2.397933    1.334090
  15 H     1.0000    0     1.008    4.242708   -1.264109   -2.535727
  16 H     1.0000    0     1.008    4.575062    1.790781   -1.169799
  17 H     1.0000    0     1.008    6.148115   -0.194544    2.831382
  18 H     1.0000    0     1.008    5.738764   -3.227432    1.497425
  19 H     1.0000    0     1.008    8.039746   -1.146070    0.242498

--------------------------------
INTERNAL COORDINATES (ANGSTROEM)
--------------------------------
 C      0   0   0     0.000000000000     0.00000000     0.00000000
 C      1   0   0     1.523259801932     0.00000000     0.00000000
 C      2   1   0     1.536167968123   111.14729600     0.00000000
 C      3   2   1     1.504702318675   109.23538490   180.87638157
 O      4   3   2     1.214825934595   124.81765661    93.48623797
 O      4   3   2     1.324319987024   111.46701204   275.17760993
 C      6   4   3     1.438093657493   119.04984774   178.38477085
 C      7   6   4     1.517781912574   108.62132177   147.43475657
 H      1   2   3     1.086502637666   110.12446651   180.07751699
 H      1   2   3     1.086793416597   110.47763353   300.02358619
 H      1   2   3     1.086903417341   110.52060477    60.18905569
 H      2   1   3     1.092098877503   109.84935562   239.32482811
 H      2   1   3     1.091531192216   109.79103081   120.59795777
 H      3   2   1     1.089185289461   109.59885086    61.35879404
 H      3   2   1     1.089570743918   109.82011312   300.00697089
 H      7   6   4     1.094234950591   107.59688957   267.94540039
 H      7   6   4     1.094681780601   108.47266076    25.45789755
 H      8   7   6     1.086342014712   110.27189791   298.10143421
 H      8   7   6     1.085925273070   109.89923843    58.08106447
 H      8   7   6     1.084997339014   109.28581908   178.06412220

---------------------------
INTERNAL COORDINATES (A.U.)
---------------------------
 C      0   0   0     0.000000000000     0.00000000     0.00000000
 C      1   0   0     2.878543856462     0.00000000     0.00000000
 C      2   1   0     2.902936755455   111.14729600     0.00000000
 C      3   2   1     2.843475295371   109.23538490   180.87638157
 O      4   3   2     2.295688316770   124.81765661    93.48623797
 O      4   3   2     2.502602089154   111.46701204   275.17760993
 C      6   4   3     2.717603167591   119.04984774   178.38477085
 C      7   6   4     2.868192145783   108.62132177   147.43475657
 H      1   2   3     2.053192428971   110.12446651   180.07751699
 H      1   2   3     2.053741921517   110.47763353   300.02358619
 H      1   2   3     2.053949792798   110.52060477    60.18905569
 H      2   1   3     2.063767789644   109.84935562   239.32482811
 H      2   1   3     2.062695019921   109.79103081   120.59795777
 H      3   2   1     2.058261906176   109.59885086    61.35879404
 H      3   2   1     2.058990309538   109.82011312   300.00697089
 H      7   6   4     2.067804382782   107.59688957   267.94540039
 H      7   6   4     2.068648769128   108.47266076    25.45789755
 H      8   7   6     2.052888895578   110.27189791   298.10143421
 H      8   7   6     2.052101368005   109.89923843    58.08106447
 H      8   7   6     2.050347826770   109.28581908   178.06412220

---------------------
BASIS SET INFORMATION
---------------------
There are 3 groups of distinct atoms

 Group   1 Type C   : 11s6p1d contracted to 5s3p1d pattern {62111/411/1}
 Group   2 Type O   : 11s6p2d contracted to 5s3p2d pattern {62111/411/11}
 Group   3 Type H   : 4s1p contracted to 2s1p pattern {31/1}

Atom   0C    basis set group =>   1
Atom   1C    basis set group =>   1
Atom   2C    basis set group =>   1
Atom   3C    basis set group =>   1
Atom   4O    basis set group =>   2
Atom   5O    basis set group =>   2
Atom   6C    basis set group =>   1
Atom   7C    basis set group =>   1
Atom   8H    basis set group =>   3
Atom   9H    basis set group =>   3
Atom  10H    basis set group =>   3
Atom  11H    basis set group =>   3
Atom  12H    basis set group =>   3
Atom  13H    basis set group =>   3
Atom  14H    basis set group =>   3
Atom  15H    basis set group =>   3
Atom  16H    basis set group =>   3
Atom  17H    basis set group =>   3
Atom  18H    basis set group =>   3
Atom  19H    basis set group =>   3
---------------------------------
AUXILIARY/J BASIS SET INFORMATION
---------------------------------
There are 3 groups of distinct atoms

 Group   1 Type C   : 12s5p4d2f1g contracted to 6s4p3d1f1g pattern {711111/2111/211/2/1}
 Group   2 Type O   : 12s5p4d2f1g contracted to 6s4p3d1f1g pattern {711111/2111/211/2/1}
 Group   3 Type H   : 5s2p1d contracted to 3s1p1d pattern {311/2/1}

Atom   0C    basis set group =>   1
Atom   1C    basis set group =>   1
Atom   2C    basis set group =>   1
Atom   3C    basis set group =>   1
Atom   4O    basis set group =>   2
Atom   5O    basis set group =>   2
Atom   6C    basis set group =>   1
Atom   7C    basis set group =>   1
Atom   8H    basis set group =>   3
Atom   9H    basis set group =>   3
Atom  10H    basis set group =>   3
Atom  11H    basis set group =>   3
Atom  12H    basis set group =>   3
Atom  13H    basis set group =>   3
Atom  14H    basis set group =>   3
Atom  15H    basis set group =>   3
Atom  16H    basis set group =>   3
Atom  17H    basis set group =>   3
Atom  18H    basis set group =>   3
Atom  19H    basis set group =>   3

Checking for AutoStart:
The File: sp_gas.gbw exists
Trying to determine its content:
     ... Fine, the file contains calculation information
     ... Fine, the calculation information was read
     ... Fine, the file contains a basis set
     ... Fine, the basis set was read
     ... Fine, the file contains a geometry
     ... Fine, the geometry was read
     ... Fine, the file contains a set of orbitals
     ... Fine, the orbitals can be read
     => possible old guess file was deleted
     => GBW file was renamed to GES file
     => GES file is set as startup file
     => Guess is set to MORead
     ... now leaving AutoStart

------------------------------------------------------------------------------
                             ORCA STARTUP CALCULATIONS
                           -- RI-GTO INTEGRALS CHOSEN --
------------------------------------------------------------------------------
------------------------------------------------------------------------------
                   ___                                                        
                  /   \      - P O W E R E D   B Y -                         
                 /     \                                                     
                 |  |  |   _    _      __       _____    __    __             
                 |  |  |  | |  | |    /  \     |  _  \  |  |  /  |          
                  \  \/   | |  | |   /    \    | | | |  |  | /  /          
                 / \  \   | |__| |  /  /\  \   | |_| |  |  |/  /          
                |  |  |   |  __  | /  /__\  \  |    /   |      \           
                |  |  |   | |  | | |   __   |  |    \   |  |\   \          
                \     /   | |  | | |  |  |  |  | |\  \  |  | \   \       
                 \___/    |_|  |_| |__|  |__|  |_| \__\ |__|  \__/        
                                                                              
                      - O R C A' S   B I G   F R I E N D -                    
                                      &                                       
                       - I N T E G R A L  F E E D E R -                       
                                                                              
 v1 FN, 2020, v2 2021, v3 2022-2024                                           
------------------------------------------------------------------------------


----------------------
SHARK INTEGRAL PACKAGE
----------------------

Number of atoms                             ...     20
Number of basis functions                   ...    222
Number of shells                            ...    110
Maximum angular momentum                    ...      2
Integral batch strategy                     ... SHARK/LIBINT Hybrid
RI-J (if used) integral strategy            ... SPLIT-RIJ (Revised 2003 algorithm where possible)
Printlevel                                  ...      1
Contraction scheme used                     ... SEGMENTED contraction
Prescreening option                         ... SCHWARTZ
   Thresh                                   ... 1.000e-10
   Tcut                                     ... 1.000e-11
   Tpresel                                  ... 1.000e-11 
Coulomb Range Separation                    ... NOT USED
Exchange Range Separation                   ... NOT USED
Multipole approximations                    ... NOT USED
Finite Nucleus Model                        ... NOT USED
CABS basis                                  ... NOT available
Auxiliary Coulomb fitting basis             ... AVAILABLE
   # of basis functions in Aux-J            ...    524
   # of shells in Aux-J                     ...    180
   Maximum angular momentum in Aux-J        ...      4
Auxiliary J/K fitting basis                 ... NOT available
Auxiliary Correlation fitting basis         ... NOT available
Auxiliary 'external' fitting basis          ... NOT available

Checking pre-screening integrals            ... done (  0.0 sec) Dimension = 110
Check shell pair data                       ... done (  0.0 sec)
Shell pair information
Shell pair cut-off parameter TPreSel        ...   1.0e-11
Total number of shell pairs                 ...      6105
Shell pairs after pre-screening             ...      5150
Total number of primitive shell pairs       ...     21533
Primitive shell pairs kept                  ...     12829
          la=0 lb=0:   1729 shell pairs
          la=1 lb=0:   1940 shell pairs
          la=1 lb=1:    573 shell pairs
          la=2 lb=0:    549 shell pairs
          la=2 lb=1:    309 shell pairs
          la=2 lb=2:     50 shell pairs

Calculating one electron integrals          ... done (  0.0 sec)
Calculating RI/J V-Matrix + Cholesky decomp.... done (  0.1 sec)
Calculating Nuclear repulsion               ... done (  0.0 sec) ENN=    386.372534958976 Eh

Diagonalization of the overlap matrix:
Smallest eigenvalue                        ... 1.301e-04
Time for diagonalization                   ...    0.010 sec
Threshold for overlap eigenvalues          ... 1.000e-07
Number of eigenvalues below threshold      ... 0
Time for construction of square roots      ...    0.017 sec
Total time needed                          ...    0.036 sec

-------------------
DFT GRID GENERATION
-------------------

General Integration Accuracy     IntAcc      ... 4.388
Radial Grid Type                 RadialGrid  ... OptM3 with GC (2021)
Angular Grid (max. ang.)         AngularGrid ... 4 (Lebedev-302)
Angular grid pruning method      GridPruning ... 4 (adaptive)
Weight generation scheme         WeightScheme... mBecke (2022)
Basis function cutoff            BFCut       ... 1.0000e-10
Integration weight cutoff        WCut        ... 1.0000e-14
Partially contracted basis set               ... off
Rotationally invariant grid construction     ... off
Angular grids for H and He will be reduced by one unit
Diffuse basis detected: some atoms will have their outermost
                        angular grid increased by 1.

Total number of grid points                  ...    87485
Total number of batches                      ...     1378
Average number of points per batch           ...       63
Average number of grid points per atom       ...     4374
Initializing property integral containers    ... done (  0.0 sec)

SHARK setup successfully completed in   1.3 seconds

Maximum memory used throughout the entire STARTUP-calculation: 39.2 MB
-------------------------------------------------------------------------------
                                 ORCA GUESS
                   Start orbitals & Density for SCF / CASSCF
-------------------------------------------------------------------------------

------------
SCF SETTINGS
------------
Hamiltonian:
 Density Functional     Method          .... DFT(GTOs)
  Functional kind                       .... Exchange
  Functional name                       .... Re-regularized SCAN exchange by Furness et al
  Functional family                     .... MGGA
  Functional refs                              
    [ 0] J. W. Furness, A. D. Kaplan, J. Ning, J. P. Perdew, and J. Sun.,  J. Phys. Chem. Lett. 11, 8208-8215 (2020), doi: 10.1021/acs.jpclett.0c02405
    [ 1] J. W. Furness, A. D. Kaplan, J. Ning, J. P. Perdew, and J. Sun.,  J. Phys. Chem. Lett. 11, 9248-9248 (2020), doi: 10.1021/acs.jpclett.0c03077
  Functional external parameters        .... 6
    Parameter  0 _c1        =  6.670000e-01 : c1 parameter        
    Parameter  1 _c2        =  8.000000e-01 : c2 parameter        
    Parameter  2 _d         =  1.240000e+00 : d parameter         
    Parameter  3 _k1        =  6.500000e-02 : k1 parameter        
    Parameter  4 _eta       =  1.000000e-03 : eta parameter       
    Parameter  5 _dp2       =  3.610000e-01 : dp2 parameter       
  Functional kind                       .... Correlation
  Functional name                       .... Re-regularized SCAN correlation by Furness et al
  Functional family                     .... MGGA
  Functional refs                              
    [ 0] J. W. Furness, A. D. Kaplan, J. Ning, J. P. Perdew, and J. Sun.,  J. Phys. Chem. Lett. 11, 8208-8215 (2020), doi: 10.1021/acs.jpclett.0c02405
    [ 1] J. W. Furness, A. D. Kaplan, J. Ning, J. P. Perdew, and J. Sun.,  J. Phys. Chem. Lett. 11, 9248-9248 (2020), doi: 10.1021/acs.jpclett.0c03077
  Functional external parameters        .... 1
    Parameter  0 _eta       =  1.000000e-03 : Regularization parameter
 Gradients option       PostSCFGGA      .... off
 RI-approximation to the Coulomb term is turned on
   Number of AuxJ basis functions       .... 524


General Settings:
 Integral files         IntName         .... sp_gas
 Hartree-Fock type      HFTyp           .... RHF
 Total Charge           Charge          ....    0
 Multiplicity           Mult            ....    1
 Number of Electrons    NEL             ....   64
 Basis Dimension        Dim             ....  222
 Nuclear Repulsion      ENuc            ....    386.3725349590 Eh

Convergence Acceleration:
 AO-DIIS                CNVDIIS         .... on
   Start iteration      DIISMaxIt       ....    12
   Startup error        DIISStart       ....  0.200000
   # of expansion vecs  DIISMaxEq       ....     5
   Bias factor          DIISBfac        ....   1.050
   Max. coefficient     DIISMaxC        ....  10.000
 MO-DIIS                CNVKDIIS        .... off
 Trust-Rad. Augm. Hess. CNVTRAH         .... auto
   Auto Start mean grad. ratio tolernc. ....  1.125000
   Auto Start start iteration           ....     1
   Auto Start num. interpolation iter.  ....    10
   Max. Number of Micro iterations      ....    24
   Max. Number of Macro iterations      .... Maxiter - #DIIS iter
   Number of Davidson start vectors     ....     2
   Converg. threshold    (grad. norm)   ....   3.330e-04
   Grad. Scal. Fac. for Micro threshold ....   0.100
   Minimum threshold for Micro iter.    ....   1.000e-02
   NR start threshold (gradient norm)   ....   1.000e-04
   Initial trust radius                 ....   0.400
   Minimum AH scaling param. (alpha)    ....   1.000
   Maximum AH scaling param. (alpha)    .... 1000.000
   Quad. conv. algorithm                .... NR
   White noise on init. David. guess    .... on
   Maximum white noise                  ....   0.010
   Pseudo random numbers                .... off
   Inactive MOs                         .... canonical
   Orbital update algorithm             .... Taylor
   Preconditioner                       .... Diag
   Full preconditioner red. dimension   ....   250
   COSX micro iterations for RIJONX calc.... off
 SOSCF                  CNVSOSCF        .... on
   Start iteration      SOSCFMaxIt      ....   150
   Startup grad/error   SOSCFStart      ....  0.003300
   Hessian update       SOSCFHessUp     .... L-BFGS
 Level Shifting         CNVShift        .... on
   Level shift para.    LevelShift      ....    0.2500
   Turn off err/grad.   ShiftErr        ....    0.0010
 Zerner damping         CNVZerner       .... off
 Static damping         CNVDamp         .... on
   Fraction old density DampFac         ....    0.7000
   Max. Damping (<1)    DampMax         ....    0.9800
   Min. Damping (>=0)   DampMin         ....    0.0000
   Turn off err/grad.   DampErr         ....    0.1000

SCF Procedure:
 Maximum # iterations   MaxIter         ....   125
 SCF integral mode      SCFMode         .... Direct
   Integral package                     .... SHARK and LIBINT hybrid scheme
 Reset frequency        DirectResetFreq ....    20
 Integral Threshold     Thresh          ....  1.000e-10 Eh
 Primitive CutOff       TCut            ....  1.000e-11 Eh

Convergence Tolerance:
 Convergence Check Mode ConvCheckMode   .... Total+1el-Energy
 Convergence forced     ConvForced      .... 0
 Energy Change          TolE            ....  1.000e-06 Eh
 1-El. energy change                    ....  1.000e-03 Eh
 Orbital Gradient       TolG            ....  3.330e-04
 Orbital Rotation angle TolX            ....  3.330e-04
 DIIS Error             TolErr          ....  1.000e-06

---------------------
INITIAL GUESS: MOREAD
---------------------
Guess MOs are being read from file: sp_gas.ges
Input Geometry matches current geometry (good)
Atom 0: N(Shells)= 9 and 6 - projection required
Input basis set needs projection
NBasis(read)= 136
NBasis(calc)= 222
Basis set overlap was calculated
Using GuessMode=FMatrix for the initial guess
C*T matrix was formed
Effective Fockian was calculated
Effective Fockian was diagonalized
Initial density was built
                      ------------------
                      INITIAL GUESS DONE (   0.0 sec)
                      ------------------
             **** ENERGY FILE WAS UPDATED (sp_gas.en.tmp) ****
Finished Guess after   0.3 sec
Maximum memory used throughout the entire GUESS-calculation: 14.8 MB

-------------------------------------------------------------------------------------------
                                      ORCA LEAN-SCF
                              memory conserving SCF solver
-------------------------------------------------------------------------------------------

----------------------------------------D-I-I-S--------------------------------------------
Iteration    Energy (Eh)           Delta-E    RMSDP     MaxDP     DIISErr   Damp  Time(sec)
-------------------------------------------------------------------------------------------
               ***  Starting incremental Fock matrix formation  ***
    1    -386.0466897812210618     0.00e+00  3.60e-03  1.32e-01  6.26e-01  0.700   3.1
    2    -386.1045569520770187    -5.79e-02  2.93e-03  8.73e-02  4.40e-01  0.700   2.7
    3    -386.1454595493221404    -4.09e-02  2.14e-03  6.17e-02  3.08e-01  0.700   2.6
    4    -386.1741736685091837    -2.87e-02  1.53e-03  4.36e-02  2.16e-01  0.700   2.5
                               ***Turning on AO-DIIS***
    5    -386.1943129767885239    -2.01e-02  1.11e-03  3.14e-02  1.51e-01  0.700   2.5
    6    -386.2084291573759174    -1.41e-02  7.85e-04  2.22e-02  1.06e-01  0.700   2.4
    7    -386.2183240179427912    -9.89e-03  5.53e-04  1.56e-02  7.41e-02  0.700   2.4
    8    -386.2252562732551269    -6.93e-03  1.30e-03  3.63e-02  5.19e-02  0.000   2.4
                              *** Initializing SOSCF ***
---------------------------------------S-O-S-C-F--------------------------------------
Iteration    Energy (Eh)           Delta-E    RMSDP     MaxDP     MaxGrad    Time(sec)
--------------------------------------------------------------------------------------
    9    -386.2414518021109870    -1.62e-02  7.97e-06  2.47e-04  8.42e-05     2.5
               *** Restarting incremental Fock matrix formation ***
   10    -386.2414518709623508    -6.89e-08  4.33e-06  7.79e-05  3.14e-05     2.9
                  *** Gradient check signals convergence ***

               *****************************************************
               *                     SUCCESS                       *
               *           SCF CONVERGED AFTER  10 CYCLES          *
               *****************************************************

             **** ENERGY FILE WAS UPDATED (sp_gas.en.tmp) ****

----------------
TOTAL SCF ENERGY
----------------

Total Energy       :       -386.24145187096235 Eh          -10510.16423 eV

Components:
Nuclear Repulsion  :        386.37253495897573 Eh           10513.73118 eV
Electronic Energy  :       -772.61398682993809 Eh          -21023.89542 eV
One Electron Energy:      -1289.86598926328497 Eh          -35099.03797 eV
Two Electron Energy:        517.25200243334689 Eh           14075.14255 eV

Virial components:
Potential Energy   :       -770.89012380412464 Eh          -20976.98672 eV
Kinetic Energy     :        384.64867193316235 Eh           10466.82249 eV
Virial Ratio       :          2.00414086945834

DFT components:
N(Alpha)           :       32.000038511595 electrons
N(Beta)            :       32.000038511595 electrons
N(Total)           :       64.000077023190 electrons
E(X)               :      -52.080596359269 Eh       
E(C)               :       -2.036450181695 Eh       
E(XC)              :      -54.117046540964 Eh       

---------------
SCF CONVERGENCE
---------------

  Last Energy change         ...    6.8851e-08  Tolerance :   1.0000e-06
  Last MAX-Density change    ...    7.7915e-05  Tolerance :   1.0000e-05
  Last RMS-Density change    ...    4.3325e-06  Tolerance :   1.0000e-06
  Last DIIS Error            ...    8.4194e-05  Tolerance :   1.0000e-06
  Last Orbital Gradient      ...    3.1399e-05  Tolerance :   3.3300e-04
  Last Orbital Rotation      ...    1.2255e-04  Tolerance :   3.3300e-04


----------------
ORBITAL ENERGIES
----------------

  NO   OCC          E(Eh)            E(eV) 
   0   2.0000     -18.995616      -516.8970 
   1   2.0000     -18.924616      -514.9650 
   2   2.0000     -10.149589      -276.1844 
   3   2.0000     -10.090174      -274.5676 
   4   2.0000     -10.039925      -273.2003 
   5   2.0000     -10.038650      -273.1656 
   6   2.0000     -10.031770      -272.9783 
   7   2.0000     -10.023549      -272.7546 
   8   2.0000      -1.070183       -29.1212 
   9   2.0000      -0.972374       -26.4596 
  10   2.0000      -0.775565       -21.1042 
  11   2.0000      -0.742650       -20.2085 
  12   2.0000      -0.681004       -18.5311 
  13   2.0000      -0.615539       -16.7497 
  14   2.0000      -0.567760       -15.4495 
  15   2.0000      -0.532545       -14.4913 
  16   2.0000      -0.470966       -12.8156 
  17   2.0000      -0.455740       -12.4013 
  18   2.0000      -0.443169       -12.0592 
  19   2.0000      -0.422472       -11.4960 
  20   2.0000      -0.406022       -11.0484 
  21   2.0000      -0.388906       -10.5827 
  22   2.0000      -0.376631       -10.2487 
  23   2.0000      -0.361311        -9.8318 
  24   2.0000      -0.354487        -9.6461 
  25   2.0000      -0.347697        -9.4613 
  26   2.0000      -0.326112        -8.8740 
  27   2.0000      -0.310800        -8.4573 
  28   2.0000      -0.309969        -8.4347 
  29   2.0000      -0.307455        -8.3663 
  30   2.0000      -0.268901        -7.3172 
  31   2.0000      -0.230906        -6.2833 
  32   0.0000      -0.012617        -0.3433 
  33   0.0000       0.076136         2.0718 
  34   0.0000       0.094739         2.5780 
  35   0.0000       0.105168         2.8618 
  36   0.0000       0.120992         3.2923 
  37   0.0000       0.126962         3.4548 
  38   0.0000       0.136273         3.7082 
  39   0.0000       0.140916         3.8345 
  40   0.0000       0.144373         3.9286 
  41   0.0000       0.158466         4.3121 
  42   0.0000       0.166494         4.5305 
*Only the first 10 virtual orbitals were printed.

                    ********************************
                    * MULLIKEN POPULATION ANALYSIS *
                    ********************************

-----------------------
MULLIKEN ATOMIC CHARGES
-----------------------
   0 C :   -0.472999
   1 C :   -0.232741
   2 C :   -0.342307
   3 C :    0.421731
   4 O :   -0.433010
   5 O :   -0.177545
   6 C :   -0.155236
   7 C :   -0.443082
   8 H :    0.150674
   9 H :    0.144443
  10 H :    0.146468
  11 H :    0.153852
  12 H :    0.148020
  13 H :    0.154593
  14 H :    0.162241
  15 H :    0.143928
  16 H :    0.179899
  17 H :    0.152521
  18 H :    0.151967
  19 H :    0.146583
Sum of atomic charges:    0.0000000

--------------------------------
MULLIKEN REDUCED ORBITAL CHARGES
--------------------------------
  0 C s       :     3.336408  s :     3.336408
      pz      :     1.060614  p :     3.109539
      px      :     0.963990
      py      :     1.084935
      dz2     :     0.005325  d :     0.027052
      dxz     :     0.005041
      dyz     :     0.005171
      dx2y2   :     0.003773
      dxy     :     0.007741

  1 C s       :     3.201373  s :     3.201373
      pz      :     1.017582  p :     2.994280
      px      :     0.950319
      py      :     1.026379
      dz2     :     0.007923  d :     0.037088
      dxz     :     0.006727
      dyz     :     0.006551
      dx2y2   :     0.006173
      dxy     :     0.009714

  2 C s       :     3.262397  s :     3.262397
      pz      :     1.004518  p :     3.045241
      px      :     0.973981
      py      :     1.066741
      dz2     :     0.007014  d :     0.034669
      dxz     :     0.007183
      dyz     :     0.005984
      dx2y2   :     0.007091
      dxy     :     0.007398

  3 C s       :     3.128272  s :     3.128272
      pz      :     0.754131  p :     2.324766
      px      :     0.815764
      py      :     0.754871
      dz2     :     0.019464  d :     0.125232
      dxz     :     0.022714
      dyz     :     0.018379
      dx2y2   :     0.027727
      dxy     :     0.036948

  4 O s       :     3.838828  s :     3.838828
      pz      :     1.410289  p :     4.572205
      px      :     1.771165
      py      :     1.390751
      dz2     :     0.006256  d :     0.021977
      dxz     :     0.000582
      dyz     :     0.008353
      dx2y2   :     0.005224
      dxy     :     0.001562

  5 O s       :     3.698518  s :     3.698518
      pz      :     1.691258  p :     4.448587
      px      :     1.167342
      py      :     1.589986
      dz2     :     0.005081  d :     0.030440
      dxz     :     0.014129
      dyz     :     0.008740
      dx2y2   :    -0.000195
      dxy     :     0.002687

  6 C s       :     3.286780  s :     3.286780
      pz      :     0.972746  p :     2.815013
      px      :     0.727644
      py      :     1.114623
      dz2     :     0.009871  d :     0.053443
      dxz     :     0.013556
      dyz     :     0.007382
      dx2y2   :     0.014643
      dxy     :     0.007990

  7 C s       :     3.310549  s :     3.310549
      pz      :     1.019021  p :     3.106723
      px      :     1.011941
      py      :     1.075761
      dz2     :     0.004601  d :     0.025810
      dxz     :     0.006155
      dyz     :     0.005506
      dx2y2   :     0.007030
      dxy     :     0.002519

  8 H s       :     0.830995  s :     0.830995
      pz      :     0.006102  p :     0.018331
      px      :     0.005595
      py      :     0.006634

  9 H s       :     0.837304  s :     0.837304
      pz      :     0.009548  p :     0.018253
      px      :     0.003645
      py      :     0.005060

 10 H s       :     0.835283  s :     0.835283
      pz      :     0.003821  p :     0.018249
      px      :     0.005926
      py      :     0.008502

 11 H s       :     0.828405  s :     0.828405
      pz      :     0.009575  p :     0.017742
      px      :     0.003448
      py      :     0.004719

 12 H s       :     0.834177  s :     0.834177
      pz      :     0.003580  p :     0.017803
      px      :     0.005598
      py      :     0.008624

 13 H s       :     0.827413  s :     0.827413
      pz      :     0.009658  p :     0.017995
      px      :     0.003516
      py      :     0.004821

 14 H s       :     0.819985  s :     0.819985
      pz      :     0.003392  p :     0.017774
      px      :     0.005251
      py      :     0.009131

 15 H s       :     0.838683  s :     0.838683
      pz      :     0.009542  p :     0.017389
      px      :     0.002344
      py      :     0.005503

 16 H s       :     0.802004  s :     0.802004
      pz      :     0.003585  p :     0.018097
      px      :     0.002720
      py      :     0.011793

 17 H s       :     0.829251  s :     0.829251
      pz      :     0.009174  p :     0.018228
      px      :     0.003520
      py      :     0.005534

 18 H s       :     0.829767  s :     0.829767
      pz      :     0.003950  p :     0.018266
      px      :     0.003876
      py      :     0.010440

 19 H s       :     0.834970  s :     0.834970
      pz      :     0.004694  p :     0.018447
      px      :     0.009998
      py      :     0.003754


------------------------
MULLIKEN OVERLAP CHARGES
------------------------
B(  0-C ,  1-C ) :   0.4809 B(  0-C ,  2-C ) :  -0.1895 B(  0-C ,  8-H ) :   0.8060 
B(  0-C ,  9-H ) :   0.8609 B(  0-C , 10-H ) :   0.8566 B(  1-C ,  2-C ) :   0.4855 
B(  1-C ,  8-H ) :  -0.0821 B(  1-C ,  9-H ) :  -0.1031 B(  1-C , 10-H ) :  -0.0963 
B(  1-C , 11-H ) :   0.8231 B(  1-C , 12-H ) :   0.8360 B(  1-C , 13-H ) :  -0.0671 
B(  1-C , 14-H ) :  -0.0565 B(  2-C ,  3-C ) :   0.4672 B(  2-C ,  4-O ) :  -0.1019 
B(  2-C , 11-H ) :  -0.0546 B(  2-C , 12-H ) :  -0.0619 B(  2-C , 13-H ) :   0.8560 
B(  2-C , 14-H ) :   0.8752 B(  3-C ,  4-O ) :   0.9926 B(  3-C ,  5-O ) :   0.3379 
B(  3-C ,  6-C ) :  -0.2310 B(  3-C , 13-H ) :  -0.0991 B(  3-C , 14-H ) :  -0.1044 
B(  4-O ,  5-O ) :  -0.2246 B(  5-O ,  6-C ) :   0.2456 B(  5-O ,  7-C ) :  -0.0717 
B(  5-O , 15-H ) :  -0.0757 B(  5-O , 16-H ) :  -0.0690 B(  6-C ,  7-C ) :   0.4649 
B(  6-C , 15-H ) :   0.7465 B(  6-C , 16-H ) :   0.8766 B(  6-C , 17-H ) :  -0.0824 
B(  6-C , 19-H ) :  -0.0804 B(  7-C , 16-H ) :  -0.0693 B(  7-C , 17-H ) :   0.8377 
B(  7-C , 18-H ) :   0.8089 B(  7-C , 19-H ) :   0.8215 B(  9-H , 10-H ) :  -0.0530 
B( 15-H , 16-H ) :  -0.0552 


                     *******************************
                     * LOEWDIN POPULATION ANALYSIS *
                     *******************************

----------------------
LOEWDIN ATOMIC CHARGES
----------------------
   0 C :   -0.419548
   1 C :   -0.287732
   2 C :   -0.229734
   3 C :    0.356393
   4 O :   -0.435026
   5 O :   -0.598866
   6 C :    0.032579
   7 C :   -0.387135
   8 H :    0.153067
   9 H :    0.150608
  10 H :    0.151538
  11 H :    0.160558
  12 H :    0.158404
  13 H :    0.175891
  14 H :    0.177007
  15 H :    0.174157
  16 H :    0.191681
  17 H :    0.158586
  18 H :    0.158367
  19 H :    0.159209

-------------------------------
LOEWDIN REDUCED ORBITAL CHARGES
-------------------------------
  0 C s       :     2.973594  s :     2.973594
      pz      :     1.143221  p :     3.382545
      px      :     1.087674
      py      :     1.151650
      dz2     :     0.012600  d :     0.063409
      dxz     :     0.011461
      dyz     :     0.012824
      dx2y2   :     0.008491
      dxy     :     0.018032

  1 C s       :     2.935520  s :     2.935520
      pz      :     1.108063  p :     3.272221
      px      :     1.061779
      py      :     1.102379
      dz2     :     0.017099  d :     0.079991
      dxz     :     0.014222
      dyz     :     0.014670
      dx2y2   :     0.012775
      dxy     :     0.021225

  2 C s       :     2.926754  s :     2.926754
      pz      :     1.092350  p :     3.229247
      px      :     1.026554
      py      :     1.110342
      dz2     :     0.015337  d :     0.073734
      dxz     :     0.014339
      dyz     :     0.013587
      dx2y2   :     0.013320
      dxy     :     0.017151

  3 C s       :     2.735146  s :     2.735146
      pz      :     0.821803  p :     2.635470
      px      :     0.927259
      py      :     0.886408
      dz2     :     0.037324  d :     0.272991
      dxz     :     0.047120
      dyz     :     0.046163
      dx2y2   :     0.060163
      dxy     :     0.082222

  4 O s       :     3.550996  s :     3.550996
      pz      :     1.462874  p :     4.668185
      px      :     1.720512
      py      :     1.484798
      dz2     :     0.034414  d :     0.215845
      dxz     :     0.032408
      dyz     :     0.059309
      dx2y2   :     0.043923
      dxy     :     0.045792

  5 O s       :     3.460230  s :     3.460230
      pz      :     1.679814  p :     4.661418
      px      :     1.356294
      py      :     1.625310
      dz2     :     0.070049  d :     0.477219
      dxz     :     0.107306
      dyz     :     0.052381
      dx2y2   :     0.126766
      dxy     :     0.120716

  6 C s       :     2.868631  s :     2.868631
      pz      :     1.029910  p :     2.979008
      px      :     0.844011
      py      :     1.105088
      dz2     :     0.020845  d :     0.119782
      dxz     :     0.031328
      dyz     :     0.016890
      dx2y2   :     0.033515
      dxy     :     0.017205

  7 C s       :     2.972864  s :     2.972864
      pz      :     1.118309  p :     3.353374
      px      :     1.089998
      py      :     1.145067
      dz2     :     0.010873  d :     0.060897
      dxz     :     0.014284
      dyz     :     0.013367
      dx2y2   :     0.017250
      dxy     :     0.005124

  8 H s       :     0.803356  s :     0.803356
      pz      :     0.014717  p :     0.043577
      px      :     0.013056
      py      :     0.015804

  9 H s       :     0.805980  s :     0.805980
      pz      :     0.023545  p :     0.043412
      px      :     0.008202
      py      :     0.011665

 10 H s       :     0.805025  s :     0.805025
      pz      :     0.008353  p :     0.043437
      px      :     0.013918
      py      :     0.021167

 11 H s       :     0.796073  s :     0.796073
      pz      :     0.023911  p :     0.043369
      px      :     0.008158
      py      :     0.011300

 12 H s       :     0.798245  s :     0.798245
      pz      :     0.008293  p :     0.043352
      px      :     0.013542
      py      :     0.021517

 13 H s       :     0.780047  s :     0.780047
      pz      :     0.023766  p :     0.044062
      px      :     0.008259
      py      :     0.012037

 14 H s       :     0.779629  s :     0.779629
      pz      :     0.007761  p :     0.043364
      px      :     0.012737
      py      :     0.022866

 15 H s       :     0.785498  s :     0.785498
      pz      :     0.021904  p :     0.040345
      px      :     0.005367
      py      :     0.013075

 16 H s       :     0.764537  s :     0.764537
      pz      :     0.008041  p :     0.043782
      px      :     0.006331
      py      :     0.029411

 17 H s       :     0.798065  s :     0.798065
      pz      :     0.022529  p :     0.043349
      px      :     0.007579
      py      :     0.013241

 18 H s       :     0.798204  s :     0.798204
      pz      :     0.008809  p :     0.043429
      px      :     0.008614
      py      :     0.026005

 19 H s       :     0.796937  s :     0.796937
      pz      :     0.011128  p :     0.043854
      px      :     0.024412
      py      :     0.008315


---------------------------------
LOEWDIN BOND ORDERS (THRESH 0.050000)
---------------------------------
B(  0-C ,  1-C ) :   1.1445 B(  0-C ,  2-C ) :   0.0745 B(  0-C ,  8-H ) :   0.9277 
B(  0-C ,  9-H ) :   0.9293 B(  0-C , 10-H ) :   0.9288 B(  1-C ,  2-C ) :   1.0707 
B(  1-C ,  3-C ) :   0.0821 B(  1-C , 11-H ) :   0.8911 B(  1-C , 12-H ) :   0.8914 
B(  2-C ,  3-C ) :   0.9251 B(  2-C ,  4-O ) :   0.1814 B(  2-C ,  5-O ) :   0.1834 
B(  2-C , 13-H ) :   0.8668 B(  2-C , 14-H ) :   0.8717 B(  3-C ,  4-O ) :   2.1698 
B(  3-C ,  5-O ) :   1.4535 B(  3-C ,  6-C ) :   0.0861 B(  4-O ,  5-O ) :   0.4615 
B(  4-O ,  6-C ) :   0.0724 B(  5-O ,  6-C ) :   1.2909 B(  5-O ,  7-C ) :   0.1681 
B(  5-O , 15-H ) :   0.0952 B(  5-O , 16-H ) :   0.0903 B(  6-C ,  7-C ) :   1.0912 
B(  6-C , 15-H ) :   0.8325 B(  6-C , 16-H ) :   0.8134 B(  7-C , 17-H ) :   0.9244 
B(  7-C , 18-H ) :   0.9221 B(  7-C , 19-H ) :   0.9194 

------------------------------------------
LOEWDIN REDUCED ORBITAL POPULATIONS PER MO
-------------------------------------------
THRESHOLD FOR PRINTING IS 0.1%%
                      0         1         2         3         4         5   
                 -18.99562 -18.92462 -10.14959 -10.09017 -10.03993 -10.03865
                   2.00000   2.00000   2.00000   2.00000   2.00000   2.00000
                  --------  --------  --------  --------  --------  --------
 1 C  s               0.0       0.0       0.0       0.0       0.2      99.5
 2 C  s               0.0       0.0       0.0       0.0      99.4       0.2
 3 C  s               0.0       0.0      98.9       0.0       0.0       0.0
 4 O  s               0.0      99.9       0.0       0.0       0.0       0.0
 4 O  py              0.0       0.0       0.1       0.0       0.0       0.0
 4 O  dyz             0.0       0.0       0.2       0.0       0.0       0.0
 5 O  s              99.9       0.0       0.0       0.0       0.0       0.0
 5 O  dxz             0.0       0.0       0.0       0.1       0.0       0.0
 5 O  dx2y2           0.0       0.0       0.0       0.1       0.0       0.0
 5 O  dxy             0.0       0.0       0.2       0.0       0.0       0.0
 6 C  s               0.0       0.0       0.0      99.4       0.0       0.0

                      6         7         8         9        10        11   
                 -10.03177 -10.02355  -1.07018  -0.97237  -0.77556  -0.74265
                   2.00000   2.00000   2.00000   2.00000   2.00000   2.00000
                  --------  --------  --------  --------  --------  --------
 0 C  s               0.0      99.7       0.0       0.0       8.5       6.1
 0 C  pz              0.0       0.0       0.0       0.0       0.2       0.1
 0 C  px              0.0       0.0       0.0       0.0       2.0       0.6
 0 C  py              0.0       0.0       0.0       0.0       0.2       0.1
 1 C  s               0.0       0.0       0.1       0.0      19.4       7.3
 1 C  pz              0.0       0.0       0.0       0.0       1.2       0.2
 1 C  px              0.0       0.1       0.2       0.0       0.0       0.5
 1 C  py              0.0       0.0       0.1       0.0       0.5       0.0
 2 C  s               0.0       0.0       1.0       0.3      19.4       1.2
 2 C  pz              0.0       0.0       0.3       0.2       0.8       0.2
 2 C  px              0.0       0.0       1.7       0.1       0.2       1.7
 2 C  py              0.0       0.0       0.0       0.3       1.0       0.3
 3 C  s               0.0       0.0      16.0       4.4       2.6       0.9
 3 C  pz              0.0       0.0       0.1       5.9       2.0       0.3
 3 C  px              0.0       0.0       4.5       0.8       4.8       0.7
 3 C  py              0.0       0.0       0.5      16.4       2.2       1.3
 3 C  dz2             0.0       0.0       0.2       0.1       0.0       0.0
 3 C  dxz             0.0       0.0       0.0       0.1       0.0       0.0
 3 C  dyz             0.0       0.0       0.5       0.8       0.0       0.0
 3 C  dx2y2           0.0       0.0       0.0       0.4       0.1       0.0
 3 C  dxy             0.0       0.0       0.4       0.5       0.0       0.1
 4 O  s               0.0       0.0      11.1      43.3       1.3       0.3
 4 O  pz              0.0       0.0       1.0       1.4       0.1       0.0
 4 O  px              0.0       0.0       0.0       0.2       0.1       0.0
 4 O  py              0.0       0.0       2.0       2.2       0.1       0.1
 4 O  dxz             0.0       0.0       0.0       0.1       0.1       0.0
 4 O  dyz             0.0       0.0       0.9       0.1       0.2       0.1
 4 O  dx2y2           0.0       0.0       0.4       0.0       0.0       0.1
 4 O  dxy             0.0       0.0       0.1       0.2       0.2       0.0
 5 O  s               0.0       0.0      42.9      15.1       0.0       1.0
 5 O  pz              0.0       0.0       0.7       0.1       0.2       0.2
 5 O  px              0.0       0.0       0.1       0.6       5.4       8.8
 5 O  py              0.0       0.0       2.0       0.4       0.2       0.8
 5 O  dz2             0.0       0.0       0.2       0.0       0.0       0.1
 5 O  dxz             0.0       0.0       0.0       0.2       0.1       0.3
 5 O  dyz             0.0       0.0       0.2       0.3       0.0       0.0
 5 O  dx2y2           0.0       0.0       0.0       0.5       0.0       1.2
 5 O  dxy             0.0       0.0       0.4       0.4       0.2       0.1
 6 C  s               0.0       0.0       4.5       1.8       4.5      16.9
 6 C  pz              0.0       0.0       0.7       0.4       0.2       0.7
 6 C  px              0.0       0.0       4.8       1.1       0.1       2.5
 6 C  py              0.0       0.0       0.0       0.2       0.1       0.5
 6 C  dxz             0.0       0.0       0.2       0.1       0.0       0.1
 6 C  dx2y2           0.0       0.0       0.3       0.1       0.0       0.0
 7 C  s              99.7       0.0       0.3       0.2       2.8      20.3
 7 C  pz              0.0       0.0       0.1       0.0       0.2       0.8
 7 C  px              0.0       0.0       0.5       0.3       0.3       0.8
 7 C  py              0.0       0.0       0.1       0.0       0.1       0.2
 8 H  s               0.0       0.0       0.0       0.0       1.1       0.9
 9 H  s               0.0       0.0       0.0       0.0       1.1       0.9
10 H  s               0.0       0.0       0.0       0.0       1.1       0.9
11 H  s               0.0       0.0       0.0       0.0       2.5       1.1
11 H  pz              0.0       0.0       0.0       0.0       0.2       0.1
12 H  s               0.0       0.0       0.0       0.0       2.6       1.0
12 H  py              0.0       0.0       0.0       0.0       0.2       0.1
13 H  s               0.0       0.0       0.1       0.0       2.8       0.1
13 H  pz              0.0       0.0       0.0       0.0       0.2       0.0
14 H  s               0.0       0.0       0.1       0.0       2.5       0.2
14 H  py              0.0       0.0       0.0       0.0       0.2       0.0
15 H  s               0.0       0.0       0.3       0.1       0.7       2.9
15 H  pz              0.0       0.0       0.0       0.0       0.1       0.2
16 H  s               0.0       0.0       0.4       0.1       0.6       2.5
16 H  py              0.0       0.0       0.0       0.0       0.1       0.2
17 H  s               0.0       0.0       0.0       0.0       0.4       3.2
17 H  pz              0.0       0.0       0.0       0.0       0.0       0.2
18 H  s               0.0       0.0       0.0       0.0       0.4       3.3
18 H  py              0.0       0.0       0.0       0.0       0.0       0.3
19 H  s               0.0       0.0       0.0       0.0       0.4       3.4
19 H  px              0.0       0.0       0.0       0.0       0.0       0.3

                     12        13        14        15        16        17   
                  -0.68100  -0.61554  -0.56776  -0.53254  -0.47097  -0.45574
                   2.00000   2.00000   2.00000   2.00000   2.00000   2.00000
                  --------  --------  --------  --------  --------  --------
 0 C  s              20.0       5.1       7.9       0.0       0.3       0.0
 0 C  pz              0.1       0.1       2.7       0.2       0.4       2.8
 0 C  px              0.1       0.9       5.7       0.0       2.1       1.1
 0 C  py              0.0       0.2       0.1       0.1       0.5       0.4
 0 C  dxz             0.0       0.0       0.1       0.0       0.0       0.0
 1 C  s               2.1       1.2      15.0       0.3       0.2       0.1
 1 C  pz              0.0       0.0       5.3       0.9       3.5       7.1
 1 C  px              7.5       1.9       2.1       0.0       0.1       1.5
 1 C  py              2.5       0.8       0.5       0.5       0.0       1.8
 1 C  dxz             0.1       0.0       0.0       0.0       0.0       0.0
 2 C  s              12.1       3.2       3.7       1.4       0.9       0.2
 2 C  pz              0.1       0.0       4.4       1.1       8.2       4.9
 2 C  px              2.0       1.4       1.1       1.5       5.7       0.3
 2 C  py              0.6       0.0       4.0       0.4       1.0       8.7
 2 C  dxz             0.0       0.0       0.1       0.0       0.2       0.0
 2 C  dyz             0.0       0.0       0.1       0.0       0.0       0.0
 3 C  s               2.5       1.6       0.6       2.7       1.4       1.6
 3 C  pz              2.1       0.4       1.6       0.2       0.8       1.1
 3 C  px              4.8       1.5       1.5       1.1      11.0       1.0
 3 C  py              0.5       1.4       0.3       2.1       0.7       2.7
 3 C  dx2y2           0.1       0.0       0.0       0.0       0.0       0.2
 4 O  s               0.9       0.1       0.3       1.8       0.6       5.2
 4 O  pz              0.2       0.1       0.4       0.2       0.0       7.1
 4 O  px              0.3       0.0       0.2       0.6       6.9       1.3
 4 O  py              0.2       0.2       0.0       2.0       1.1       2.9
 4 O  dxz             0.2       0.0       0.1       0.0       0.3       0.0
 4 O  dyz             0.2       0.1       0.1       0.1       0.0       0.3
 4 O  dx2y2           0.0       0.2       0.0       0.1       0.1       0.1
 4 O  dxy             0.2       0.0       0.0       0.1       0.7       0.1
 5 O  s               0.9       0.0       0.4       5.0       0.3       0.2
 5 O  pz              0.3       1.3       0.0       2.7       1.0       1.7
 5 O  px              1.6      14.7       0.2      10.2       0.4       4.9
 5 O  py              0.1       1.7       0.1       8.6      13.0       4.9
 5 O  dz2             0.3       0.0       0.0       0.0       0.0       0.3
 5 O  dxz             0.0       0.9       0.5       0.5       0.0       0.3
 5 O  dyz             0.0       0.0       0.0       0.1       0.1       0.0
 5 O  dx2y2           0.8       0.1       0.1       0.1       0.4       0.0
 5 O  dxy             0.4       0.3       0.0       0.1       1.2       0.0
 6 C  s               0.4       5.9       1.8       6.2       0.1       0.1
 6 C  pz              0.2       2.1       0.7      11.5       1.8       6.3
 6 C  px              2.7       4.4       0.0       5.7       0.2       0.1
 6 C  py              0.1       0.2       0.2       4.1      13.8       5.3
 6 C  dxz             0.1       0.2       0.0       0.2       0.0       0.0
 6 C  dx2y2           0.0       0.0       0.0       0.3       0.0       0.0
 7 C  s               7.2      15.0       1.0       0.6       0.0       0.0
 7 C  pz              0.0       1.4       0.6       4.2       1.3       1.5
 7 C  px              0.1       2.6       0.4       0.1       0.5       0.7
 7 C  py              0.0       0.4       0.2       1.4       3.2       3.1
 8 H  s               4.4       1.7       3.0       0.0       1.2       0.4
 8 H  pz              0.1       0.1       0.1       0.0       0.0       0.0
 8 H  py              0.2       0.1       0.1       0.0       0.0       0.0
 9 H  s               4.0       1.5       4.0       0.0       0.0       1.0
 9 H  pz              0.3       0.1       0.2       0.0       0.0       0.0
10 H  s               4.0       1.4       4.0       0.0       0.2       0.3
10 H  px              0.1       0.0       0.0       0.0       0.0       0.0
10 H  py              0.2       0.1       0.2       0.0       0.0       0.0
11 H  s               0.4       0.4       6.9       0.3       0.4       3.3
11 H  pz              0.0       0.0       0.4       0.0       0.0       0.1
11 H  py              0.0       0.0       0.1       0.0       0.0       0.0
12 H  s               0.4       0.3       7.2       0.4       0.0       0.5
12 H  px              0.0       0.0       0.1       0.0       0.0       0.0
12 H  py              0.0       0.0       0.4       0.0       0.0       0.0
13 H  s               2.7       0.6       2.2       0.8       3.7       4.4
13 H  pz              0.2       0.0       0.1       0.0       0.1       0.2
14 H  s               2.5       1.2       2.5       1.7       0.9       0.6
14 H  py              0.1       0.1       0.1       0.1       0.1       0.0
15 H  s               0.1       2.3       0.9       5.7       3.3       3.6
15 H  pz              0.0       0.1       0.0       0.1       0.2       0.1
15 H  py              0.0       0.1       0.0       0.2       0.0       0.0
16 H  s               0.0       1.6       0.8       8.2       3.2       0.7
16 H  py              0.0       0.1       0.1       0.5       0.1       0.0
17 H  s               1.5       4.7       0.5       0.8       1.2       1.0
17 H  pz              0.1       0.2       0.0       0.0       0.0       0.0
17 H  py              0.0       0.1       0.0       0.0       0.0       0.0
18 H  s               1.5       4.4       0.5       1.3       0.6       0.6
18 H  py              0.1       0.3       0.0       0.1       0.0       0.0
19 H  s               1.7       5.3       0.4       0.0       0.1       0.6
19 H  px              0.1       0.3       0.0       0.0       0.0       0.0

                     18        19        20        21        22        23   
                  -0.44317  -0.42247  -0.40602  -0.38891  -0.37663  -0.36131
                   2.00000   2.00000   2.00000   2.00000   2.00000   2.00000
                  --------  --------  --------  --------  --------  --------
 0 C  pz              0.0       3.8       5.3      10.5       1.4       9.7
 0 C  px              0.2       1.4       1.7       2.7       3.0       2.4
 0 C  py              8.3       4.8       0.2      11.3       1.0       7.0
 0 C  dz2             0.0       0.0       0.0       0.0       0.0       0.1
 0 C  dyz             0.0       0.0       0.0       0.1       0.0       0.1
 1 C  s               0.0       0.0       0.3       0.3       0.0       0.0
 1 C  pz              0.0       4.0       0.9       4.8       0.6       0.0
 1 C  px              1.8       2.9       4.3       0.0       0.1       0.5
 1 C  py             13.6       5.3       2.2       2.5       0.5       0.0
 1 C  dx2y2           0.0       0.0       0.0       0.0       0.0       0.1
 2 C  s               0.2       0.0       0.1       0.8       0.1       0.0
 2 C  pz              0.6       0.1       7.8       2.4       0.4       8.0
 2 C  px             12.0       0.1       0.1       0.6       1.0       1.1
 2 C  py              2.4       1.5       2.3       2.9       2.4       8.9
 2 C  dz2             0.0       0.0       0.0       0.0       0.0       0.2
 2 C  dyz             0.0       0.0       0.0       0.0       0.0       0.1
 2 C  dxy             0.0       0.0       0.0       0.1       0.0       0.0
 3 C  s               0.1       1.4       0.1       0.4       0.0       0.1
 3 C  pz              5.4       3.1       5.3       0.2       0.1       2.5
 3 C  px              2.2       0.0       4.1       0.3       0.2       0.1
 3 C  py              0.4       1.6       4.6       0.5       1.2       1.6
 3 C  dz2             0.0       0.0       0.0       0.0       0.0       0.1
 3 C  dxz             0.0       0.1       0.0       0.1       0.0       0.0
 3 C  dx2y2           0.0       0.1       0.0       0.0       0.0       0.1
 4 O  s               0.9       8.0       0.9       0.6       0.3       1.0
 4 O  pz              0.2       5.4      10.5       2.9       1.9       0.6
 4 O  px              0.3       0.2       1.0       0.1       1.8       0.1
 4 O  py              3.9      18.8       0.1       1.2       0.1       9.6
 4 O  dz2             0.3       0.0       0.6       0.1       0.0       0.0
 4 O  dyz             0.0       0.1       0.1       0.0       0.0       0.1
 4 O  dx2y2           0.1       0.2       0.0       0.0       0.0       0.2
 4 O  dxy             0.1       0.0       0.2       0.0       0.0       0.0
 5 O  s               0.2       1.4       0.1       0.0       2.1       0.0
 5 O  pz             13.7       8.3       1.6       7.5       0.7       0.1
 5 O  px              0.3       4.0       0.2       0.4       0.2       0.1
 5 O  py              0.6       1.4       2.6       0.1       2.0       3.3
 5 O  dz2             0.5       0.0       0.0       0.3       0.0       0.0
 5 O  dxz             0.1       0.2       0.6       0.1       0.0       0.0
 5 O  dyz             0.1       0.1       0.2       0.0       0.1       0.0
 5 O  dx2y2           0.4       0.0       0.7       0.0       0.4       0.1
 5 O  dxy             0.0       0.1       0.8       0.3       0.1       0.0
 6 C  s               0.3       0.2       0.0       0.2       0.2       0.0
 6 C  pz              3.2       0.1       1.0       2.3       0.0       0.7
 6 C  px              1.6       4.0       0.0       4.5       0.8       0.3
 6 C  py              0.5       0.0       5.9       2.0       0.0       0.7
 6 C  dx2y2           0.0       0.0       0.0       0.0       0.2       0.1
 6 C  dxy             0.0       0.0       0.1       0.0       0.0       0.0
 7 C  s               0.3       0.1       0.0       0.1       0.0       0.0
 7 C  pz              0.2       2.8       3.4       4.1      12.6       0.8
 7 C  px              3.5       0.0       0.2       8.1      22.2       0.4
 7 C  py              2.5       0.6      11.5       0.1       5.9       6.8
 7 C  dxz             0.0       0.0       0.0       0.1       0.1       0.0
 7 C  dx2y2           0.0       0.0       0.0       0.0       0.5       0.1
 8 H  s               1.0       0.0       0.2      10.7       0.5       0.5
 8 H  py              0.0       0.0       0.0       0.1       0.0       0.1
 9 H  s               0.6       2.9       1.5       1.1       1.2       8.5
 9 H  pz              0.0       0.1       0.0       0.0       0.0       0.2
 9 H  py              0.0       0.0       0.0       0.2       0.0       0.0
10 H  s               1.9       1.7       1.1       2.1       1.3       3.4
10 H  pz              0.0       0.0       0.0       0.0       0.0       0.1
10 H  px              0.1       0.0       0.0       0.1       0.0       0.0
11 H  s               0.6       3.3       0.4       0.3       0.3       0.0
11 H  pz              0.1       0.1       0.0       0.0       0.0       0.0
12 H  s               4.9       2.0       0.2       0.7       0.1       0.1
13 H  s               0.8       0.2       1.2       1.1       1.2       8.8
13 H  pz              0.0       0.0       0.0       0.0       0.0       0.2
14 H  s               4.1       0.5       1.2       2.0       1.2       3.7
14 H  py              0.2       0.0       0.0       0.0       0.0       0.0
15 H  s               0.5       0.2       1.9       0.0       0.2       0.1
16 H  s               0.4       0.3       1.7       0.4       0.2       0.7
17 H  s               0.0       0.6       4.5       1.9       1.9       0.2
17 H  pz              0.0       0.0       0.1       0.0       0.0       0.0
17 H  px              0.0       0.0       0.0       0.1       0.2       0.0
17 H  py              0.0       0.0       0.0       0.0       0.1       0.0
18 H  s               1.0       0.7       3.3       0.0       8.3       4.3
18 H  py              0.0       0.0       0.1       0.0       0.2       0.1
19 H  s               1.3       0.1       0.0       1.9      17.8       0.6
19 H  pz              0.0       0.0       0.0       0.1       0.0       0.0
19 H  px              0.0       0.0       0.0       0.0       0.3       0.0

                     24        25        26        27        28        29   
                  -0.35449  -0.34770  -0.32611  -0.31080  -0.30997  -0.30745
                   2.00000   2.00000   2.00000   2.00000   2.00000   2.00000
                  --------  --------  --------  --------  --------  --------
 0 C  s               0.1       0.1       0.6       0.0       0.0       0.1
 0 C  pz              1.7       0.4      11.0       1.2       4.9       0.6
 0 C  px              8.2       4.5      10.2       0.0       2.9       3.6
 0 C  py              3.5       7.3       0.2       8.1       2.9       1.3
 0 C  dz2             0.0       0.0       0.1       0.0       0.3       0.0
 0 C  dxz             0.0       0.1       0.0       0.1       0.0       0.1
 0 C  dyz             0.0       0.0       0.0       0.0       0.3       0.1
 0 C  dx2y2           0.0       0.0       0.1       0.0       0.0       0.0
 0 C  dxy             0.1       0.0       0.1       0.4       0.0       0.0
 1 C  s               0.0       0.2       0.3       0.3       0.0       0.0
 1 C  pz              0.8       0.3      12.4       2.3       9.9       1.1
 1 C  px              6.5       3.2       9.8       0.2       5.4       3.7
 1 C  py              0.5       0.9       0.0      14.8       6.2       1.0
 1 C  dz2             0.0       0.0       0.1       0.0       0.5       0.0
 1 C  dxz             0.1       0.1       0.0       0.1       0.0       0.1
 1 C  dyz             0.0       0.0       0.0       0.0       0.4       0.1
 1 C  dx2y2           0.0       0.0       0.2       0.0       0.0       0.0
 1 C  dxy             0.0       0.0       0.3       0.5       0.0       0.0
 2 C  s               0.1       0.5       0.2       0.6       0.1       0.0
 2 C  pz              0.7       0.1       1.9       4.9       5.0       1.0
 2 C  px              4.0       2.6       1.2       0.3       2.0       6.5
 2 C  py              5.1       0.1       0.9       9.1       0.9       0.7
 2 C  dz2             0.1       0.0       0.0       0.0       0.3       0.0
 2 C  dxz             0.0       0.0       0.0       0.1       0.0       0.0
 2 C  dyz             0.0       0.0       0.0       0.0       0.2       0.0
 2 C  dx2y2           0.0       0.0       0.1       0.0       0.1       0.1
 2 C  dxy             0.1       0.1       0.2       0.2       0.0       0.0
 3 C  s               0.1       0.1       0.2       0.0       0.0       0.5
 3 C  pz              2.0       3.8       0.1       1.3       0.6       1.0
 3 C  px              0.4       1.0       3.8       0.5       0.2       0.5
 3 C  py              0.5       1.4       0.6       0.3       0.2       2.7
 3 C  dz2             0.0       0.0       0.0       0.1       0.2       0.0
 3 C  dxz             0.0       0.0       0.0       0.0       0.0       0.1
 3 C  dyz             0.0       0.0       0.0       0.0       0.1       0.2
 3 C  dx2y2           0.1       0.1       0.0       0.0       0.0       0.4
 3 C  dxy             0.2       0.0       0.0       0.2       0.0       0.0
 4 O  s               0.1       0.0       0.1       0.0       0.1       0.8
 4 O  pz              0.7       5.4       2.3       3.0       1.1       4.8
 4 O  px              0.5       0.6       2.8       1.9       0.6       0.2
 4 O  py              2.4       3.1       0.0       2.2       3.7       3.5
 4 O  dz2             0.0       0.2       0.1       0.1       0.0       0.0
 4 O  dyz             0.0       0.0       0.0       0.0       0.0       0.1
 4 O  dx2y2           0.1       0.0       0.0       0.0       0.0       0.3
 5 O  s               0.1       0.1       0.0       0.2       0.1       2.6
 5 O  pz              0.1       0.0       0.0       0.1       1.4      15.2
 5 O  px              7.0       0.1       0.5       0.9       0.0       2.2
 5 O  py              3.1       2.2       0.0       2.7       1.5      11.5
 5 O  dz2             0.0       0.2       0.0       0.0       0.1       0.1
 5 O  dxz             0.4       0.8       0.0       0.1       0.1       0.0
 5 O  dyz             0.0       0.2       0.1       0.2       0.1       0.3
 5 O  dx2y2           0.0       0.2       0.1       0.0       0.0       0.9
 5 O  dxy             0.1       0.0       0.0       0.3       0.0       0.7
 6 C  s               0.1       0.2       0.0       0.0       0.0       0.5
 6 C  pz              0.1      11.0       0.2       0.4       0.2       4.5
 6 C  px              4.1       2.8       0.4       0.4       0.0       0.8
 6 C  py              2.0       0.0       5.3       5.3       1.8       4.9
 6 C  dz2             0.1       0.1       0.1       0.1       0.0       0.0
 6 C  dxz             0.2       0.0       0.0       0.0       0.0       0.1
 6 C  dyz             0.0       0.1       0.1       0.1       0.0       0.0
 6 C  dx2y2           0.0       0.0       0.0       0.1       0.1       0.5
 6 C  dxy             0.0       0.1       0.0       0.0       0.0       0.2
 7 C  s               0.1       0.3       0.0       0.0       0.1       0.4
 7 C  pz              1.3      17.0       0.3       0.3       0.1       2.1
 7 C  px              9.0       2.6       0.4       0.2       0.3       0.5
 7 C  py              8.5       1.2       5.3       2.6       1.0       2.6
 7 C  dz2             0.2       0.1       0.1       0.1       0.0       0.0
 7 C  dxz             0.1       0.0       0.0       0.0       0.0       0.0
 7 C  dyz             0.0       0.2       0.1       0.1       0.0       0.0
 7 C  dx2y2           0.0       0.0       0.0       0.1       0.0       0.1
 8 H  s               0.2       5.5       0.1       4.6       0.9       3.0
 8 H  px              0.1       0.0       0.1       0.0       0.0       0.0
 9 H  s               0.0       0.0       3.9       0.1       7.4       0.4
 9 H  px              0.1       0.0       0.2       0.0       0.0       0.0
10 H  s               5.6       0.8       1.6       4.8       3.7       0.0
10 H  py              0.1       0.0       0.1       0.0       0.0       0.0
11 H  s               0.3       0.0       4.7       0.1      13.7       0.5
11 H  pz              0.0       0.0       0.0       0.1       0.1       0.0
11 H  px              0.1       0.0       0.1       0.0       0.0       0.0
11 H  py              0.0       0.0       0.0       0.1       0.0       0.0
12 H  s               0.4       0.0       3.2       8.4       7.0       0.0
12 H  pz              0.0       0.0       0.1       0.0       0.1       0.0
13 H  s               0.3       0.0       0.4       0.1       5.8       0.4
14 H  s               4.7       0.7       1.9       4.1       2.1       0.4
15 H  s               0.4       5.5       1.8       2.5       0.1       0.3
16 H  s               0.4       0.1       2.7       3.8       1.4       6.1
17 H  s               3.8       9.3       2.1       1.4       0.1       0.0
18 H  s               1.9       0.2       2.6       2.0       0.6       1.9
18 H  pz              0.0       0.2       0.0       0.0       0.0       0.0
18 H  px              0.1       0.0       0.0       0.0       0.0       0.0
19 H  s               5.3       0.0       0.2       0.1       0.0       0.1
19 H  pz              0.0       0.1       0.0       0.0       0.0       0.0

                     30        31        32        33        34        35   
                  -0.26890  -0.23091  -0.01262   0.07614   0.09474   0.10517
                   2.00000   2.00000   0.00000   0.00000   0.00000   0.00000
                  --------  --------  --------  --------  --------  --------
 0 C  s               0.0       0.1       0.1       1.1       5.2      25.9
 0 C  pz              0.0       0.0       0.2       0.1       0.0       0.2
 0 C  px              0.1       0.8       0.9       1.3       0.2       1.0
 0 C  py              0.1       0.1       0.1       0.2       0.0       0.6
 0 C  dxz             0.0       0.0       0.0       0.3       0.0       0.1
 0 C  dx2y2           0.0       0.0       0.0       0.1       0.0       0.1
 1 C  s               0.0       0.0       1.9       4.8       1.3       7.0
 1 C  pz              0.1       0.0       1.3       1.6       0.0       0.6
 1 C  px              0.2       0.5       0.7       3.3       2.4       5.4
 1 C  py              0.5       0.2       1.1       1.2       0.5       2.3
 1 C  dxz             0.0       0.0       0.0       0.1       0.2       0.4
 1 C  dx2y2           0.0       0.0       0.1       0.0       0.1       0.4
[...]
 2 C  py              0.9       0.0       0.0       0.0       0.0       0.0
 2 C  dz2             0.2       0.0       0.0       0.0       0.0       0.0
 2 C  dxz             0.8       0.0       0.1       0.0       0.0       0.0
 2 C  dyz             0.2       0.0       0.0       0.0       0.0       0.0
 2 C  dx2y2           4.0       0.0       0.1       0.0       0.0       0.0
 2 C  dxy             3.4       0.1       0.2       0.2       0.0       0.0
 3 C  s               1.5       0.3       2.4       5.7       0.0       0.1
 3 C  pz              0.2       0.2       0.4       2.6       0.0       0.0
 3 C  px              0.2       0.5       3.5       0.3       0.0       0.0
 3 C  py              0.7       0.8       3.7       4.5       0.0       0.0
 3 C  dz2             0.1       0.2       1.8       0.0       0.0       0.0
 3 C  dxz             5.1       0.2       1.7       0.1       0.0       0.0
 3 C  dyz             0.3       0.0       0.2       4.5       0.0       0.0
 3 C  dx2y2           7.8       0.0       0.0       1.8       0.0       0.0
 3 C  dxy             2.0       1.4       8.9       0.2       0.0       0.0
 4 O  s               1.1       1.1       0.4      19.0       0.0       0.0
 4 O  pz              0.1       0.3       0.1       7.6       0.0       0.0
 4 O  px              5.8       0.1       0.3       0.7       0.0       0.0
 4 O  py              1.7       0.7       0.1      13.6       0.0       0.0
 4 O  dz2             2.0       0.0       0.0       0.0       0.0       0.0
 4 O  dxz             5.0       0.0       1.0       0.9       0.0       0.0
 4 O  dyz             0.2       1.3       0.0      21.9       0.0       0.0
 4 O  dx2y2           1.2       1.0       0.8       8.9       0.0       0.0
 4 O  dxy            11.8       0.0       0.5       1.7       0.0       0.0
 5 O  s               4.1      25.3       6.0       1.6       0.0       0.0
 5 O  pz              1.2       3.8       0.0       0.1       0.0       0.0
 5 O  px              0.1       8.6      23.7       0.4       0.0       0.0
 5 O  py              4.2       1.7       7.5       0.2       0.0       0.0
 5 O  dz2             0.0       4.9       3.1       0.3       0.0       0.0
 5 O  dxz             0.0       5.9       5.1       0.6       0.0       0.0
 5 O  dyz             4.0       0.8       0.9       0.1       0.0       0.0
 5 O  dx2y2           3.4      12.4       1.1       1.1       0.0       0.0
 5 O  dxy             0.2       1.4      19.5       0.1       0.0       0.0
 6 C  s               0.1       1.4       0.5       0.1       6.6       6.1
 6 C  pz              0.0       1.9       0.3       0.1       0.0       0.0
 6 C  px              0.0       6.1       1.7       0.2       0.0       0.0
 6 C  py              0.0       0.0       0.1       0.0       0.0       0.0
 6 C  dz2             0.0       1.2       0.1       0.0       0.0       0.0
 6 C  dxz             0.1       4.2       0.9       0.2       0.0       0.0
 6 C  dyz             0.2       0.4       0.0       0.0       0.0       0.0
 6 C  dx2y2           0.0       7.1       1.9       0.3       0.0       0.0
 6 C  dxy             0.8       0.2       0.0       0.0       0.0       0.0
 7 C  s               0.0       0.0       0.0       0.0      16.4      67.2
 7 C  py              0.1       0.0       0.0       0.0       0.0       0.0
 7 C  dz2             0.5       0.1       0.0       0.0       0.0       0.0
 7 C  dxz             0.1       0.2       0.0       0.0       0.0       0.0
 7 C  dx2y2           0.0       0.2       0.0       0.0       0.0       0.0
 8 H  pz              0.1       0.0       0.0       0.0       0.0       0.0
 8 H  py              0.1       0.0       0.0       0.0       0.0       0.0
10 H  py              0.2       0.0       0.0       0.0       0.0       0.0
11 H  s               0.4       0.0       0.0       0.0       0.0       0.0
11 H  pz              0.7       0.0       0.0       0.0       0.0       0.0
11 H  py              0.2       0.0       0.0       0.0       0.0       0.0
12 H  s               0.1       0.0       0.0       0.0       0.0       0.0
12 H  py              0.6       0.0       0.0       0.0       0.0       0.0
14 H  s               2.7       0.0       0.0       0.0       0.0       0.0
14 H  pz              0.2       0.0       0.0       0.0       0.0       0.0
14 H  px              1.0       0.0       0.0       0.0       0.0       0.0
14 H  py              4.4       0.0       0.0       0.0       0.0       0.0
15 H  s               0.0       0.7       0.0       0.0       0.0       0.0
15 H  pz              0.0       0.6       0.0       0.0       0.0       0.0
15 H  px              0.0       0.4       0.0       0.0       0.0       0.0
15 H  py              0.0       0.5       0.0       0.0       0.0       0.0
16 H  s               0.0       0.2       0.2       0.0       0.0       0.0
16 H  px              0.7       0.1       0.0       0.0       0.0       0.0
16 H  py              0.2       0.5       0.3       0.0       0.0       0.0
17 H  s               0.1       0.0       0.0       0.0       0.0       0.0
17 H  pz              0.1       0.1       0.0       0.0       0.0       0.0
18 H  py              0.1       0.0       0.0       0.0       0.0       0.0
19 H  px              0.1       0.2       0.0       0.0       0.0       0.0

                    216       217       218       219       220       221   
                  21.96817  21.98726  22.07182  22.27685  43.69456  43.76473
                   0.00000   0.00000   0.00000   0.00000   0.00000   0.00000
                  --------  --------  --------  --------  --------  --------
 0 C  s              28.0       6.0       3.5       0.0       0.0       0.0
 1 C  s              70.3       2.4       0.9       1.6       0.0       0.0
 2 C  s               0.0      26.8      55.4       1.3       0.0       0.0
 3 C  s               1.0       1.2       0.7      95.9       0.0       0.0
 4 O  s               0.0       0.0       0.0       0.2      96.7       3.2
 5 O  s               0.0       0.0       0.1       0.1       3.2      96.7
 6 C  s               0.0      48.0      38.8       0.1       0.0       0.0
 7 C  s               0.4      15.3       0.4       0.0       0.0       0.0



                      *****************************
                      * MAYER POPULATION ANALYSIS *
                      *****************************

  NA   - Mulliken gross atomic population
  ZA   - Total nuclear charge
  QA   - Mulliken gross atomic charge
  VA   - Mayer's total valence
  BVA  - Mayer's bonded valence
  FA   - Mayer's free valence

  ATOM       NA         ZA         QA         VA         BVA        FA
  0 C      6.4730     6.0000    -0.4730     3.8060     3.8060    -0.0000
  1 C      6.2327     6.0000    -0.2327     3.6753     3.6753     0.0000
  2 C      6.3423     6.0000    -0.3423     3.8571     3.8571     0.0000
  3 C      5.5783     6.0000     0.4217     3.7607     3.7607    -0.0000
  4 O      8.4330     8.0000    -0.4330     1.9475     1.9475    -0.0000
  5 O      8.1775     8.0000    -0.1775     1.9024     1.9024    -0.0000
  6 C      6.1552     6.0000    -0.1552     3.6360     3.6360    -0.0000
  7 C      6.4431     6.0000    -0.4431     3.8522     3.8522    -0.0000
  8 H      0.8493     1.0000     0.1507     0.9613     0.9613     0.0000
  9 H      0.8556     1.0000     0.1444     0.9641     0.9641    -0.0000
 10 H      0.8535     1.0000     0.1465     0.9637     0.9637     0.0000
 11 H      0.8461     1.0000     0.1539     0.9590     0.9590     0.0000
 12 H      0.8520     1.0000     0.1480     0.9610     0.9610     0.0000
 13 H      0.8454     1.0000     0.1546     0.9631     0.9631    -0.0000
 14 H      0.8378     1.0000     0.1622     0.9610     0.9610    -0.0000
 15 H      0.8561     1.0000     0.1439     0.9517     0.9517    -0.0000
 16 H      0.8201     1.0000     0.1799     0.9541     0.9541     0.0000
 17 H      0.8475     1.0000     0.1525     0.9615     0.9615    -0.0000
 18 H      0.8480     1.0000     0.1520     0.9610     0.9610    -0.0000
 19 H      0.8534     1.0000     0.1466     0.9642     0.9642     0.0000

  Mayer bond orders larger than 0.100000
B(  0-C ,  1-C ) :   0.8959 B(  0-C ,  8-H ) :   0.9720 B(  0-C ,  9-H ) :   0.9850 
B(  0-C , 10-H ) :   0.9834 B(  1-C ,  2-C ) :   0.9297 B(  1-C , 11-H ) :   0.9585 
B(  1-C , 12-H ) :   0.9636 B(  2-C ,  3-C ) :   0.9667 B(  2-C , 13-H ) :   0.9768 
B(  2-C , 14-H ) :   0.9768 B(  3-C ,  4-O ) :   1.8415 B(  3-C ,  5-O ) :   1.0477 
B(  5-O ,  6-C ) :   0.7830 B(  6-C ,  7-C ) :   0.9486 B(  6-C , 15-H ) :   0.9452 
B(  6-C , 16-H ) :   0.9667 B(  7-C , 17-H ) :   0.9745 B(  7-C , 18-H ) :   0.9692 
B(  7-C , 19-H ) :   0.9676 

-------
TIMINGS
-------

Total SCF time: 0 days 0 hours 0 min 26 sec 

Total time                  ....      26.600 sec
Sum of individual times     ....      26.003 sec  ( 97.8%)

SCF preparation             ....       0.223 sec  (  0.8%)
Fock matrix formation       ....      24.644 sec  ( 92.6%)
  Startup                   ....       0.111 sec  (  0.5% of F)
  Split-RI-J                ....       5.058 sec  ( 20.5% of F)
  XC integration            ....      18.834 sec  ( 76.4% of F)
    Basis function eval.    ....       3.439 sec  ( 18.3% of XC)
    Density eval.           ....       5.617 sec  ( 29.8% of XC)
    XC-Functional eval.     ....       2.527 sec  ( 13.4% of XC)
    XC-Potential eval.      ....       6.170 sec  ( 32.8% of XC)
Diagonalization             ....       0.000 sec  (  0.0%)
Density matrix formation    ....       0.295 sec  (  1.1%)
Total Energy calculation    ....       0.045 sec  (  0.2%)
Population analysis         ....       0.162 sec  (  0.6%)
Orbital Transformation      ....       0.070 sec  (  0.3%)
Orbital Orthonormalization  ....       0.000 sec  (  0.0%)
DIIS solution               ....       0.497 sec  (  1.9%)
  MO trafo                  ....       0.000 sec  (  0.0 % of DIIS)
  Orb grad                  ....       0.000 sec  (  0.0 % of DIIS)
  Energy W gradient         ....       0.000 sec  (  0.0 % of DIIS)
  DIIS error                ....       0.032 sec  (  6.5 % of DIIS)
  DIIS work                 ....       0.402 sec  ( 80.8 % of DIIS)
  Form Q                    ....       0.000 sec  (  0.0 % of DIIS)
  Form QpQm                 ....       0.000 sec  (  0.0 % of DIIS)
  Exp/Cayley                ....       0.000 sec  (  0.0 % of DIIS)
  Orb update                ....       0.000 sec  (  0.0 % of DIIS)
  Wake-sleep                ....       0.027 sec  (  5.4 % of DIIS)
SOSCF solution              ....       0.066 sec  (  0.2%)
  MO trafo                  ....       0.052 sec  ( 77.8 % of SOSCF)
  Orb grad                  ....       0.001 sec  (  1.1 % of SOSCF)
  Rot update                ....       0.000 sec  (  0.1 % of SOSCF)
  Step                      ....       0.014 sec  ( 20.9 % of SOSCF)
Finished LeanSCF after  26.7 sec

Maximum memory used throughout the entire LEANSCF-calculation: 23.4 MB


-------------------------------------------------------------------------------
                          DFT DISPERSION CORRECTION                            
                                                                               
                                DFTD4 V3.4.0                                   
-------------------------------------------------------------------------------
The R2SCAN3C composite method is recognized
Using three-body term ABC
Active option DFTDOPT                   ...         5   

-------------------------   ----------------
Dispersion correction           -0.004862216
-------------------------   ----------------

------------------   -----------------
gCP correction             0.011663009
------------------   -----------------

-------------------------   --------------------
FINAL SINGLE POINT ENERGY      -386.234651078010
-------------------------   --------------------


------------------------------------------------------------------------------
                              ORCA PROPERTY CALCULATIONS
------------------------------------------------------------------------------

GBWName                                 ... sp_gas.gbw
Number of atoms                         ...     20
Number of basis functions               ...    222
Max core memory                         ...   1024 MB

Electric properties:
Dipole moment                           ... YES
Quadrupole moment                       ...  NO
Static polarizability (Dipole/Dipole)   ...  NO
Static polarizability (Dipole/Quad.)    ...  NO
Static polarizability (Quad./Quad.)     ...  NO
Static polarizability (Velocity)        ...  NO

Atomic electric properties:
Dipole moment                           ...  NO
Quadrupole moment                       ...  NO
Static polarizability                   ...  NO

Choice of electric origin               ... Center of mass
Position of electric origin             ...    -0.000012    -0.000019     0.000008

General magnetic properties:
Magnetizability                         ...  NO

EPR properties:
g-Tensor (aka g-matrix)                 ...  NO
Zero-Field splitting spin-orbit         ...  NO
Zero-field splitting spin-spin          ...  NO
Hyperfine couplings                     ...  NO (   0 nuclei)
Quadrupole couplings                    ...  NO (   0 nuclei)
Contact density                         ...  NO (   0 nuclei)

NMR properties:
Chemical shifts                         ...  NO (   0 nuclei)
Spin-rotation constants                 ...  NO (   0 nuclei)
Spin-spin couplings                     ...  NO (   0 nuclei,    0 pairs)

Choice of magnetic origin               ... GIAO
Position of magnetic origin             ...     0.000000     0.000000     0.000000

Properties with geometric perturbations:
SCF Hessian                             ...  NO
IR spectrum                             ...  NO
VCD spectrum                            ...  NO
X-ray spectroscopy properties:
SCF XES/XAS/RIXS spectra                ...  NO


-------------
DIPOLE MOMENT
-------------

Method             : SCF
Type of density    : Electron Density
Multiplicity       :   1
Irrep              :   0
Energy             :  -386.2414518709623508 Eh
Relativity type    : 
Basis              : AO
                                X                 Y                 Z
Electronic contribution:      2.766625256       4.675071308      -1.794082992
Nuclear contribution   :     -2.604088713      -5.465037088       2.175929793
                        -----------------------------------------
Total Dipole Moment    :      0.162536543      -0.789965780       0.381846800
                        -----------------------------------------
Magnitude (a.u.)       :      0.892340205
Magnitude (Debye)      :      2.268148547



--------------------
Rotational spectrum 
--------------------
 
Rotational constants in cm-1:             0.142195             0.030798             0.027252 
Rotational constants in MHz :          4262.906617           923.308130           816.984904 

Dipole components along the rotational axes: 
x,y,z [a.u.] :     0.108732    -0.885170     0.030380 
x,y,z [Debye]:     0.276374    -2.249923     0.077219 

 

Dipole moment calculation done in   0.0 sec 

Maximum memory used throughout the entire PROP-calculation: 13.5 MB

--------------------------------
SUGGESTED CITATIONS FOR THIS RUN
--------------------------------

Below you find a list of papers that are relevant to this ORCA run
We neither can nor want to force you to cite these papers, but we appreciate if you do
You receive ORCA, which is the product of decades of hard work by many enthusiastic individuals, for free
The only thing we kindly ask in return is that you cite our papers,
We deeply appreciate it, if you show your appreciation for ORCA by not just citing the generic ORCA reference.

Please note that relegating all ORCA citations to the supporting information does *not* help us.
SI sections are not indexed - citations you put there will not count into any citation statistics
But we need these citations in order to attract the funding resources that allow us to do what we are doing

Therefore, if you are a happy ORCA user, please consider citing a few of the papers listed below in the main body of your paper

In addition to the list printed below, the program has created the file sp_gas.bibtex that contains the list in bibtex format
You can import this file easily into all common literature databanks and citation aid programs


List of essential papers. We consider these as the minimum necessary citations

  1. Neese,F.
     Software update: the ORCA program system, version 5.0
     WIRES Comput. Molec. Sci., 2022 12(1)e1606
     doi.org/10.1002/wcms.1606
  2. Grimme,S.; Hansen,A.; Ehlert,S.; Mewes,J.
     r2SCAN-3c: A 'Swiss army knife' composite electronic-structure method
     J. Chem. Phys., 2021 154 064103
     doi.org/10.1063/5.0040021

List of papers to cite with high priority. The work reported in these papers was absolutely
necessary for this run to complete.
Our perspective: the developers of density functionals and basis sets usually get cited in chemistry papers
Good! But without the algorithms to do something with them, the functionals or basis sets would not do anything.
Hence, in our opinion, the algorithm design and method developments papers are equally worthy of getting cited

  1. Neese,F.
     An improvement of the resolution of the identity approximation for the formation of the Coulomb matrix
     J. Comp. Chem., 2003 24(14)1740-1747
     doi.org/10.1002/jcc.10318
  2. Neese,F.
     The SHARK Integral Generation and Digestion System
     J. Comp. Chem., 2022  1-16
     doi.org/10.1002/jcc.26942
  3. Lehtola,S.; Steigemann,C.; Oliveira,M.; Marques,M.
     Recent developments in Libxc - A comprehensive library of functionals for density functional theory
     Software X, 2018 7 
     doi.org/10.1016/j.softx.2017.11.002
  4. Caldeweyher,E.; Bannwarth,C.; Grimme,S.
     Extension of the D3 dispersion coefficient model
     J. Chem. Phys., 2017 147 034112-XXXX
     doi.org/10.1063/1.4993215
  5. Caldeweyher,E.; Ehlert,S.; Hansen,A.; Neugebauer,H.; Spicher,S.; Bannwarth,C.; Grimme,S.
     A generally applicable atomic-charge dependent London dispersion correction
     J. Chem. Phys., 2019 150 154122-XXXX
     doi.org/10.1063/1.5090222
  6. Caldeweyher,E.; Mewes,J.; Ehlert,S.; Grimme,S.
     Extension and evaluation of the D4 London-dispersion model for periodic systems
     Phys. Chem. Chem. Phys., 2020 22(16)8499-8512
     doi.org/10.1039/D0CP00502A

List of suggested additional citations. These are papers that are important in the 'surrounding' of 
of this run, or papers that preceded the highly important papers. If you like your results we are grateful for a citation.

  1. Neese,F.
     The ORCA program system
     WIRES Comput. Molec. Sci., 2012 2(1)73-78
     doi.org/10.1002/wcms.81
  2. Neese,F.
     Software update: the ORCA program system, version 4.0
     WIRES Comput. Molec. Sci., 2018 8(1)1-6
     doi.org/10.1002/wcms.1327
  3. Neese,F.; Wennmohs,F.; Becker,U.; Riplinger,C.
     The ORCA quantum chemistry program package
     J. Chem. Phys., 2020 152 Art. No. L224108
     doi.org/10.1063/5.0004608

List of optional additional citations

  1. Neese,F.
     Approximate second-order SCF convergence for spin unrestricted wavefunctions
     Chem. Phys. Lett., 2000 325(1-3)93-98
     doi.org/10.1016/s0009-2614(00)00662-x

Timings for individual modules:

Sum of individual times          ...       28.511 sec (=   0.475 min)
Startup calculation              ...        1.346 sec (=   0.022 min)   4.7 %
SCF iterations                   ...       27.047 sec (=   0.451 min)  94.9 %
Property calculations            ...        0.119 sec (=   0.002 min)   0.4 %
                             ****ORCA TERMINATED NORMALLY****
TOTAL RUN TIME: 0 days 0 hours 0 minutes 29 seconds 321 msec
