      -----------------------------------------------------------      
     |                   =====================                   |     
     |                           x T B                           |     
     |                   =====================                   |     
     |                         S. Grimme                         |     
     |          Mulliken Center for Theoretical Chemistry        |     
     |                    University of Bonn                     |     
      -----------------------------------------------------------      

   * xtb version 6.7.1 (edcfbbe) compiled by 'albert@albert-system' on 2024-07-22

   xtb is free software: you can redistribute it and/or modify it under
   the terms of the GNU Lesser General Public License as published by
   the Free Software Foundation, either version 3 of the License, or
   (at your option) any later version.
   
   xtb is distributed in the hope that it will be useful,
   but WITHOUT ANY WARRANTY; without even the implied warranty of
   MERCHANTABILITY or FITNESS FOR A PARTICULAR PURPOSE.  See the
   GNU Lesser General Public License for more details.
   
   Cite this work as:
   * C. Bannwarth, E. Caldeweyher, S. Ehlert, A. Hansen, P. Pracht,
     J. Seibert, S. Spicher, S. Grimme, WIREs Comput. Mol. Sci., 2020, 11,
     e01493. DOI: 10.1002/wcms.1493
   
   for GFN2-xTB:
   * C. Bannwarth, S. Ehlert and S. Grimme., J. Chem. Theory Comput., 2019,
     15, 1652-1671. DOI: 10.1021/acs.jctc.8b01176
   for GFN1-xTB:
   * S. Grimme, C. Bannwarth, P. Shushkov, J. Chem. Theory Comput., 2017,
     13, 1989-2009. DOI: 10.1021/acs.jctc.7b00118
   for GFN0-xTB:
   * P. Pracht, E. Caldeweyher, S. Ehlert, S. Grimme, ChemRxiv, 2019, preprint.
     DOI: 10.26434/chemrxiv.8326202.v1
   for GFN-FF:
   * S. Spicher and S. Grimme, Angew. Chem. Int. Ed., 2020, 59, 15665-15673.
     DOI: 10.1002/anie.202004239
   
   for ALPB and GBSA implicit solvation:
   * S. Ehlert, M. Stahn, S. Spicher, S. Grimme, J. Chem. Theory Comput.,
     2021, 17, 4250-4261. DOI: 10.1021/acs.jctc.1c00471
   
   for ddCOSMO and CPCM-X implicit solvation:
   * M. Stahn, S. Ehlert, S. Grimme, J. Phys. Chem. A,
     2023, XX, XXXX-XXXX. DOI: 10.1021/acs.jpca.3c04382
   
   for DFT-D4:
   * E. Caldeweyher, C. Bannwarth and S. Grimme, J. Chem. Phys., 2017,
     147, 034112. DOI: 10.1063/1.4993215
   * E. Caldeweyher, S. Ehlert, A. Hansen, H. Neugebauer, S. Spicher,
     C. Bannwarth and S. Grimme, J. Chem. Phys., 2019, 150, 154122.
     DOI: 10.1063/1.5090222
   * E. Caldeweyher, J.-M. Mewes, S. Ehlert and S. Grimme, Phys. Chem. Chem. Phys.
     2020, 22, 8499-8512. DOI: 10.1039/D0CP00502A
   
   for sTDA-xTB:
   * S. Grimme and C. Bannwarth, J. Chem. Phys., 2016, 145, 054103.
     DOI: 10.1063/1.4959605
   
   in the mass-spec context:
   * V. Asgeirsson, C. Bauer and S. Grimme, Chem. Sci., 2017, 8, 4879.
     DOI: 10.1039/c7sc00601b
   * J. Koopman and S. Grimme, ACS Omega 2019, 4, 12, 15120-15133.
     DOI: 10.1021/acsomega.9b02011
   
   for metadynamics refer to:
   * S. Grimme, J. Chem. Theory Comput., 2019, 155, 2847-2862
     DOI: 10.1021/acs.jctc.9b00143
   
   for SPH calculations refer to:
   * S. Spicher and S. Grimme, J. Chem. Theory Comput., 2021, 17, 1701-1714
     DOI: 10.1021/acs.jctc.0c01306
   
   for ONIOM refer to:
   * C. Plett, A. Katbashev, S. Ehlert, S. Grimme, M. Bursch,
     Phys. Chem. Chem. Phys., 2023, 25, 17860-17868. DOI: 10.1039/D3CP02178E
   
   for DIPRO refer to:
   * J. Kohn, N. Gildemeister, S. Grimme, D. Fazzi, A. Hansen,
     J. Chem. Phys., 2023, just accepted.
   
   for PTB refer to:
   * S. Grimme, M. Mueller, A. Hansen, J. Chem. Phys., 2023, 158, 124111.
     DOI: 10.1063/5.0137838
   
   with help from (in alphabetical order)
   P. Atkinson, C. Bannwarth, F. Bohle, G. Brandenburg, E. Caldeweyher
   M. Checinski, S. Dohm, S. Ehlert, S. Ehrlich, I. Gerasimov, C. Hölzer
   A. Katbashev, J. Kohn, J. Koopman, C. Lavigne, S. Lehtola, F. März, M. Müller,
   F. Musil, H. Neugebauer, J. Pisarek, C. Plett, P. Pracht, F. Pultar,
   J. Seibert, P. Shushkov, S. Spicher, M. Stahn, M. Steiner, T. Strunk,
   J. Stückrath, T. Rose, and J. Unsleber
   
 * started run on 2025/04/11 at 15:59:02.274     
   ID    Z sym.   atoms
    1    6 C      1-5, 8
    2    8 O      6, 7
    3    1 H      9-20

           -------------------------------------------------
          |                Calculation Setup                |
           -------------------------------------------------

          program call               : /srv/scratch/z5358697/.xtb/bin/xtb gas.coord --gfn2 --sp --chrg 0 --norestart --parallel 1
          hostname                   : k068
          coordinate file            : gas.coord
          omp threads                :                     1


           -------------------------------------------------
          |                 G F N 2 - x T B                 |
           -------------------------------------------------

        Reference                      10.1021/acs.jctc.8b01176
      * Hamiltonian:
        H0-scaling (s, p, d)           1.850000    2.230000    2.230000
        zeta-weighting                 0.500000
      * Dispersion:
        s8                             2.700000
        a1                             0.520000
        a2                             5.000000
        s9                             5.000000
      * Repulsion:
        kExp                           1.500000    1.000000
        rExp                           1.000000
      * Coulomb:
        alpha                          2.000000
        third order                    shell-resolved
        anisotropic                    true
        a3                             3.000000
        a5                             4.000000
        cn-shift                       1.200000
        cn-exp                         4.000000
        max-rad                        5.000000


          ...................................................
          :                      SETUP                      :
          :.................................................:
          :  # basis functions                  44          :
          :  # atomic orbitals                  44          :
          :  # shells                           28          :
          :  # electrons                        48          :
          :  max. iterations                   250          :
          :  Hamiltonian                  GFN2-xTB          :
          :  restarted?                      false          :
          :  GBSA solvation                  false          :
          :  PC potential                    false          :
          :  electronic temp.          300.0000000     K    :
          :  accuracy                    1.0000000          :
          :  -> integral cutoff          0.2500000E+02      :
          :  -> integral neglect         0.1000000E-07      :
          :  -> SCF convergence          0.1000000E-05 Eh   :
          :  -> wf. convergence          0.1000000E-03 e    :
          :  Broyden damping             0.4000000          :
          :  net charge                          0          :
          :  unpaired electrons                  0          :
          ...................................................

 iter      E             dE          RMSdq      gap      omega  full diag
   1    -27.3514155 -0.273514E+02  0.403E+00    5.98       0.0  T
   2    -27.4207340 -0.693185E-01  0.212E+00    4.75       1.0  T
   3    -27.4235726 -0.283857E-02  0.116E+00    5.25       1.0  T
   4    -27.4260925 -0.251993E-02  0.179E-01    4.93       1.0  T
   5    -27.4263896 -0.297044E-03  0.761E-02    5.00       1.0  T
   6    -27.4263947 -0.519599E-05  0.196E-02    5.00       1.1  T
   7    -27.4263955 -0.802536E-06  0.701E-03    5.00       3.2  T
   8    -27.4263957 -0.122217E-06  0.209E-03    5.00      10.7  T
   9    -27.4263957 -0.882916E-08  0.921E-04    5.00      24.3  T
  10    -27.4263957 -0.223669E-08  0.251E-04    5.00      89.2  T

   *** convergence criteria satisfied after 10 iterations ***

         #    Occupation            Energy/Eh            Energy/eV
      -------------------------------------------------------------
         1        2.0000           -0.7451529             -20.2766
       ...           ...                  ...                  ...
        18        2.0000           -0.4735419             -12.8857
        19        2.0000           -0.4524464             -12.3117
        20        2.0000           -0.4515834             -12.2882
        21        2.0000           -0.4463415             -12.1456
        22        2.0000           -0.4433124             -12.0631
        23        2.0000           -0.4293486             -11.6832
        24        2.0000           -0.4094720             -11.1423 (HOMO)
        25                         -0.2258524              -6.1458 (LUMO)
        26                          0.0041858               0.1139
        27                          0.0608077               1.6547
        28                          0.1051912               2.8624
        29                          0.1179184               3.2087
       ...                                ...                  ...
        44                          0.6130216              16.6812
      -------------------------------------------------------------
                  HL-Gap            0.1836195 Eh            4.9965 eV
             Fermi-level           -0.3176622 Eh           -8.6440 eV

 SCC (total)                   0 d,  0 h,  0 min,  0.022 sec
 SCC setup                      ...        0 min,  0.000 sec (  0.804%)
 Dispersion                     ...        0 min,  0.000 sec (  0.542%)
 classical contributions        ...        0 min,  0.000 sec (  0.108%)
 integral evaluation            ...        0 min,  0.002 sec (  6.862%)
 iterations                     ...        0 min,  0.015 sec ( 69.268%)
 molecular gradient             ...        0 min,  0.005 sec ( 21.644%)
 printout                       ...        0 min,  0.000 sec (  0.708%)

         :::::::::::::::::::::::::::::::::::::::::::::::::::::
         ::                     SUMMARY                     ::
         :::::::::::::::::::::::::::::::::::::::::::::::::::::
         :: total energy             -27.111351748146 Eh    ::
         :: gradient norm              0.029027032443 Eh/a0 ::
         :: HOMO-LUMO gap              4.996541809756 eV    ::
         ::.................................................::
         :: SCC energy               -27.426399994428 Eh    ::
         :: -> isotropic ES            0.047682844967 Eh    ::
         :: -> anisotropic ES          0.003537914013 Eh    ::
         :: -> anisotropic XC          0.007704872523 Eh    ::
         :: -> dispersion             -0.011339274544 Eh    ::
         :: repulsion energy           0.315048246282 Eh    ::
         :: add. restraining           0.000000000000 Eh    ::
         :: total charge              -0.000000000000 e     ::
         :::::::::::::::::::::::::::::::::::::::::::::::::::::

           -------------------------------------------------
          |                Property Printout                |
           -------------------------------------------------

    * Orbital Energies and Occupations

         #    Occupation            Energy/Eh            Energy/eV
      -------------------------------------------------------------
         1        2.0000           -0.7451529             -20.2766
       ...           ...                  ...                  ...
        12        2.0000           -0.5290505             -14.3962
        13        2.0000           -0.5119471             -13.9308
        14        2.0000           -0.5042641             -13.7217
        15        2.0000           -0.4999350             -13.6039
        16        2.0000           -0.4852488             -13.2043
        17        2.0000           -0.4783288             -13.0160
        18        2.0000           -0.4735419             -12.8857
        19        2.0000           -0.4524464             -12.3117
        20        2.0000           -0.4515834             -12.2882
        21        2.0000           -0.4463415             -12.1456
        22        2.0000           -0.4433124             -12.0631
        23        2.0000           -0.4293486             -11.6832
        24        2.0000           -0.4094720             -11.1423 (HOMO)
        25                         -0.2258524              -6.1458 (LUMO)
        26                          0.0041858               0.1139
        27                          0.0608077               1.6547
        28                          0.1051912               2.8624
        29                          0.1179184               3.2087
        30                          0.1294357               3.5221
        31                          0.1404458               3.8217
        32                          0.1499176               4.0795
        33                          0.1615539               4.3961
        34                          0.1781107               4.8466
        35                          0.1848367               5.0297
       ...                                ...                  ...
        44                          0.6130216              16.6812
      -------------------------------------------------------------
                  HL-Gap            0.1836195 Eh            4.9965 eV
             Fermi-level           -0.3176622 Eh           -8.6440 eV

     #   Z          covCN         q      C6AA      α(0)
     1   6 C        3.752    -0.104    22.556     6.773
     2   6 C        3.801    -0.055    21.560     6.611
     3   6 C        3.803    -0.061    21.669     6.627
     4   6 C        3.804    -0.091    22.235     6.713
     5   6 C        2.717     0.354    20.989     7.500
     6   8 O        0.856    -0.428    22.252     6.324
     7   8 O        1.704    -0.253    18.190     5.758
     8   6 C        3.651     0.030    20.387     6.485
     9   1 H        0.925     0.036     2.500     2.473
    10   1 H        0.925     0.036     2.500     2.473
    11   1 H        0.925     0.037     2.495     2.470
    12   1 H        0.924     0.033     2.549     2.497
    13   1 H        0.924     0.033     2.550     2.497
    14   1 H        0.924     0.045     2.385     2.415
    15   1 H        0.924     0.045     2.383     2.414
    16   1 H        0.924     0.071     2.074     2.252
    17   1 H        0.924     0.071     2.075     2.253
    18   1 H        0.924     0.066     2.126     2.280
    19   1 H        0.924     0.066     2.134     2.284
    20   1 H        0.925     0.071     2.078     2.254

 Mol. C6AA /au·bohr⁶  :       3021.416647
 Mol. C8AA /au·bohr⁸  :      64059.955639
 Mol. α(0) /au        :         81.353778


Wiberg/Mayer (AO) data.
largest (>0.10) Wiberg bond orders for each atom

 ---------------------------------------------------------------------------
     #   Z sym  total        # sym  WBO       # sym  WBO       # sym  WBO
 ---------------------------------------------------------------------------
     1   6 C    3.996 --     2 C    1.019    10 H    0.988     9 H    0.988
                            11 H    0.987
     2   6 C    3.997 --     1 C    1.019     3 C    1.007    13 H    0.978
                            12 H    0.978
     3   6 C    3.994 --     4 C    1.008     2 C    1.007    14 H    0.976
                            15 H    0.976
     4   6 C    3.994 --     3 C    1.008     5 C    0.977    17 H    0.952
                            16 H    0.951
     5   6 C    3.916 --     6 O    1.731     7 O    1.148     4 C    0.977
     6   8 O    2.012 --     5 C    1.731     7 O    0.172
     7   8 O    2.318 --     5 C    1.148     8 C    0.952     6 O    0.172
     8   6 C    3.925 --    20 H    0.982    19 H    0.978    18 H    0.978
                             7 O    0.952
     9   1 H    0.999 --     1 C    0.988
    10   1 H    0.999 --     1 C    0.988
    11   1 H    0.998 --     1 C    0.987
    12   1 H    0.999 --     2 C    0.978
    13   1 H    0.999 --     2 C    0.978
    14   1 H    0.998 --     3 C    0.976
    15   1 H    0.998 --     3 C    0.976
    16   1 H    0.995 --     4 C    0.951
    17   1 H    0.995 --     4 C    0.952
    18   1 H    0.996 --     8 C    0.978
    19   1 H    0.996 --     8 C    0.978
    20   1 H    0.995 --     8 C    0.982
 ---------------------------------------------------------------------------

Topologies differ in total number of bonds
Writing topology from bond orders to xtbtopo.mol

molecular dipole:
                 x           y           z       tot (Debye)
 q only:       -0.458      -0.793       0.248
   full:       -0.480      -0.816       0.255       2.493
molecular quadrupole (traceless):
                xx          xy          yy          xz          yz          zz
 q only:        2.557      -8.243      -2.110       2.302       0.866      -0.447
  q+dip:        0.250      -9.319      -2.713       2.794       2.004       2.463
   full:        0.839      -9.339      -2.936       2.771       1.969       2.097


           -------------------------------------------------
          | TOTAL ENERGY              -27.111351748146 Eh   |
          | GRADIENT NORM               0.029027032443 Eh/α |
          | HOMO-LUMO GAP               4.996541809756 eV   |
           -------------------------------------------------

------------------------------------------------------------------------
 * finished run on 2025/04/11 at 15:59:02.331     
------------------------------------------------------------------------
 total:
 * wall-time:     0 d,  0 h,  0 min,  0.057 sec
 *  cpu-time:     0 d,  0 h,  0 min,  0.021 sec
 * ratio c/w:     0.380 speedup
 SCF:
 * wall-time:     0 d,  0 h,  0 min,  0.022 sec
 *  cpu-time:     0 d,  0 h,  0 min,  0.013 sec
 * ratio c/w:     0.600 speedup

