 Entering Gaussian System
 *********************************************
 Gaussian 98:
 frequency output generated by the xtb code
 *********************************************
                         Standard orientation:
 --------------------------------------------------------------------
  Center     Atomic     Atomic              Coordinates (Angstroms)
  Number     Number      Type              X           Y           Z
 --------------------------------------------------------------------
    1          6             0        2.943685    0.169160    0.593933
    2          6             0        1.881798   -0.751568    0.002559
    3          6             0        0.949628   -0.047525   -0.985380
    4          6             0        0.126393    1.098266   -0.393105
    5          6             0       -0.847890    0.669345    0.689057
    6         17             0       -2.092469   -0.460178    0.039854
    7          1             0        3.495558    0.669281   -0.198639
    8          1             0        3.647419   -0.406376    1.190473
    9          1             0        2.497651    0.924237    1.235512
   10          1             0        2.378290   -1.565855   -0.530162
   11          1             0        1.299701   -1.203918    0.807101
   12          1             0        0.265722   -0.786946   -1.407888
   13          1             0        1.548287    0.354444   -1.805286
   14          1             0       -0.430311    1.578696   -1.199722
   15          1             0        0.791023    1.844259    0.044287
   16          1             0       -0.353319    0.137983    1.498845
   17          1             0       -1.398248    1.521437    1.083358
 --------------------------------------------------------------------
     1 basis functions        1 primitive gaussians
     1 alpha electrons        1 beta electrons
 
 Harmonic frequencies (cm**-1), IR intensities (km*mol⁻¹),
 Raman scattering activities (A**4/amu), Raman depolarization ratios,
 reduced masses (AMU), force constants (mDyne/A) and normal coordinates:
                      1                      2                      3
                        a                      a                      a 
 Frequencies --    29.3336                76.6427               162.8729
 Red. masses --    15.3358                12.0936                11.2737
 Frc consts  --     0.0000                 0.0000                 0.0000
 IR Inten    --     0.9441                 1.7197                 0.6307
 Raman Activ --     0.0000                 0.0000                 0.0000
 Depolar     --     0.0000                 0.0000                 0.0000
 Atom AN      X      Y      Z        X      Y      Z        X      Y      Z
   1   6    -0.39  -0.16   0.31    -0.21   0.25   0.23    -0.21   0.15  -0.13
   2   6    -0.22  -0.06  -0.17     0.26  -0.03  -0.18    -0.07  -0.11   0.02
   3   6    -0.02   0.14  -0.22     0.11  -0.16  -0.14    -0.30  -0.25   0.15
   4   6    -0.01   0.14  -0.21     0.06  -0.21  -0.10     0.09   0.00   0.18
   5   6     0.10   0.18  -0.10     0.21  -0.25   0.03    -0.03   0.13   0.12
   6  17     0.39  -0.17   0.25    -0.29   0.27   0.10     0.37   0.05  -0.22
   7   1    -0.07   0.02   0.16    -0.13   0.25   0.13    -0.30   0.27  -0.06
   8   1    -0.15  -0.08   0.09     0.02   0.10  -0.00     0.15   0.06  -0.27
   9   1    -0.17  -0.10   0.11    -0.17  -0.07   0.16    -0.07  -0.14   0.18
  10   1    -0.02   0.02  -0.07     0.19   0.09  -0.10     0.01   0.00  -0.02
  11   1    -0.12  -0.08  -0.12     0.09  -0.14  -0.11     0.04  -0.07   0.03
  12   1    -0.00   0.07  -0.11     0.05  -0.07  -0.02    -0.15  -0.07   0.15
  13   1     0.04   0.05  -0.03     0.00  -0.03  -0.05    -0.14  -0.15  -0.04
  14   1    -0.02   0.02  -0.06    -0.02  -0.08  -0.02     0.06   0.05   0.06
  15   1     0.00   0.05  -0.09     0.01  -0.04  -0.06     0.09  -0.06   0.06
  16   1     0.06   0.11  -0.01     0.08  -0.15  -0.06    -0.04   0.06   0.06
  17   1    -0.00   0.05  -0.06     0.14  -0.06   0.10    -0.04   0.04  -0.01
                      4                      5                      6
                        a                      a                      a 
 Frequencies --   211.0033               274.0348               329.3815
 Red. masses --     9.3005                 5.3362                 9.3510
 Frc consts  --     0.0000                 0.0000                 0.0000
 IR Inten    --     1.2423                 0.7732                 1.1224
 Raman Activ --     0.0000                 0.0000                 0.0000
 Depolar     --     0.0000                 0.0000                 0.0000
 Atom AN      X      Y      Z        X      Y      Z        X      Y      Z
   1   6    -0.24   0.15  -0.09    -0.03   0.05   0.05     0.27  -0.17   0.19
   2   6    -0.21   0.02   0.09     0.31  -0.10  -0.31     0.15   0.11  -0.06
   3   6    -0.15  -0.08  -0.03    -0.11  -0.13   0.06    -0.23  -0.05   0.13
   4   6    -0.05  -0.05   0.04     0.09  -0.03   0.19    -0.46  -0.01  -0.20
   5   6     0.26  -0.25   0.22    -0.23   0.24   0.02    -0.04   0.02   0.15
   6  17     0.27   0.16  -0.16     0.00  -0.03  -0.00     0.21   0.13  -0.11
   7   1     0.12  -0.22  -0.06     0.23  -0.16   0.07     0.12  -0.01   0.11
   8   1    -0.24   0.12   0.25    -0.20   0.07   0.30     0.04  -0.14   0.01
   9   1    -0.10   0.26  -0.30    -0.13   0.15  -0.23     0.10  -0.08   0.11
  10   1    -0.06  -0.03   0.08     0.17   0.08  -0.19     0.04   0.09  -0.11
  11   1    -0.07   0.06   0.05     0.15  -0.18  -0.13     0.10  -0.06  -0.03
  12   1    -0.06  -0.02   0.01    -0.07  -0.05   0.11    -0.05  -0.09   0.14
  13   1    -0.04  -0.05  -0.02    -0.13  -0.05  -0.06    -0.15  -0.05  -0.04
  14   1    -0.09  -0.04   0.05     0.09   0.05   0.04    -0.26  -0.20  -0.09
  15   1    -0.00   0.01  -0.05     0.06  -0.06   0.09    -0.17   0.14  -0.23
  16   1     0.12  -0.17  -0.02    -0.13   0.14   0.09     0.06  -0.02  -0.01
  17   1     0.11  -0.11   0.19    -0.11   0.10  -0.12    -0.01  -0.02   0.11
                      7                      8                      9
                        a                      a                      a 
 Frequencies --   398.6164               475.1980               645.3564
 Red. masses --     7.9802                 8.7438                15.4258
 Frc consts  --     0.0000                 0.0000                 0.0000
 IR Inten    --     1.3181                 1.1019                 3.0954
 Raman Activ --     0.0000                 0.0000                 0.0000
 Depolar     --     0.0000                 0.0000                 0.0000
 Atom AN      X      Y      Z        X      Y      Z        X      Y      Z
   1   6    -0.15   0.02  -0.19    -0.11  -0.03  -0.13     0.01   0.01   0.00
   2   6     0.06  -0.29   0.01     0.11  -0.33   0.07     0.00  -0.02   0.04
   3   6     0.31   0.07   0.07     0.03   0.13   0.43    -0.06   0.01   0.07
   4   6    -0.23  -0.25   0.06     0.00   0.42  -0.11    -0.15  -0.04  -0.03
   5   6    -0.21   0.09   0.22     0.16   0.02  -0.18    -0.40  -0.40  -0.46
   6  17     0.16   0.16  -0.04    -0.13  -0.12  -0.00     0.32   0.29   0.22
   7   1    -0.12   0.02  -0.10    -0.09  -0.03  -0.09    -0.00  -0.01  -0.02
   8   1     0.04   0.13  -0.04     0.03   0.13   0.02     0.01   0.01   0.00
   9   1    -0.11   0.00  -0.10    -0.12   0.01  -0.12     0.02   0.02  -0.01
  10   1     0.03  -0.06  -0.01     0.04   0.02  -0.14     0.02   0.04  -0.04
  11   1     0.01  -0.09  -0.01     0.13  -0.24   0.01     0.05  -0.07   0.01
  12   1     0.21   0.06  -0.24    -0.06   0.09   0.14     0.02  -0.00  -0.04
  13   1     0.20   0.22   0.19     0.04  -0.05   0.10     0.02   0.03   0.06
  14   1    -0.14  -0.23  -0.03     0.00  -0.00  -0.11     0.12   0.16  -0.02
  15   1    -0.15   0.07  -0.10    -0.09   0.21  -0.06    -0.06  -0.14   0.23
  16   1    -0.11   0.10   0.14     0.16  -0.09  -0.18    -0.01  -0.11  -0.18
  17   1    -0.07   0.07  -0.05     0.04  -0.08   0.12    -0.05  -0.12  -0.01
                     10                     11                     12
                        a                      a                      a 
 Frequencies --   767.5557               804.4808               885.4573
 Red. masses --     3.9659                 5.2059                 5.2074
 Frc consts  --     0.0000                 0.0000                 0.0000
 IR Inten    --    27.7522                 2.5733                 2.4406
 Raman Activ --     0.0000                 0.0000                 0.0000
 Depolar     --     0.0000                 0.0000                 0.0000
 Atom AN      X      Y      Z        X      Y      Z        X      Y      Z
   1   6     0.05   0.08   0.06    -0.12  -0.01  -0.03     0.01  -0.02   0.18
   2   6    -0.11   0.02   0.15    -0.21   0.24   0.03     0.01  -0.13   0.17
   3   6    -0.20  -0.14  -0.02    -0.01   0.12   0.23     0.19   0.02  -0.38
   4   6    -0.14  -0.07  -0.11     0.20  -0.20   0.06    -0.01   0.21  -0.04
   5   6     0.10   0.26   0.08     0.19  -0.22  -0.14    -0.20  -0.07   0.17
   6  17    -0.05  -0.08  -0.06    -0.02   0.05   0.01     0.02   0.02   0.01
   7   1    -0.01  -0.12  -0.09    -0.05  -0.15  -0.11    -0.22  -0.21  -0.25
   8   1     0.02  -0.04  -0.05    -0.05  -0.13  -0.12     0.20   0.13  -0.05
   9   1     0.22   0.13   0.03     0.22   0.11   0.03     0.21   0.18  -0.03
  10   1     0.16   0.23  -0.14     0.09   0.29  -0.20     0.21   0.09   0.04
  11   1     0.12  -0.31  -0.03     0.02  -0.24  -0.11    -0.16  -0.21  -0.17
  12   1     0.14  -0.03  -0.33    -0.03   0.04   0.10    -0.06  -0.03   0.14
  13   1     0.15   0.16   0.24     0.00  -0.02   0.04    -0.06  -0.19  -0.27
  14   1     0.10   0.22   0.03    -0.06  -0.22  -0.01    -0.07   0.07   0.04
  15   1     0.17  -0.25   0.05    -0.05   0.09  -0.08    -0.04   0.08   0.01
  16   1     0.14  -0.03  -0.12    -0.12   0.13   0.19    -0.05  -0.01   0.05
  17   1     0.07   0.02   0.17    -0.00   0.06  -0.36    -0.09  -0.04   0.06
                     13                     14                     15
                        a                      a                      a 
 Frequencies --   913.2369               970.4521              1000.2384
 Red. masses --     6.5298                 5.7410                 6.0423
 Frc consts  --     0.0000                 0.0000                 0.0000
 IR Inten    --     4.6365                 1.8504                 4.1184
 Raman Activ --     0.0000                 0.0000                 0.0000
 Depolar     --     0.0000                 0.0000                 0.0000
 Atom AN      X      Y      Z        X      Y      Z        X      Y      Z
   1   6     0.27   0.07   0.15     0.08   0.21  -0.02    -0.21  -0.07  -0.22
   2   6     0.03  -0.29   0.10    -0.10  -0.12  -0.03     0.11   0.11   0.10
   3   6    -0.33   0.09  -0.15    -0.13  -0.25  -0.14     0.20  -0.10   0.02
   4   6    -0.12   0.09  -0.03     0.30   0.29   0.06    -0.16   0.26  -0.25
   5   6     0.29  -0.22  -0.06    -0.23  -0.12   0.05     0.04  -0.21   0.26
   6  17    -0.04   0.04  -0.01     0.02   0.02   0.04    -0.03   0.04  -0.02
   7   1    -0.01   0.08   0.02     0.19   0.07   0.12     0.10   0.03   0.09
   8   1     0.17   0.23   0.12    -0.13  -0.18  -0.05    -0.20  -0.20  -0.06
   9   1    -0.10  -0.00  -0.05     0.13   0.02   0.11    -0.04  -0.09   0.04
  10   1    -0.06  -0.10  -0.01     0.08  -0.00   0.04     0.05   0.06  -0.01
  11   1     0.05  -0.05   0.07     0.13  -0.05   0.10     0.17  -0.00   0.11
  12   1    -0.09   0.10  -0.18    -0.12   0.16  -0.28     0.12  -0.12   0.06
  13   1     0.00   0.08   0.05     0.20  -0.06   0.13     0.17  -0.20   0.01
  14   1    -0.14   0.13   0.13    -0.08  -0.19  -0.04    -0.01   0.30   0.05
  15   1     0.02  -0.03   0.01     0.02   0.26  -0.23     0.05  -0.11   0.10
  16   1    -0.04   0.22   0.23    -0.14  -0.10   0.02     0.05   0.22   0.22
  17   1    -0.06   0.02  -0.38    -0.13  -0.09   0.06    -0.20  -0.08  -0.15
                     16                     17                     18
                        a                      a                      a 
 Frequencies --  1050.7440              1092.1783              1099.0992
 Red. masses --     5.2978                 5.8391                 3.4484
 Frc consts  --     0.0000                 0.0000                 0.0000
 IR Inten    --     3.1853                 1.8032                 0.5275
 Raman Activ --     0.0000                 0.0000                 0.0000
 Depolar     --     0.0000                 0.0000                 0.0000
 Atom AN      X      Y      Z        X      Y      Z        X      Y      Z
   1   6     0.19  -0.13   0.00    -0.21  -0.30  -0.03     0.06   0.03   0.14
   2   6    -0.20   0.17   0.07     0.33   0.24   0.11    -0.06   0.04  -0.25
   3   6    -0.01   0.11   0.03    -0.19  -0.09  -0.03    -0.03  -0.13   0.21
   4   6     0.25  -0.05  -0.27     0.08   0.18   0.11     0.11   0.06  -0.07
   5   6    -0.24  -0.07   0.22     0.02  -0.03  -0.15    -0.04  -0.13   0.12
   6  17     0.02  -0.01   0.01     0.01   0.01   0.04    -0.04   0.05  -0.01
   7   1    -0.06   0.11   0.02    -0.18  -0.13  -0.13    -0.08  -0.05  -0.07
   8   1     0.14   0.25   0.16     0.05   0.05  -0.01     0.11   0.10   0.01
   9   1    -0.28  -0.11  -0.13    -0.10  -0.04  -0.08     0.05   0.08  -0.02
  10   1    -0.26   0.14  -0.32     0.13   0.03   0.12    -0.06  -0.08   0.03
  11   1     0.08  -0.11   0.02     0.05   0.12   0.03    -0.24   0.10  -0.17
  12   1     0.05  -0.04   0.04     0.20  -0.18  -0.12     0.09  -0.07  -0.05
  13   1     0.12  -0.13   0.02    -0.11   0.26   0.08    -0.08   0.18   0.10
  14   1     0.05   0.02  -0.03    -0.17  -0.00   0.13     0.23  -0.08  -0.21
  15   1     0.20  -0.08  -0.17     0.24   0.04  -0.29     0.12  -0.02  -0.09
  16   1    -0.18  -0.13   0.06    -0.19  -0.13  -0.00     0.33   0.28   0.04
  17   1     0.02   0.02   0.09    -0.06  -0.06  -0.03    -0.41  -0.29   0.03
                     19                     20                     21
                        a                      a                      a 
 Frequencies --  1145.6240              1162.0477              1189.7375
 Red. masses --     6.5565                 5.9709                 4.5128
 Frc consts  --     0.0000                 0.0000                 0.0000
 IR Inten    --     0.5562                 0.6932                 2.9441
 Raman Activ --     0.0000                 0.0000                 0.0000
 Depolar     --     0.0000                 0.0000                 0.0000
 Atom AN      X      Y      Z        X      Y      Z        X      Y      Z
   1   6    -0.11   0.16   0.05    -0.12  -0.17  -0.07    -0.04  -0.15   0.14
   2   6     0.16  -0.26  -0.09     0.22   0.07   0.27     0.10   0.23  -0.22
   3   6    -0.11   0.29   0.22    -0.21   0.26  -0.20    -0.11  -0.26   0.10
   4   6     0.08  -0.04  -0.38     0.18  -0.23  -0.08     0.00   0.15  -0.13
   5   6    -0.11  -0.12   0.18    -0.11  -0.02   0.13    -0.03  -0.10   0.15
   6  17     0.02  -0.02   0.00    -0.02   0.01  -0.02     0.00  -0.03  -0.02
   7   1     0.04  -0.09  -0.02    -0.05  -0.03  -0.02    -0.17  -0.09  -0.12
   8   1    -0.07  -0.13  -0.10    -0.03  -0.02  -0.00     0.12   0.10  -0.00
   9   1     0.21   0.10   0.11    -0.07  -0.06  -0.03    -0.01   0.05  -0.08
  10   1     0.04  -0.16   0.13     0.14   0.06   0.09     0.05  -0.01   0.08
  11   1    -0.08   0.11  -0.01     0.26  -0.01   0.21    -0.01   0.17  -0.02
  12   1    -0.05   0.08   0.07    -0.25   0.26  -0.06    -0.09   0.11  -0.18
  13   1    -0.14   0.14   0.00    -0.09   0.07  -0.08     0.19  -0.08   0.17
  14   1     0.07   0.11  -0.06     0.21  -0.15  -0.19     0.17   0.02  -0.16
  15   1     0.24  -0.19  -0.15    -0.09   0.01   0.05    -0.29   0.13   0.27
  16   1    -0.24  -0.13   0.11     0.28   0.18  -0.03    -0.09  -0.01   0.10
  17   1     0.18   0.14  -0.02    -0.08  -0.05   0.06     0.34   0.25  -0.06
                     22                     23                     24
                        a                      a                      a 
 Frequencies --  1242.0111              1251.5258              1280.6331
 Red. masses --     3.4595                 2.9444                 2.1608
 Frc consts  --     0.0000                 0.0000                 0.0000
 IR Inten    --     9.8879                16.3158                 1.5237
 Raman Activ --     0.0000                 0.0000                 0.0000
 Depolar     --     0.0000                 0.0000                 0.0000
 Atom AN      X      Y      Z        X      Y      Z        X      Y      Z
   1   6     0.14   0.00  -0.22     0.10  -0.04  -0.13     0.07  -0.10  -0.08
   2   6    -0.10  -0.02   0.21    -0.06   0.03   0.12     0.01   0.12  -0.07
   3   6    -0.03  -0.06  -0.02    -0.02  -0.04   0.02     0.03   0.04   0.17
   4   6     0.04   0.16   0.04    -0.03  -0.03  -0.17    -0.07  -0.13  -0.01
   5   6    -0.16  -0.18   0.04     0.26   0.13   0.06    -0.05   0.03  -0.07
   6  17    -0.01  -0.02  -0.03     0.02   0.02   0.03     0.00   0.00  -0.00
   7   1     0.14   0.16   0.13     0.06   0.10   0.07     0.00   0.06   0.02
   8   1    -0.08  -0.02   0.06    -0.03   0.00   0.05     0.02   0.05   0.05
   9   1    -0.16  -0.15  -0.01    -0.13  -0.10  -0.02    -0.11  -0.07  -0.05
  10   1     0.24   0.10   0.13     0.23   0.09   0.13     0.34   0.06   0.26
  11   1    -0.27  -0.17  -0.22    -0.18  -0.09  -0.15    -0.25   0.03  -0.20
  12   1     0.14  -0.15   0.00    -0.07   0.06  -0.03    -0.31   0.34  -0.02
  13   1    -0.20   0.23  -0.03    -0.12   0.14  -0.01     0.27  -0.27   0.10
  14   1     0.09  -0.03  -0.08     0.20   0.00  -0.18    -0.22   0.07   0.20
  15   1     0.02   0.07  -0.05    -0.19   0.01   0.21     0.22  -0.15  -0.16
  16   1     0.18   0.19   0.03    -0.43  -0.32   0.08     0.10   0.05  -0.06
  17   1     0.37   0.25  -0.03    -0.32  -0.21  -0.01    -0.03  -0.03   0.04
                     25                     26                     27
                        a                      a                      a 
 Frequencies --  1336.1073              1352.9586              1359.4442
 Red. masses --     4.5844                 4.5753                 4.8176
 Frc consts  --     0.0000                 0.0000                 0.0000
 IR Inten    --     3.4320                 4.3503                 3.2522
 Raman Activ --     0.0000                 0.0000                 0.0000
 Depolar     --     0.0000                 0.0000                 0.0000
 Atom AN      X      Y      Z        X      Y      Z        X      Y      Z
   1   6    -0.02   0.07  -0.03     0.03  -0.10   0.02     0.03  -0.03   0.04
   2   6     0.23   0.02   0.16    -0.34  -0.07  -0.27    -0.17   0.08  -0.03
   3   6    -0.09  -0.10   0.07    -0.04   0.11   0.09     0.40  -0.34   0.09
   4   6     0.34  -0.12  -0.28     0.24  -0.07  -0.19    -0.08   0.06  -0.08
   5   6    -0.09   0.06   0.01    -0.06   0.04   0.02    -0.02  -0.03   0.00
   6  17    -0.00  -0.00  -0.01    -0.00  -0.00  -0.00     0.00  -0.00  -0.00
   7   1     0.01  -0.03  -0.02     0.01   0.08   0.07    -0.05   0.00  -0.02
   8   1    -0.08  -0.10  -0.04     0.11   0.14   0.05     0.02   0.02   0.02
   9   1    -0.03  -0.03   0.02     0.07   0.05  -0.03    -0.02   0.01  -0.03
  10   1    -0.22  -0.03  -0.17     0.37   0.03   0.30    -0.03   0.06  -0.07
  11   1    -0.25  -0.01  -0.19     0.28   0.03   0.22     0.19  -0.00   0.15
  12   1    -0.03   0.03  -0.07     0.20  -0.21   0.11    -0.32   0.34  -0.04
  13   1    -0.06   0.12   0.06    -0.06   0.09   0.02    -0.38   0.38  -0.10
  14   1    -0.37   0.14   0.34    -0.22   0.07   0.20    -0.09   0.12   0.09
  15   1    -0.28   0.12   0.23    -0.16   0.07   0.15     0.09  -0.05  -0.06
  16   1     0.09   0.08  -0.02     0.05   0.03  -0.02    -0.00   0.02   0.01
  17   1    -0.05  -0.06   0.12    -0.04  -0.03   0.05     0.04   0.03  -0.01
                     28                     29                     30
                        a                      a                      a 
 Frequencies --  1411.1776              1423.6670              1461.0280
 Red. masses --     3.2187                 2.0389                 1.9110
 Frc consts  --     0.0000                 0.0000                 0.0000
 IR Inten    --     1.3441                 4.1373                 3.6911
 Raman Activ --     0.0000                 0.0000                 0.0000
 Depolar     --     0.0000                 0.0000                 0.0000
 Atom AN      X      Y      Z        X      Y      Z        X      Y      Z
   1   6    -0.31  -0.24  -0.17    -0.05  -0.04  -0.03    -0.04  -0.02   0.03
   2   6     0.09   0.00   0.08     0.02   0.04   0.01    -0.00  -0.02   0.01
   3   6     0.01  -0.05  -0.03    -0.00  -0.03   0.01    -0.01  -0.01  -0.03
   4   6    -0.01   0.04  -0.00     0.03  -0.00  -0.00    -0.04  -0.26   0.07
   5   6     0.01  -0.00  -0.05    -0.07   0.03   0.28     0.01  -0.02  -0.02
   6  17    -0.00  -0.00  -0.00     0.01   0.01   0.01     0.00   0.00   0.00
   7   1     0.30   0.21   0.35     0.05   0.05   0.07     0.07   0.04   0.08
   8   1     0.24   0.41   0.08     0.04   0.07   0.01     0.08  -0.02  -0.11
   9   1     0.45   0.16   0.10     0.07   0.03   0.01    -0.00   0.08  -0.09
  10   1    -0.07   0.05  -0.12    -0.06  -0.06   0.04     0.02   0.03  -0.03
  11   1    -0.09   0.05  -0.04    -0.02  -0.07  -0.06    -0.03   0.04   0.00
  12   1    -0.06   0.04   0.01     0.00   0.00  -0.01    -0.04  -0.01   0.08
  13   1     0.01   0.03   0.02    -0.01   0.02   0.00     0.05   0.04   0.06
  14   1    -0.02  -0.07  -0.03    -0.01   0.06   0.04     0.33   0.56   0.11
  15   1     0.02  -0.04   0.04    -0.02   0.05  -0.03    -0.21   0.42  -0.43
  16   1    -0.05   0.06   0.07     0.28  -0.41  -0.43    -0.03   0.04   0.04
  17   1     0.03  -0.03   0.10    -0.17   0.18  -0.61     0.01  -0.03   0.05
                     31                     32                     33
                        a                      a                      a 
 Frequencies --  1482.3587              1498.6806              1501.6575
 Red. masses --     1.9057                 1.6144                 1.8231
 Frc consts  --     0.0000                 0.0000                 0.0000
 IR Inten    --     1.5605                 0.8730                 2.3318
 Raman Activ --     0.0000                 0.0000                 0.0000
 Depolar     --     0.0000                 0.0000                 0.0000
 Atom AN      X      Y      Z        X      Y      Z        X      Y      Z
   1   6    -0.01   0.04   0.02     0.07  -0.13  -0.01    -0.12   0.09   0.04
   2   6     0.00   0.05  -0.02     0.06   0.17  -0.03    -0.02   0.20  -0.04
   3   6    -0.01  -0.07  -0.26    -0.00   0.02   0.01     0.02   0.02   0.07
   4   6    -0.00   0.03  -0.02    -0.01  -0.01   0.00     0.00  -0.01  -0.01
   5   6    -0.00  -0.00   0.01     0.01  -0.00  -0.03     0.01  -0.00  -0.03
   6  17     0.00   0.00  -0.00    -0.00  -0.00  -0.00    -0.00  -0.00  -0.00
   7   1     0.06  -0.09  -0.02    -0.30   0.42   0.05     0.37  -0.31   0.07
   8   1     0.04  -0.00  -0.05    -0.22  -0.13   0.14     0.31   0.10  -0.28
   9   1    -0.06  -0.04   0.02     0.20   0.27  -0.19    -0.19  -0.13   0.03
  10   1    -0.06  -0.10   0.08    -0.22  -0.31   0.27    -0.16  -0.27   0.29
  11   1     0.04  -0.13  -0.04     0.13  -0.42  -0.14     0.15  -0.40  -0.12
  12   1    -0.26  -0.10   0.59     0.01   0.01  -0.02     0.05   0.04  -0.15
  13   1     0.31   0.39   0.41    -0.01  -0.01  -0.02    -0.09  -0.09  -0.11
  14   1    -0.03  -0.07  -0.03     0.01   0.02   0.00    -0.00   0.01   0.01
  15   1     0.04  -0.06   0.05     0.00   0.01  -0.03    -0.01  -0.00   0.00
  16   1    -0.01  -0.00   0.00    -0.05   0.04   0.05    -0.03   0.04   0.05
  17   1     0.01   0.01  -0.00     0.02  -0.02   0.06     0.02  -0.01   0.05
                     34                     35                     36
                        a                      a                      a 
 Frequencies --  1509.0637              2962.7834              2968.8493
 Red. masses --     1.6068                 1.9150                 1.9288
 Frc consts  --     0.0000                 0.0000                 0.0000
 IR Inten    --     0.7084                48.9284                63.7601
 Raman Activ --     0.0000                 0.0000                 0.0000
 Depolar     --     0.0000                 0.0000                 0.0000
 Atom AN      X      Y      Z        X      Y      Z        X      Y      Z
   1   6     0.03   0.07  -0.19     0.01  -0.01  -0.01     0.00   0.00  -0.00
   2   6     0.00   0.07  -0.06    -0.16   0.10   0.20    -0.03   0.05   0.03
   3   6     0.00  -0.01   0.01     0.04   0.04  -0.05    -0.20  -0.18   0.05
   4   6    -0.01  -0.06   0.01    -0.00  -0.01  -0.00     0.02   0.02   0.02
   5   6     0.00  -0.00  -0.01    -0.00  -0.00  -0.00    -0.00   0.00  -0.00
   6  17    -0.00   0.00  -0.00    -0.00   0.00  -0.00     0.00   0.00   0.00
   7   1    -0.11  -0.21  -0.22    -0.02  -0.02   0.03    -0.01  -0.01   0.01
   8   1    -0.20   0.27   0.48    -0.01   0.01  -0.02    -0.00   0.00  -0.00
   9   1     0.19  -0.33   0.52    -0.02   0.04   0.03    -0.00   0.01   0.01
  10   1    -0.06  -0.10   0.09     0.35  -0.58  -0.38     0.13  -0.20  -0.14
  11   1     0.07  -0.11  -0.03     0.24   0.21  -0.34    -0.03  -0.01   0.04
  12   1    -0.00   0.01  -0.01    -0.02  -0.03  -0.02     0.43   0.47   0.28
  13   1     0.01  -0.01   0.00    -0.15  -0.11   0.21     0.31   0.20  -0.44
  14   1     0.07   0.12   0.03    -0.01   0.01  -0.01    -0.00   0.01  -0.01
  15   1    -0.06   0.10  -0.09     0.01   0.01   0.01    -0.10  -0.11  -0.06
  16   1    -0.01   0.02   0.02     0.01  -0.01   0.01     0.00  -0.00   0.01
  17   1     0.00  -0.01   0.02    -0.01   0.01   0.00    -0.00  -0.00  -0.00
                     37                     38                     39
                        a                      a                      a 
 Frequencies --  2978.9850              2986.7102              2989.6751
 Red. masses --     1.8098                 1.6300                 1.5623
 Frc consts  --     0.0000                 0.0000                 0.0000
 IR Inten    --    24.2158                83.3013                90.6936
 Raman Activ --     0.0000                 0.0000                 0.0000
 Depolar     --     0.0000                 0.0000                 0.0000
 Atom AN      X      Y      Z        X      Y      Z        X      Y      Z
   1   6    -0.00  -0.00   0.00    -0.00   0.01  -0.02     0.01  -0.02   0.01
   2   6     0.02  -0.01  -0.03    -0.06  -0.10   0.09     0.03   0.14  -0.06
   3   6     0.02  -0.01  -0.10    -0.01   0.01   0.14     0.04   0.06   0.10
   4   6     0.16  -0.02   0.18     0.08   0.01   0.08     0.06   0.01   0.07
   5   6    -0.02   0.03  -0.02    -0.01   0.02  -0.03     0.01  -0.01  -0.01
   6  17    -0.00  -0.00  -0.00    -0.00  -0.00  -0.00    -0.00  -0.00  -0.00
   7   1     0.00   0.00  -0.01    -0.03  -0.03   0.04     0.03   0.02  -0.03
   8   1     0.01  -0.01   0.01     0.03  -0.02   0.02    -0.05   0.04  -0.04
   9   1    -0.00   0.00   0.00    -0.01   0.01   0.00    -0.01   0.01   0.02
  10   1    -0.04   0.07   0.05    -0.10   0.14   0.12     0.21  -0.30  -0.23
  11   1    -0.03  -0.02   0.04     0.32   0.22  -0.43    -0.32  -0.22   0.44
  12   1     0.18   0.19   0.09    -0.24  -0.26  -0.12    -0.31  -0.33  -0.17
  13   1    -0.23  -0.16   0.29     0.29   0.20  -0.37     0.16   0.12  -0.20
  14   1    -0.37   0.32  -0.54    -0.14   0.13  -0.20    -0.12   0.11  -0.18
  15   1    -0.21  -0.26  -0.13    -0.14  -0.16  -0.09    -0.11  -0.13  -0.07
  16   1     0.07  -0.08   0.11     0.07  -0.08   0.12     0.01  -0.01   0.01
  17   1     0.02  -0.03  -0.02    -0.01   0.01   0.00    -0.02   0.04   0.02
                     40                     41                     42
                        a                      a                      a 
 Frequencies --  2992.5278              2998.8425              3006.3772
 Red. masses --     1.6855                 1.5813                 1.7932
 Frc consts  --     0.0000                 0.0000                 0.0000
 IR Inten    --    11.9798                25.5806                21.7419
 Raman Activ --     0.0000                 0.0000                 0.0000
 Depolar     --     0.0000                 0.0000                 0.0000
 Atom AN      X      Y      Z        X      Y      Z        X      Y      Z
   1   6     0.00  -0.00  -0.00    -0.00   0.01   0.00     0.00  -0.00  -0.00
   2   6     0.00  -0.01  -0.00    -0.00   0.00  -0.00    -0.01  -0.01   0.01
   3   6     0.02   0.02  -0.02    -0.02  -0.02   0.01    -0.00  -0.00   0.01
   4   6     0.05   0.12  -0.00    -0.05  -0.15  -0.00     0.03  -0.04   0.05
   5   6     0.12  -0.16  -0.06     0.07  -0.11  -0.09     0.12  -0.14   0.18
   6  17    -0.00  -0.00  -0.00    -0.00  -0.00  -0.00     0.00   0.00   0.00
   7   1     0.00   0.00  -0.00    -0.00  -0.00   0.00    -0.00  -0.00   0.00
   8   1     0.00  -0.00   0.00     0.01  -0.00   0.01    -0.00   0.00  -0.00
   9   1    -0.01   0.01   0.01     0.01  -0.02  -0.02    -0.00   0.00   0.00
  10   1    -0.02   0.03   0.02     0.00  -0.00  -0.00    -0.01   0.01   0.01
  11   1     0.01   0.00  -0.01    -0.00  -0.00   0.01     0.05   0.03  -0.06
  12   1     0.01   0.01   0.00     0.04   0.04   0.02    -0.01  -0.01  -0.00
  13   1    -0.07  -0.05   0.09     0.05   0.03  -0.07     0.03   0.02  -0.04
  14   1     0.16  -0.11   0.22    -0.19   0.13  -0.26    -0.13   0.11  -0.19
  15   1    -0.34  -0.35  -0.23     0.40   0.41   0.26     0.03   0.03   0.03
  16   1    -0.01   0.01  -0.06     0.09  -0.10   0.12    -0.42   0.46  -0.68
  17   1    -0.38   0.58   0.26    -0.32   0.49   0.21    -0.02   0.03   0.04
                     43                     44                     45
                        a                      a                      a 
 Frequencies --  3029.2050              3032.9717              3044.9287
 Red. masses --     1.9295                 1.8557                 1.3578
 Frc consts  --     0.0000                 0.0000                 0.0000
 IR Inten    --    81.5678                79.8752                42.7389
 Raman Activ --     0.0000                 0.0000                 0.0000
 Depolar     --     0.0000                 0.0000                 0.0000
 Atom AN      X      Y      Z        X      Y      Z        X      Y      Z
   1   6     0.01  -0.19   0.22     0.23  -0.12  -0.10     0.02   0.11   0.14
   2   6    -0.01  -0.02   0.02     0.02  -0.02  -0.02    -0.00   0.00   0.01
   3   6    -0.01  -0.00   0.00    -0.00  -0.00  -0.00     0.00   0.00  -0.00
   4   6    -0.00  -0.00   0.00    -0.00  -0.00  -0.00     0.00   0.01   0.00
   5   6    -0.00   0.00  -0.00    -0.00   0.00  -0.00     0.00  -0.00  -0.00
   6  17    -0.00   0.00  -0.00    -0.00  -0.00  -0.00     0.00   0.00   0.00
   7   1     0.39   0.33  -0.55    -0.24  -0.27   0.39    -0.14  -0.11   0.23
   8   1    -0.39   0.31  -0.30    -0.37   0.33  -0.36    -0.30   0.27  -0.24
   9   1    -0.03   0.02   0.08    -0.20   0.35   0.30     0.36  -0.56  -0.47
  10   1    -0.02   0.03   0.02    -0.04   0.05   0.04     0.01  -0.01  -0.01
  11   1     0.05   0.03  -0.07    -0.01  -0.01   0.01     0.01   0.01  -0.01
  12   1     0.01   0.01   0.01     0.01   0.01   0.01    -0.00   0.00   0.00
  13   1     0.01   0.01  -0.01    -0.00  -0.00   0.00    -0.00  -0.00   0.00
  14   1    -0.00   0.00  -0.00    -0.00   0.00  -0.00     0.00  -0.00   0.00
  15   1     0.00   0.00   0.00     0.01   0.02   0.01    -0.02  -0.02  -0.01
  16   1     0.00  -0.00   0.01     0.00  -0.00   0.01     0.00   0.00  -0.00
  17   1    -0.00   0.00   0.00     0.00   0.00  -0.00    -0.00   0.00   0.00
