      -----------------------------------------------------------      
     |                   =====================                   |     
     |                           x T B                           |     
     |                   =====================                   |     
     |                         S. Grimme                         |     
     |          Mulliken Center for Theoretical Chemistry        |     
     |                    University of Bonn                     |     
      -----------------------------------------------------------      

   * xtb version 6.7.1 (edcfbbe) compiled by 'albert@albert-system' on 2024-07-22

   xtb is free software: you can redistribute it and/or modify it under
   the terms of the GNU Lesser General Public License as published by
   the Free Software Foundation, either version 3 of the License, or
   (at your option) any later version.
   
   xtb is distributed in the hope that it will be useful,
   but WITHOUT ANY WARRANTY; without even the implied warranty of
   MERCHANTABILITY or FITNESS FOR A PARTICULAR PURPOSE.  See the
   GNU Lesser General Public License for more details.
   
   Cite this work as:
   * C. Bannwarth, E. Caldeweyher, S. Ehlert, A. Hansen, P. Pracht,
     J. Seibert, S. Spicher, S. Grimme, WIREs Comput. Mol. Sci., 2020, 11,
     e01493. DOI: 10.1002/wcms.1493
   
   for GFN2-xTB:
   * C. Bannwarth, S. Ehlert and S. Grimme., J. Chem. Theory Comput., 2019,
     15, 1652-1671. DOI: 10.1021/acs.jctc.8b01176
   for GFN1-xTB:
   * S. Grimme, C. Bannwarth, P. Shushkov, J. Chem. Theory Comput., 2017,
     13, 1989-2009. DOI: 10.1021/acs.jctc.7b00118
   for GFN0-xTB:
   * P. Pracht, E. Caldeweyher, S. Ehlert, S. Grimme, ChemRxiv, 2019, preprint.
     DOI: 10.26434/chemrxiv.8326202.v1
   for GFN-FF:
   * S. Spicher and S. Grimme, Angew. Chem. Int. Ed., 2020, 59, 15665-15673.
     DOI: 10.1002/anie.202004239
   
   for ALPB and GBSA implicit solvation:
   * S. Ehlert, M. Stahn, S. Spicher, S. Grimme, J. Chem. Theory Comput.,
     2021, 17, 4250-4261. DOI: 10.1021/acs.jctc.1c00471
   
   for ddCOSMO and CPCM-X implicit solvation:
   * M. Stahn, S. Ehlert, S. Grimme, J. Phys. Chem. A,
     2023, XX, XXXX-XXXX. DOI: 10.1021/acs.jpca.3c04382
   
   for DFT-D4:
   * E. Caldeweyher, C. Bannwarth and S. Grimme, J. Chem. Phys., 2017,
     147, 034112. DOI: 10.1063/1.4993215
   * E. Caldeweyher, S. Ehlert, A. Hansen, H. Neugebauer, S. Spicher,
     C. Bannwarth and S. Grimme, J. Chem. Phys., 2019, 150, 154122.
     DOI: 10.1063/1.5090222
   * E. Caldeweyher, J.-M. Mewes, S. Ehlert and S. Grimme, Phys. Chem. Chem. Phys.
     2020, 22, 8499-8512. DOI: 10.1039/D0CP00502A
   
   for sTDA-xTB:
   * S. Grimme and C. Bannwarth, J. Chem. Phys., 2016, 145, 054103.
     DOI: 10.1063/1.4959605
   
   in the mass-spec context:
   * V. Asgeirsson, C. Bauer and S. Grimme, Chem. Sci., 2017, 8, 4879.
     DOI: 10.1039/c7sc00601b
   * J. Koopman and S. Grimme, ACS Omega 2019, 4, 12, 15120-15133.
     DOI: 10.1021/acsomega.9b02011
   
   for metadynamics refer to:
   * S. Grimme, J. Chem. Theory Comput., 2019, 155, 2847-2862
     DOI: 10.1021/acs.jctc.9b00143
   
   for SPH calculations refer to:
   * S. Spicher and S. Grimme, J. Chem. Theory Comput., 2021, 17, 1701-1714
     DOI: 10.1021/acs.jctc.0c01306
   
   for ONIOM refer to:
   * C. Plett, A. Katbashev, S. Ehlert, S. Grimme, M. Bursch,
     Phys. Chem. Chem. Phys., 2023, 25, 17860-17868. DOI: 10.1039/D3CP02178E
   
   for DIPRO refer to:
   * J. Kohn, N. Gildemeister, S. Grimme, D. Fazzi, A. Hansen,
     J. Chem. Phys., 2023, just accepted.
   
   for PTB refer to:
   * S. Grimme, M. Mueller, A. Hansen, J. Chem. Phys., 2023, 158, 124111.
     DOI: 10.1063/5.0137838
   
   with help from (in alphabetical order)
   P. Atkinson, C. Bannwarth, F. Bohle, G. Brandenburg, E. Caldeweyher
   M. Checinski, S. Dohm, S. Ehlert, S. Ehrlich, I. Gerasimov, C. Hölzer
   A. Katbashev, J. Kohn, J. Koopman, C. Lavigne, S. Lehtola, F. März, M. Müller,
   F. Musil, H. Neugebauer, J. Pisarek, C. Plett, P. Pracht, F. Pultar,
   J. Seibert, P. Shushkov, S. Spicher, M. Stahn, M. Steiner, T. Strunk,
   J. Stückrath, T. Rose, and J. Unsleber
   
 * started run on 2025/04/11 at 16:00:44.575     
   ID    Z sym.   atoms
    1    6 C      1-5
    2   17 Cl     6
    3    1 H      7-17

           -------------------------------------------------
          |                Calculation Setup                |
           -------------------------------------------------

          program call               : /srv/scratch/z5358697/.xtb/bin/xtb xtb_rrho.coord --gfn2 --ohess vtight --chrg 0 --enso --norestart -I rrho-xcontrol-inp --parallel 1 --alpb water
          hostname                   : k124
          coordinate file            : xtb_rrho.coord
          omp threads                :                     1


           -------------------------------------------------
          |                 G F N 2 - x T B                 |
           -------------------------------------------------

        Reference                      10.1021/acs.jctc.8b01176
      * Hamiltonian:
        H0-scaling (s, p, d)           1.850000    2.230000    2.230000
        zeta-weighting                 0.500000
      * Dispersion:
        s8                             2.700000
        a1                             0.520000
        a2                             5.000000
        s9                             5.000000
      * Repulsion:
        kExp                           1.500000    1.000000
        rExp                           1.000000
      * Coulomb:
        alpha                          2.000000
        third order                    shell-resolved
        anisotropic                    true
        a3                             3.000000
        a5                             4.000000
        cn-shift                       1.200000
        cn-exp                         4.000000
        max-rad                        5.000000

      * Solvation model:               ALPB
        Solvent                        water
        Parameter file                 internal GFN2-xTB/ALPB
        Dielectric constant                8.0200E+01
        Reference state                gsolv [1 M gas/solution]
        Free energy shift                  1.0808E-03 Eh       6.7819E-01 kcal/mol
        Temperature                        2.9815E+02 K
        Density                            1.0000E+00 kg/L
        Solvent mass                       1.8000E+01 g/mol
        Interaction kernel             P16
        Born radius scaling (c1)           1.4744E+00
        Born radii integrator          GBOBC
        Born offset                        0.0000E+00 a0       0.0000E+00 AA
        H-bond correction              true
        Ion screening                  false
        Surface tension                    1.0000E-05 Eh       1.5569E+01 dyn/cm
        Grid points                               974 per atom

          ...................................................
          :                      SETUP                      :
          :.................................................:
          :  # basis functions                  41          :
          :  # atomic orbitals                  40          :
          :  # shells                           24          :
          :  # electrons                        38          :
          :  max. iterations                   250          :
          :  Hamiltonian                  GFN2-xTB          :
          :  restarted?                      false          :
          :  GBSA solvation                   true          :
          :  PC potential                    false          :
          :  electronic temp.          300.0000000     K    :
          :  accuracy                    1.0000000          :
          :  -> integral cutoff          0.2500000E+02      :
          :  -> integral neglect         0.1000000E-07      :
          :  -> SCF convergence          0.1000000E-05 Eh   :
          :  -> wf. convergence          0.1000000E-03 e    :
          :  Broyden damping             0.4000000          :
          :  net charge                          0          :
          :  unpaired electrons                  0          :
          ...................................................

 iter      E             dE          RMSdq      gap      omega  full diag
   1    -21.0593123 -0.210593E+02  0.300E+00    6.87       0.0  T
   2    -21.1057426 -0.464303E-01  0.157E+00    6.42       1.0  T
   3    -21.1068439 -0.110129E-02  0.804E-01    6.54       1.0  T
   4    -21.1070920 -0.248089E-03  0.130E-01    6.48       1.0  T
   5    -21.1071558 -0.637969E-04  0.566E-02    6.51       1.0  T
   6    -21.1071595 -0.373916E-05  0.233E-02    6.51       1.0  T
   7    -21.1071614 -0.187537E-05  0.162E-02    6.51       1.5  T
   8    -21.1071633 -0.192619E-05  0.917E-03    6.52       2.6  T
   9    -21.1071643 -0.902914E-06  0.214E-03    6.52      11.3  T
  10    -21.1071643 -0.130735E-07  0.570E-04    6.52      42.5  T
  11    -21.1071643 -0.101541E-08  0.308E-04    6.53      78.6  T

   *** convergence criteria satisfied after 11 iterations ***

         #    Occupation            Energy/Eh            Energy/eV
      -------------------------------------------------------------
         1        2.0000           -1.0526617             -28.6444
       ...           ...                  ...                  ...
        13        2.0000           -0.4564288             -12.4201
        14        2.0000           -0.4546622             -12.3720
        15        2.0000           -0.4282444             -11.6531
        16        2.0000           -0.4245917             -11.5537
        17        2.0000           -0.4228697             -11.5069
        18        2.0000           -0.4135324             -11.2528
        19        2.0000           -0.4119668             -11.2102 (HOMO)
        20                         -0.1721748              -4.6851 (LUMO)
        21                          0.0216900               0.5902
        22                          0.0252701               0.6876
        23                          0.0289378               0.7874
        24                          0.0290849               0.7914
       ...                                ...                  ...
        40                          0.2892799               7.8717
      -------------------------------------------------------------
                  HL-Gap            0.2397920 Eh            6.5251 eV
             Fermi-level           -0.2920708 Eh           -7.9477 eV

 SCC (total)                   0 d,  0 h,  0 min,  0.017 sec
 SCC setup                      ...        0 min,  0.001 sec (  5.697%)
 Dispersion                     ...        0 min,  0.000 sec (  0.479%)
 classical contributions        ...        0 min,  0.000 sec (  0.105%)
 integral evaluation            ...        0 min,  0.007 sec ( 38.949%)
 iterations                     ...        0 min,  0.005 sec ( 30.742%)
 molecular gradient             ...        0 min,  0.004 sec ( 23.064%)
 printout                       ...        0 min,  0.000 sec (  0.877%)

         :::::::::::::::::::::::::::::::::::::::::::::::::::::
         ::                     SUMMARY                     ::
         :::::::::::::::::::::::::::::::::::::::::::::::::::::
         :: total energy             -20.871587896417 Eh    ::
         :: total w/o Gsasa/hb       -20.871014386925 Eh    ::
         :: gradient norm              0.025628288253 Eh/a0 ::
         :: HOMO-LUMO gap              6.525072062919 eV    ::
         ::.................................................::
         :: SCC energy               -21.107129179174 Eh    ::
         :: -> isotropic ES            0.012550548410 Eh    ::
         :: -> anisotropic ES          0.002145802572 Eh    ::
         :: -> anisotropic XC          0.011312227597 Eh    ::
         :: -> dispersion             -0.010574502848 Eh    ::
         :: -> Gsolv                  -0.004618420831 Eh    ::
         ::    -> Gelec               -0.004044911339 Eh    ::
         ::    -> Gsasa               -0.000771771095 Eh    ::
         ::    -> Ghb                 -0.000882498095 Eh    ::
         ::    -> Gshift               0.001080759698 Eh    ::
         :: repulsion energy           0.235541282757 Eh    ::
         :: add. restraining           0.000000000000 Eh    ::
         :: total charge              -0.000000000000 e     ::
         :::::::::::::::::::::::::::::::::::::::::::::::::::::

      ----------------------------------------------------------- 
     |                   =====================                   |
     |                        A N C O P T                        |
     |                   =====================                   |
     |               Approximate Normal Coordinate               |
     |                Rational Function Optimizer                |
      ----------------------------------------------------------- 
      ----------------------------------------------------------- 
     |                   =====================                   |
     |                        A N C O P T                        |
     |                   =====================                   |
     |               Approximate Normal Coordinate               |
     |                Rational Function Optimizer                |
      ----------------------------------------------------------- 

          ...................................................
          :                      SETUP                      :
          :.................................................:
          :   optimization level         verytight          :
          :   max. optcycles                   340          :
          :   ANC micro-cycles                  20          :
          :   degrees of freedom                45          :
          :.................................................:
          :   RF solver                   davidson          :
          :   write xtbopt.log                true          :
          :   linear?                        false          :
          :   energy convergence         0.1000000E-06 Eh   :
          :   grad. convergence          0.2000000E-03 Eh/α :
          :   maxmium RF displ.          1.0000000          :
          :   Hlow (freq-cutoff)         0.1000000E-01      :
          :   Hmax (freq-cutoff)         5.0000000          :
          :   S6 in model hess.         20.0000000          :
          ...................................................

generating ANC from exact Hessian ...
Using Lindh-Hessian (1995)
 Shifting diagonal of input Hessian by   7.992955744770172E-003
 Lowest  eigenvalues of input Hessian
    0.000000    0.000000    0.000000    0.000000    0.000000    0.000000
    0.010000    0.011648    0.012946    0.016248    0.018643    0.021651
    0.029227    0.037605    0.047459    0.055525    0.058186    0.059997
 Highest eigenvalues
    1.118278    1.133560    1.157383    1.222712    1.261700    1.287651
 

........................................................................
.............................. CYCLE    1 ..............................
........................................................................

 iter      E             dE          RMSdq      gap      omega  full diag
   1    -21.1071643 -0.211072E+02  0.114E-04    6.53       0.0  T
   2    -21.1071643 -0.405471E-10  0.874E-05    6.53     277.4  T
   3    -21.1071643 -0.208651E-10  0.672E-05    6.53     360.9  T
     SCC iter.                  ...        0 min,  0.001 sec
     gradient                   ...        0 min,  0.004 sec
 * total energy  :   -20.8715879 Eh     change       -0.2747349E-09 Eh
   gradient norm :     0.0256278 Eh/α   predicted     0.0000000E+00 (-100.00%)
   displ. norm   :     0.1198513 α      lambda       -0.1478355E-02
   maximum displ.:     0.0416628 α      in ANC's #1, #4, #13, ...

........................................................................
.............................. CYCLE    2 ..............................
........................................................................

 iter      E             dE          RMSdq      gap      omega  full diag
   1    -21.1147645 -0.211148E+02  0.119E-01    6.74       0.0  T
   2    -21.1147731 -0.861008E-05  0.715E-02    6.73       1.0  T
   3    -21.1147765 -0.343526E-05  0.204E-02    6.73       1.2  T
   4    -21.1147778 -0.125411E-05  0.151E-02    6.72       1.6  T
   5    -21.1147789 -0.111390E-05  0.105E-02    6.72       2.3  T
   6    -21.1147800 -0.109033E-05  0.398E-03    6.71       6.1  T
   7    -21.1147801 -0.113436E-06  0.840E-04    6.71      28.9  T
   8    -21.1147801 -0.345528E-08  0.372E-04    6.71      65.2  T
     SCC iter.                  ...        0 min,  0.003 sec
     gradient                   ...        0 min,  0.004 sec
 * total energy  :   -20.8725825 Eh     change       -0.9946496E-03 Eh
   gradient norm :     0.0136897 Eh/α   predicted    -0.7497937E-03 ( -24.62%)
   displ. norm   :     0.0912624 α      lambda       -0.4628775E-03
   maximum displ.:     0.0554761 α      in ANC's #1, #4, #6, ...

........................................................................
.............................. CYCLE    3 ..............................
........................................................................

 iter      E             dE          RMSdq      gap      omega  full diag
   1    -21.1184048 -0.211184E+02  0.696E-02    6.90       0.0  T
   2    -21.1184103 -0.555029E-05  0.439E-02    6.90       1.0  T
   3    -21.1184127 -0.237169E-05  0.180E-02    6.89       1.3  T
   4    -21.1184138 -0.112654E-05  0.132E-02    6.89       1.8  T
   5    -21.1184148 -0.976677E-06  0.897E-03    6.89       2.7  T
   6    -21.1184156 -0.817324E-06  0.269E-03    6.88       9.0  T
   7    -21.1184157 -0.411652E-07  0.824E-04    6.88      29.4  T
   8    -21.1184157 -0.293296E-08  0.221E-04    6.88     109.9  T
     SCC iter.                  ...        0 min,  0.003 sec
     gradient                   ...        0 min,  0.004 sec
 * total energy  :   -20.8728571 Eh     change       -0.2745936E-03 Eh
   gradient norm :     0.0049502 Eh/α   predicted    -0.2333668E-03 ( -15.01%)
   displ. norm   :     0.0533894 α      lambda       -0.7295710E-04
   maximum displ.:     0.0454732 α      in ANC's #1, #4, #2, ...

........................................................................
.............................. CYCLE    4 ..............................
........................................................................

 iter      E             dE          RMSdq      gap      omega  full diag
   1    -21.1180678 -0.211181E+02  0.266E-02    6.95       0.0  T
   2    -21.1180683 -0.490836E-06  0.170E-02    6.95       1.4  T
   3    -21.1180686 -0.362242E-06  0.625E-03    6.94       3.9  T
   4    -21.1180688 -0.129223E-06  0.506E-03    6.94       4.8  T
   5    -21.1180689 -0.181274E-06  0.281E-03    6.94       8.6  T
   6    -21.1180690 -0.808138E-07  0.999E-04    6.94      24.3  T
   7    -21.1180690 -0.587033E-08  0.154E-04    6.94     157.2  T
     SCC iter.                  ...        0 min,  0.003 sec
     gradient                   ...        0 min,  0.004 sec
 * total energy  :   -20.8729087 Eh     change       -0.5159693E-04 Eh
   gradient norm :     0.0022346 Eh/α   predicted    -0.3658363E-04 ( -29.10%)
   displ. norm   :     0.0642442 α      lambda       -0.3993031E-04
   maximum displ.:     0.0550121 α      in ANC's #1, #2, #4, ...

........................................................................
.............................. CYCLE    5 ..............................
........................................................................

 iter      E             dE          RMSdq      gap      omega  full diag
   1    -21.1171513 -0.211172E+02  0.287E-02    6.98       0.0  T
   2    -21.1171515 -0.144126E-06  0.171E-02    6.98       1.4  T
   3    -21.1171516 -0.125533E-06  0.341E-03    6.98       7.1  T
   4    -21.1171516 -0.331575E-07  0.285E-03    6.97       8.5  T
   5    -21.1171517 -0.636866E-07  0.141E-03    6.97      17.2  T
   6    -21.1171517 -0.191532E-07  0.662E-04    6.97      36.6  T
   7    -21.1171517 -0.264631E-08  0.994E-05    6.97     244.1  T
     SCC iter.                  ...        0 min,  0.003 sec
     gradient                   ...        0 min,  0.004 sec
 * total energy  :   -20.8729363 Eh     change       -0.2756483E-04 Eh
   gradient norm :     0.0014753 Eh/α   predicted    -0.2004859E-04 ( -27.27%)
   displ. norm   :     0.0812421 α      lambda       -0.1805045E-04
   maximum displ.:     0.0684556 α      in ANC's #1, #2, #7, ...

........................................................................
.............................. CYCLE    6 ..............................
........................................................................

 iter      E             dE          RMSdq      gap      omega  full diag
   1    -21.1164592 -0.211165E+02  0.365E-02    6.98       0.0  T
   2    -21.1164593 -0.632579E-07  0.214E-02    6.98       1.1  T
   3    -21.1164593 -0.182559E-07  0.106E-03    6.98      22.9  T
   4    -21.1164593 -0.294885E-08  0.806E-04    6.98      30.1  T
   5    -21.1164593 -0.239201E-08  0.561E-04    6.98      43.2  T
     SCC iter.                  ...        0 min,  0.002 sec
     gradient                   ...        0 min,  0.004 sec
 * total energy  :   -20.8729566 Eh     change       -0.2030901E-04 Eh
   gradient norm :     0.0020495 Eh/α   predicted    -0.9050770E-05 ( -55.43%)
   displ. norm   :     0.0449685 α      lambda       -0.1497152E-04
   maximum displ.:     0.0367922 α      in ANC's #1, #2, #3, ...

........................................................................
.............................. CYCLE    7 ..............................
........................................................................

 iter      E             dE          RMSdq      gap      omega  full diag
   1    -21.1165680 -0.211166E+02  0.228E-02    6.97       0.0  T
   2    -21.1165680 -0.164069E-07  0.134E-02    6.97       1.8  T
   3    -21.1165680 -0.794665E-08  0.794E-04    6.97      30.5  T
   4    -21.1165680 -0.213444E-08  0.640E-04    6.97      37.9  T
     SCC iter.                  ...        0 min,  0.002 sec
     gradient                   ...        0 min,  0.004 sec
 * total energy  :   -20.8729702 Eh     change       -0.1357627E-04 Eh
   gradient norm :     0.0016273 Eh/α   predicted    -0.7499763E-05 ( -44.76%)
   displ. norm   :     0.1038275 α      lambda       -0.2106879E-04
   maximum displ.:     0.0826102 α      in ANC's #1, #2, #3, ...

........................................................................
.............................. CYCLE    8 ..............................
........................................................................

 iter      E             dE          RMSdq      gap      omega  full diag
   1    -21.1170720 -0.211171E+02  0.562E-02    6.95       0.0  T
   2    -21.1170721 -0.994167E-07  0.330E-02    6.95       1.0  T
   3    -21.1170722 -0.788048E-07  0.250E-03    6.95       9.7  T
   4    -21.1170722 -0.181364E-07  0.211E-03    6.95      11.5  T
   5    -21.1170722 -0.359169E-07  0.102E-03    6.95      23.7  T
   6    -21.1170722 -0.845221E-08  0.526E-04    6.95      46.1  T
   7    -21.1170722 -0.174187E-08  0.736E-05    6.95     329.6  T
     SCC iter.                  ...        0 min,  0.003 sec
     gradient                   ...        0 min,  0.004 sec
 * total energy  :   -20.8729947 Eh     change       -0.2452007E-04 Eh
   gradient norm :     0.0008880 Eh/α   predicted    -0.1058597E-04 ( -56.83%)
   displ. norm   :     0.0881995 α      lambda       -0.1167083E-04
   maximum displ.:     0.0716335 α      in ANC's #1, #2, #5, ...

........................................................................
.............................. CYCLE    9 ..............................
........................................................................

 iter      E             dE          RMSdq      gap      omega  full diag
   1    -21.1173210 -0.211173E+02  0.486E-02    6.94       0.0  T
   2    -21.1173211 -0.450590E-07  0.284E-02    6.94       1.0  T
   3    -21.1173211 -0.230901E-07  0.110E-03    6.94      22.1  T
   4    -21.1173211 -0.318937E-08  0.872E-04    6.94      27.8  T
   5    -21.1173211 -0.366823E-08  0.562E-04    6.94      43.1  T
     SCC iter.                  ...        0 min,  0.002 sec
     gradient                   ...        0 min,  0.004 sec
 * total energy  :   -20.8730092 Eh     change       -0.1453842E-04 Eh
   gradient norm :     0.0007418 Eh/α   predicted    -0.5856601E-05 ( -59.72%)
   displ. norm   :     0.0644013 α      lambda       -0.7217443E-05
   maximum displ.:     0.0539202 α      in ANC's #1, #2, #5, ...

........................................................................
.............................. CYCLE   10 ..............................
........................................................................

 iter      E             dE          RMSdq      gap      omega  full diag
   1    -21.1174036 -0.211174E+02  0.374E-02    6.94       0.0  T
   2    -21.1174036 -0.226210E-07  0.218E-02    6.94       1.1  T
   3    -21.1174037 -0.102541E-07  0.594E-04    6.94      40.8  T
   4    -21.1174037 -0.406470E-09  0.373E-04    6.94      65.0  T
     SCC iter.                  ...        0 min,  0.002 sec
     gradient                   ...        0 min,  0.004 sec
 * total energy  :   -20.8730186 Eh     change       -0.9334493E-05 Eh
   gradient norm :     0.0005092 Eh/α   predicted    -0.3615065E-05 ( -61.27%)
   displ. norm   :     0.0525086 α      lambda       -0.5380247E-05
   maximum displ.:     0.0450308 α      in ANC's #1, #2, #5, ...

........................................................................
.............................. CYCLE   11 ..............................
........................................................................

 iter      E             dE          RMSdq      gap      omega  full diag
   1    -21.1173774 -0.211174E+02  0.331E-02    6.94       0.0  T
   2    -21.1173774 -0.144340E-07  0.193E-02    6.94       1.3  T
   3    -21.1173774 -0.699788E-08  0.445E-04    6.94      54.6  T
   4    -21.1173774 -0.207308E-09  0.277E-04    6.94      87.5  T
     SCC iter.                  ...        0 min,  0.002 sec
     gradient                   ...        0 min,  0.004 sec
 * total energy  :   -20.8730255 Eh     change       -0.6958682E-05 Eh
   gradient norm :     0.0004367 Eh/α   predicted    -0.2691793E-05 ( -61.32%)
   displ. norm   :     0.0434835 α      lambda       -0.4185634E-05
   maximum displ.:     0.0384635 α      in ANC's #1, #2, #4, ...

........................................................................
.............................. CYCLE   12 ..............................
........................................................................

 iter      E             dE          RMSdq      gap      omega  full diag
   1    -21.1173156 -0.211173E+02  0.276E-02    6.95       0.0  T
   2    -21.1173156 -0.112855E-07  0.161E-02    6.95       1.5  T
   3    -21.1173156 -0.695859E-08  0.569E-04    6.95      42.6  T
   4    -21.1173156 -0.715836E-09  0.404E-04    6.95      60.0  T
     SCC iter.                  ...        0 min,  0.002 sec
     gradient                   ...        0 min,  0.004 sec
 * total energy  :   -20.8730311 Eh     change       -0.5514479E-05 Eh
   gradient norm :     0.0002585 Eh/α   predicted    -0.2093111E-05 ( -62.04%)
   displ. norm   :     0.0379252 α      lambda       -0.3318724E-05
   maximum displ.:     0.0342052 α      in ANC's #1, #2, #4, ...

........................................................................
.............................. CYCLE   13 ..............................
........................................................................

 iter      E             dE          RMSdq      gap      omega  full diag
   1    -21.1172949 -0.211173E+02  0.227E-02    6.95       0.0  T
   2    -21.1172949 -0.827294E-08  0.133E-02    6.95       1.8  T
   3    -21.1172949 -0.583936E-08  0.563E-04    6.95      43.1  T
   4    -21.1172949 -0.972282E-09  0.391E-04    6.95      62.0  T
     SCC iter.                  ...        0 min,  0.002 sec
     gradient                   ...        0 min,  0.004 sec
 * total energy  :   -20.8730356 Eh     change       -0.4508358E-05 Eh
   gradient norm :     0.0002222 Eh/α   predicted    -0.1660206E-05 ( -63.17%)
   displ. norm   :     0.0342589 α      lambda       -0.2869760E-05
   maximum displ.:     0.0307333 α      in ANC's #1, #3, #4, ...

........................................................................
.............................. CYCLE   14 ..............................
........................................................................

 iter      E             dE          RMSdq      gap      omega  full diag
   1    -21.1173019 -0.211173E+02  0.176E-02    6.95       0.0  T
   2    -21.1173019 -0.502475E-08  0.103E-02    6.95       2.4  T
   3    -21.1173019 -0.184955E-08  0.275E-04    6.95      88.3  T
   4    -21.1173019 -0.232571E-09  0.162E-04    6.95     149.4  T
     SCC iter.                  ...        0 min,  0.002 sec
     gradient                   ...        0 min,  0.004 sec
 * total energy  :   -20.8730395 Eh     change       -0.3939616E-05 Eh
   gradient norm :     0.0002231 Eh/α   predicted    -0.1434495E-05 ( -63.59%)
   displ. norm   :     0.0332106 α      lambda       -0.2649075E-05
   maximum displ.:     0.0290729 α      in ANC's #1, #3, #4, ...

........................................................................
.............................. CYCLE   15 ..............................
........................................................................

 iter      E             dE          RMSdq      gap      omega  full diag
   1    -21.1172959 -0.211173E+02  0.134E-02    6.95       0.0  T
   2    -21.1172959 -0.267370E-08  0.786E-03    6.95       3.1  T
   3    -21.1172959 -0.141181E-08  0.239E-04    6.95     101.3  T
   4    -21.1172959 -0.468070E-10  0.117E-04    6.95     207.7  T
     SCC iter.                  ...        0 min,  0.002 sec
     gradient                   ...        0 min,  0.004 sec
 * total energy  :   -20.8730432 Eh     change       -0.3649333E-05 Eh
   gradient norm :     0.0002019 Eh/α   predicted    -0.1325291E-05 ( -63.68%)
   displ. norm   :     0.0333198 α      lambda       -0.2440331E-05
   maximum displ.:     0.0286621 α      in ANC's #1, #3, #5, ...

........................................................................
.............................. CYCLE   16 ..............................
........................................................................

 iter      E             dE          RMSdq      gap      omega  full diag
   1    -21.1173081 -0.211173E+02  0.109E-02    6.95       0.0  T
   2    -21.1173081 -0.241300E-08  0.644E-03    6.95       3.8  T
   3    -21.1173081 -0.850591E-09  0.219E-04    6.95     110.6  T
   4    -21.1173081 -0.145125E-09  0.128E-04    6.95     190.2  T
     SCC iter.                  ...        0 min,  0.002 sec
     gradient                   ...        0 min,  0.004 sec
 * total energy  :   -20.8730465 Eh     change       -0.3326646E-05 Eh
   gradient norm :     0.0001750 Eh/α   predicted    -0.1219845E-05 ( -63.33%)
   displ. norm   :     0.0312336 α      lambda       -0.2061233E-05
   maximum displ.:     0.0268243 α      in ANC's #1, #2, #3, ...

........................................................................
.............................. CYCLE   17 ..............................
........................................................................

 iter      E             dE          RMSdq      gap      omega  full diag
   1    -21.1173099 -0.211173E+02  0.925E-03    6.95       0.0  T
   2    -21.1173099 -0.191600E-08  0.547E-03    6.95       4.4  T
   3    -21.1173099 -0.777920E-09  0.207E-04    6.95     117.4  T
   4    -21.1173099 -0.100744E-09  0.138E-04    6.95     176.3  T
     SCC iter.                  ...        0 min,  0.002 sec
     gradient                   ...        0 min,  0.004 sec
 * total energy  :   -20.8730493 Eh     change       -0.2779428E-05 Eh
   gradient norm :     0.0001623 Eh/α   predicted    -0.1030001E-05 ( -62.94%)
   displ. norm   :     0.0269234 α      lambda       -0.1616452E-05
   maximum displ.:     0.0235452 α      in ANC's #1, #2, #3, ...

........................................................................
.............................. CYCLE   18 ..............................
........................................................................

 iter      E             dE          RMSdq      gap      omega  full diag
   1    -21.1173135 -0.211173E+02  0.814E-03    6.95       0.0  T
   2    -21.1173135 -0.142926E-08  0.481E-03    6.95       5.0  T
   3    -21.1173135 -0.614857E-09  0.186E-04    6.95     130.1  T
   4    -21.1173135 -0.105832E-09  0.126E-04    6.95     192.8  T
     SCC iter.                  ...        0 min,  0.002 sec
     gradient                   ...        0 min,  0.004 sec
 * total energy  :   -20.8730515 Eh     change       -0.2208863E-05 Eh
   gradient norm :     0.0001253 Eh/α   predicted    -0.8079061E-06 ( -63.42%)
   displ. norm   :     0.0227062 α      lambda       -0.1256425E-05
   maximum displ.:     0.0201900 α      in ANC's #1, #2, #5, ...

........................................................................
.............................. CYCLE   19 ..............................
........................................................................

 iter      E             dE          RMSdq      gap      omega  full diag
   1    -21.1173264 -0.211173E+02  0.707E-03    6.95       0.0  T
   2    -21.1173264 -0.109639E-08  0.416E-03    6.95       5.8  T
   3    -21.1173264 -0.444871E-09  0.153E-04    6.95     158.8  T
   4    -21.1173264 -0.639666E-10  0.103E-04    6.95     236.4  T
     SCC iter.                  ...        0 min,  0.002 sec
     gradient                   ...        0 min,  0.004 sec
 * total energy  :   -20.8730532 Eh     change       -0.1756283E-05 Eh
   gradient norm :     0.0001044 Eh/α   predicted    -0.6290002E-06 ( -64.19%)
   displ. norm   :     0.0197622 α      lambda       -0.1049795E-05
   maximum displ.:     0.0179973 α      in ANC's #1, #2, #4, ...

........................................................................
.............................. CYCLE   20 ..............................
........................................................................

 iter      E             dE          RMSdq      gap      omega  full diag
   1    -21.1173298 -0.211173E+02  0.605E-03    6.95       0.0  T
   2    -21.1173298 -0.870767E-09  0.356E-03    6.95       6.8  T
   3    -21.1173298 -0.418066E-09  0.156E-04    6.95     155.2  T
   4    -21.1173298 -0.724434E-10  0.116E-04    6.95     208.5  T
     SCC iter.                  ...        0 min,  0.002 sec
     gradient                   ...        0 min,  0.004 sec
 * total energy  :   -20.8730547 Eh     change       -0.1471251E-05 Eh
   gradient norm :     0.0000961 Eh/α   predicted    -0.5260696E-06 ( -64.24%)
   displ. norm   :     0.0178468 α      lambda       -0.9012465E-06
   maximum displ.:     0.0165189 α      in ANC's #1, #2, #4, ...
 * RMSD in coord.:     0.2128067 α      energy gain  -0.1466796E-02 Eh

generating ANC from exact Hessian ...
Using Lindh-Hessian (1995)
 Shifting diagonal of input Hessian by   8.074841985097267E-003
 Lowest  eigenvalues of input Hessian
    0.000000    0.000000    0.000000    0.000000    0.000000    0.000000
    0.010000    0.011872    0.013267    0.016608    0.018959    0.022438
    0.030590    0.039465    0.049754    0.058623    0.059678    0.061911
 Highest eigenvalues
    1.148495    1.163602    1.185517    1.235574    1.260767    1.287292
 

........................................................................
.............................. CYCLE   21 ..............................
........................................................................

 iter      E             dE          RMSdq      gap      omega  full diag
   1    -21.1173356 -0.211173E+02  0.565E-03    6.95       0.0  T
   2    -21.1173356 -0.701075E-09  0.332E-03    6.95       7.3  T
   3    -21.1173356 -0.302027E-09  0.115E-04    6.95     210.1  T
   4    -21.1173356 -0.357012E-10  0.760E-05    6.95     319.3  T
     SCC iter.                  ...        0 min,  0.002 sec
     gradient                   ...        0 min,  0.004 sec
 * total energy  :   -20.8730559 Eh     change       -0.1250357E-05 Eh
   gradient norm :     0.0000899 Eh/α   predicted     0.0000000E+00 (-100.00%)
   displ. norm   :     0.0108279 α      lambda       -0.5402885E-06
   maximum displ.:     0.0105818 α      in ANC's #1, #2, #5, ...

........................................................................
.............................. CYCLE   22 ..............................
........................................................................

 iter      E             dE          RMSdq      gap      omega  full diag
   1    -21.1173396 -0.211173E+02  0.464E-03    6.95       0.0  T
   2    -21.1173396 -0.368388E-09  0.271E-03    6.95       8.9  T
   3    -21.1173396 -0.155598E-09  0.654E-05    6.95     370.7  T
   4    -21.1173396 -0.553868E-11  0.376E-05    6.95     644.6  T
     SCC iter.                  ...        0 min,  0.002 sec
     gradient                   ...        0 min,  0.004 sec
 * total energy  :   -20.8730567 Eh     change       -0.7749592E-06 Eh
   gradient norm :     0.0000787 Eh/α   predicted    -0.2712059E-06 ( -65.00%)
   displ. norm   :     0.0121964 α      lambda       -0.5769733E-06
   maximum displ.:     0.0113246 α      in ANC's #1, #2, #5, ...

........................................................................
.............................. CYCLE   23 ..............................
........................................................................

 iter      E             dE          RMSdq      gap      omega  full diag
   1    -21.1173401 -0.211173E+02  0.631E-03    6.95       0.0  T
   2    -21.1173401 -0.567947E-09  0.369E-03    6.95       6.6  T
   3    -21.1173401 -0.260833E-09  0.821E-05    6.95     295.3  T
   4    -21.1173401 -0.923350E-11  0.481E-05    6.95     504.5  T
     SCC iter.                  ...        0 min,  0.002 sec
     gradient                   ...        0 min,  0.004 sec
 * total energy  :   -20.8730575 Eh     change       -0.8303344E-06 Eh
   gradient norm :     0.0000723 Eh/α   predicted    -0.2874656E-06 ( -65.38%)
   displ. norm   :     0.0147000 α      lambda       -0.6401657E-06
   maximum displ.:     0.0130945 α      in ANC's #1, #2, #5, ...

........................................................................
.............................. CYCLE   24 ..............................
........................................................................

 iter      E             dE          RMSdq      gap      omega  full diag
   1    -21.1173406 -0.211173E+02  0.801E-03    6.95       0.0  T
   2    -21.1173406 -0.850218E-09  0.468E-03    6.95       5.2  T
   3    -21.1173406 -0.412964E-09  0.105E-04    6.95     231.0  T
   4    -21.1173406 -0.737543E-11  0.570E-05    6.95     425.2  T
     SCC iter.                  ...        0 min,  0.002 sec
     gradient                   ...        0 min,  0.004 sec
 * total energy  :   -20.8730585 Eh     change       -0.9100203E-06 Eh
   gradient norm :     0.0000676 Eh/α   predicted    -0.3190854E-06 ( -64.94%)
   displ. norm   :     0.0162020 α      lambda       -0.6366796E-06
   maximum displ.:     0.0142640 α      in ANC's #1, #2, #5, ...

........................................................................
.............................. CYCLE   25 ..............................
........................................................................

 iter      E             dE          RMSdq      gap      omega  full diag
   1    -21.1173441 -0.211173E+02  0.917E-03    6.95       0.0  T
   2    -21.1173441 -0.113851E-08  0.535E-03    6.95       4.5  T
   3    -21.1173441 -0.532133E-09  0.123E-04    6.95     197.7  T
   4    -21.1173441 -0.254303E-10  0.777E-05    6.95     312.1  T
     SCC iter.                  ...        0 min,  0.002 sec
     gradient                   ...        0 min,  0.004 sec
 * total energy  :   -20.8730594 Eh     change       -0.9090257E-06 Eh
   gradient norm :     0.0000655 Eh/α   predicted    -0.3198307E-06 ( -64.82%)
   displ. norm   :     0.0159032 α      lambda       -0.5773040E-06
   maximum displ.:     0.0140138 α      in ANC's #1, #2, #5, ...

........................................................................
.............................. CYCLE   26 ..............................
........................................................................

 iter      E             dE          RMSdq      gap      omega  full diag
   1    -21.1173444 -0.211173E+02  0.904E-03    6.95       0.0  T
   2    -21.1173444 -0.103335E-08  0.528E-03    6.95       4.6  T
   3    -21.1173444 -0.517996E-09  0.115E-04    6.95     211.5  T
   4    -21.1173444 -0.107612E-10  0.649E-05    6.95     373.4  T
     SCC iter.                  ...        0 min,  0.002 sec
     gradient                   ...        0 min,  0.004 sec
 * total energy  :   -20.8730602 Eh     change       -0.8197545E-06 Eh
   gradient norm :     0.0000614 Eh/α   predicted    -0.2880590E-06 ( -64.86%)
   displ. norm   :     0.0142931 α      lambda       -0.4871032E-06
   maximum displ.:     0.0127763 α      in ANC's #1, #2, #5, ...

........................................................................
.............................. CYCLE   27 ..............................
........................................................................

 iter      E             dE          RMSdq      gap      omega  full diag
   1    -21.1173489 -0.211173E+02  0.802E-03    6.95       0.0  T
   2    -21.1173489 -0.898542E-09  0.468E-03    6.95       5.2  T
   3    -21.1173489 -0.418403E-09  0.116E-04    6.95     209.4  T
   4    -21.1173489 -0.324611E-10  0.803E-05    6.95     302.1  T
     SCC iter.                  ...        0 min,  0.002 sec
     gradient                   ...        0 min,  0.004 sec
 * total energy  :   -20.8730609 Eh     change       -0.6917785E-06 Eh
   gradient norm :     0.0000591 Eh/α   predicted    -0.2424396E-06 ( -64.95%)
   displ. norm   :     0.0121883 α      lambda       -0.3939791E-06
   maximum displ.:     0.0111690 α      in ANC's #1, #2, #5, ...

........................................................................
.............................. CYCLE   28 ..............................
........................................................................

 iter      E             dE          RMSdq      gap      omega  full diag
   1    -21.1173500 -0.211173E+02  0.671E-03    6.95       0.0  T
   2    -21.1173500 -0.566768E-09  0.391E-03    6.95       6.2  T
   3    -21.1173500 -0.285638E-09  0.833E-05    6.95     291.1  T
   4    -21.1173500 -0.535039E-11  0.462E-05    6.95     525.0  T
     SCC iter.                  ...        0 min,  0.002 sec
     gradient                   ...        0 min,  0.004 sec
 * total energy  :   -20.8730614 Eh     change       -0.5686054E-06 Eh
   gradient norm :     0.0000563 Eh/α   predicted    -0.1979449E-06 ( -65.19%)
   displ. norm   :     0.0102669 α      lambda       -0.3280675E-06
   maximum displ.:     0.0096805 α      in ANC's #1, #2, #3, ...

........................................................................
.............................. CYCLE   29 ..............................
........................................................................

 iter      E             dE          RMSdq      gap      omega  full diag
   1    -21.1173508 -0.211174E+02  0.534E-03    6.95       0.0  T
   2    -21.1173508 -0.410594E-09  0.312E-03    6.95       7.8  T
   3    -21.1173508 -0.180574E-09  0.740E-05    6.95     327.9  T
   4    -21.1173508 -0.140510E-10  0.488E-05    6.95     497.0  T
     SCC iter.                  ...        0 min,  0.002 sec
     gradient                   ...        0 min,  0.004 sec
 * total energy  :   -20.8730619 Eh     change       -0.4740058E-06 Eh
   gradient norm :     0.0000523 Eh/α   predicted    -0.1633381E-06 ( -65.54%)
   displ. norm   :     0.0089459 α      lambda       -0.2798902E-06
   maximum displ.:     0.0086060 α      in ANC's #1, #2, #3, ...

........................................................................
.............................. CYCLE   30 ..............................
........................................................................

 iter      E             dE          RMSdq      gap      omega  full diag
   1    -21.1173535 -0.211174E+02  0.427E-03    6.95       0.0  T
   2    -21.1173535 -0.252054E-09  0.249E-03    6.95       9.7  T
   3    -21.1173535 -0.120401E-09  0.581E-05    6.95     417.2  T
   4    -21.1173535 -0.350298E-11  0.355E-05    6.95     683.5  T
     SCC iter.                  ...        0 min,  0.002 sec
     gradient                   ...        0 min,  0.004 sec
 * total energy  :   -20.8730623 Eh     change       -0.4148666E-06 Eh
   gradient norm :     0.0000499 Eh/α   predicted    -0.1417804E-06 ( -65.83%)
   displ. norm   :     0.0083455 α      lambda       -0.2655394E-06
   maximum displ.:     0.0080575 α      in ANC's #1, #3, #4, ...

........................................................................
.............................. CYCLE   31 ..............................
........................................................................

 iter      E             dE          RMSdq      gap      omega  full diag
   1    -21.1173535 -0.211174E+02  0.354E-03    6.95       0.0  T
   2    -21.1173535 -0.197396E-09  0.207E-03    6.95      11.7  T
   3    -21.1173535 -0.837481E-10  0.530E-05    6.95     457.8  T
   4    -21.1173535 -0.602185E-11  0.323E-05    6.95     751.1  T
     SCC iter.                  ...        0 min,  0.002 sec
     gradient                   ...        0 min,  0.004 sec
 * total energy  :   -20.8730627 Eh     change       -0.3864943E-06 Eh
   gradient norm :     0.0000481 Eh/α   predicted    -0.1316788E-06 ( -65.93%)
   displ. norm   :     0.0083782 α      lambda       -0.2591892E-06
   maximum displ.:     0.0079770 α      in ANC's #1, #3, #4, ...

........................................................................
.............................. CYCLE   32 ..............................
........................................................................

 iter      E             dE          RMSdq      gap      omega  full diag
   1    -21.1173550 -0.211174E+02  0.309E-03    6.95       0.0  T
   2    -21.1173550 -0.157279E-09  0.181E-03    6.95      13.4  T
   3    -21.1173550 -0.679563E-10  0.494E-05    6.95     491.0  T
   4    -21.1173550 -0.378009E-11  0.289E-05    6.95     838.7  T
     SCC iter.                  ...        0 min,  0.002 sec
     gradient                   ...        0 min,  0.004 sec
 * total energy  :   -20.8730631 Eh     change       -0.3782865E-06 Eh
   gradient norm :     0.0000464 Eh/α   predicted    -0.1292049E-06 ( -65.84%)
   displ. norm   :     0.0087241 α      lambda       -0.2593716E-06
   maximum displ.:     0.0081510 α      in ANC's #1, #3, #2, ...

........................................................................
.............................. CYCLE   33 ..............................
........................................................................

 iter      E             dE          RMSdq      gap      omega  full diag
   1    -21.1173557 -0.211174E+02  0.293E-03    6.95       0.0  T
   2    -21.1173557 -0.166754E-09  0.172E-03    6.95      14.1  T
   3    -21.1173557 -0.644853E-10  0.534E-05    6.95     454.5  T
   4    -21.1173557 -0.735056E-11  0.317E-05    6.95     765.2  T
     SCC iter.                  ...        0 min,  0.002 sec
     gradient                   ...        0 min,  0.004 sec
 * total energy  :   -20.8730635 Eh     change       -0.3750308E-06 Eh
   gradient norm :     0.0000446 Eh/α   predicted    -0.1287811E-06 ( -65.66%)
   displ. norm   :     0.0089965 α      lambda       -0.2497675E-06
   maximum displ.:     0.0083111 α      in ANC's #1, #3, #2, ...

........................................................................
.............................. CYCLE   34 ..............................
........................................................................

 iter      E             dE          RMSdq      gap      omega  full diag
   1    -21.1173562 -0.211174E+02  0.284E-03    6.95       0.0  T
   2    -21.1173562 -0.147992E-09  0.167E-03    6.95      14.5  T
   3    -21.1173562 -0.639524E-10  0.518E-05    6.95     468.4  T
   4    -21.1173562 -0.445510E-11  0.303E-05    6.95     801.6  T
     SCC iter.                  ...        0 min,  0.002 sec
     gradient                   ...        0 min,  0.004 sec
 * total energy  :   -20.8730638 Eh     change       -0.3634681E-06 Eh
   gradient norm :     0.0000427 Eh/α   predicted    -0.1255398E-06 ( -65.46%)
   displ. norm   :     0.0089056 α      lambda       -0.2332001E-06
   maximum displ.:     0.0082117 α      in ANC's #1, #2, #3, ...

........................................................................
.............................. CYCLE   35 ..............................
........................................................................

 iter      E             dE          RMSdq      gap      omega  full diag
   1    -21.1173572 -0.211174E+02  0.274E-03    6.95       0.0  T
   2    -21.1173572 -0.167329E-09  0.162E-03    6.95      15.0  T
   3    -21.1173572 -0.603890E-10  0.552E-05    6.95     439.0  T
   4    -21.1173572 -0.954614E-11  0.336E-05    6.95     722.7  T
     SCC iter.                  ...        0 min,  0.002 sec
     gradient                   ...        0 min,  0.004 sec
 * total energy  :   -20.8730642 Eh     change       -0.3364947E-06 Eh
   gradient norm :     0.0000408 Eh/α   predicted    -0.1165448E-06 ( -65.37%)
   displ. norm   :     0.0082899 α      lambda       -0.2052157E-06
   maximum displ.:     0.0077422 α      in ANC's #1, #2, #3, ...

........................................................................
.............................. CYCLE   36 ..............................
........................................................................

 iter      E             dE          RMSdq      gap      omega  full diag
   1    -21.1173579 -0.211174E+02  0.261E-03    6.95       0.0  T
   2    -21.1173579 -0.125510E-09  0.153E-03    6.95      15.8  T
   3    -21.1173579 -0.554827E-10  0.473E-05    6.95     512.5  T
   4    -21.1173579 -0.345324E-11  0.278E-05    6.95     872.7  T
     SCC iter.                  ...        0 min,  0.002 sec
     gradient                   ...        0 min,  0.004 sec
 * total energy  :   -20.8730645 Eh     change       -0.2966629E-06 Eh
   gradient norm :     0.0000388 Eh/α   predicted    -0.1025320E-06 ( -65.44%)
   displ. norm   :     0.0074017 α      lambda       -0.1719593E-06
   maximum displ.:     0.0070376 α      in ANC's #1, #2, #3, ...

........................................................................
.............................. CYCLE   37 ..............................
........................................................................

 iter      E             dE          RMSdq      gap      omega  full diag
   1    -21.1173586 -0.211174E+02  0.235E-03    6.95       0.0  T
   2    -21.1173586 -0.118519E-09  0.138E-03    6.95      17.5  T
   3    -21.1173586 -0.414921E-10  0.446E-05    6.95     544.2  T
   4    -21.1173586 -0.689226E-11  0.266E-05    6.95     912.8  T
     SCC iter.                  ...        0 min,  0.002 sec
     gradient                   ...        0 min,  0.004 sec
 * total energy  :   -20.8730647 Eh     change       -0.2546893E-06 Eh
   gradient norm :     0.0000372 Eh/α   predicted    -0.8755800E-07 ( -65.62%)
   displ. norm   :     0.0064820 α      lambda       -0.1499622E-06
   maximum displ.:     0.0062980 α      in ANC's #1, #3, #2, ...

........................................................................
.............................. CYCLE   38 ..............................
........................................................................

 iter      E             dE          RMSdq      gap      omega  full diag
   1    -21.1173595 -0.211174E+02  0.225E-03    6.95       0.0  T
   2    -21.1173595 -0.886544E-10  0.132E-03    6.95      18.4  T
   3    -21.1173595 -0.383018E-10  0.362E-05    6.95     670.0  T
   4    -21.1173595 -0.214939E-11  0.213E-05    6.95    1140.4  T
     SCC iter.                  ...        0 min,  0.002 sec
     gradient                   ...        0 min,  0.004 sec
 * total energy  :   -20.8730649 Eh     change       -0.2191412E-06 Eh
   gradient norm :     0.0000360 Eh/α   predicted    -0.7482970E-07 ( -65.85%)
   displ. norm   :     0.0057987 α      lambda       -0.1348432E-06
   maximum displ.:     0.0057189 α      in ANC's #1, #3, #7, ...

........................................................................
.............................. CYCLE   39 ..............................
........................................................................

 iter      E             dE          RMSdq      gap      omega  full diag
   1    -21.1173602 -0.211174E+02  0.217E-03    6.95       0.0  T
   2    -21.1173602 -0.825864E-10  0.127E-03    6.95      19.1  T
   3    -21.1173602 -0.322871E-10  0.340E-05    6.95     714.1  T
   4    -21.1173602 -0.337863E-11  0.202E-05    6.95    1201.8  T
     SCC iter.                  ...        0 min,  0.002 sec
     gradient                   ...        0 min,  0.004 sec
 * total energy  :   -20.8730651 Eh     change       -0.1946848E-06 Eh
   gradient norm :     0.0000347 Eh/α   predicted    -0.6613559E-07 ( -66.03%)
   displ. norm   :     0.0054804 α      lambda       -0.1202577E-06
   maximum displ.:     0.0054014 α      in ANC's #1, #3, #2, ...

........................................................................
.............................. CYCLE   40 ..............................
........................................................................

 iter      E             dE          RMSdq      gap      omega  full diag
   1    -21.1173605 -0.211174E+02  0.233E-03    6.95       0.0  T
   2    -21.1173605 -0.843841E-10  0.137E-03    6.95      17.8  T
   3    -21.1173605 -0.368878E-10  0.328E-05    6.95     739.3  T
   4    -21.1173605 -0.202860E-11  0.201E-05    6.95    1207.7  T
     SCC iter.                  ...        0 min,  0.002 sec
     gradient                   ...        0 min,  0.004 sec
 * total energy  :   -20.8730653 Eh     change       -0.1817329E-06 Eh
   gradient norm :     0.0000340 Eh/α   predicted    -0.6160803E-07 ( -66.10%)
   displ. norm   :     0.0054747 α      lambda       -0.1228881E-06
   maximum displ.:     0.0053280 α      in ANC's #1, #2, #3, ...

........................................................................
.............................. CYCLE   41 ..............................
........................................................................

 iter      E             dE          RMSdq      gap      omega  full diag
   1    -21.1173614 -0.211174E+02  0.257E-03    6.95       0.0  T
   2    -21.1173614 -0.971845E-10  0.150E-03    6.95      16.1  T
   3    -21.1173614 -0.429665E-10  0.350E-05    6.95     692.6  T
   4    -21.1173614 -0.241940E-11  0.218E-05    6.95    1114.5  T
     SCC iter.                  ...        0 min,  0.002 sec
     gradient                   ...        0 min,  0.004 sec
 * total energy  :   -20.8730655 Eh     change       -0.1772594E-06 Eh
   gradient norm :     0.0000333 Eh/α   predicted    -0.6019322E-07 ( -66.04%)
   displ. norm   :     0.0057429 α      lambda       -0.1212670E-06
   maximum displ.:     0.0054660 α      in ANC's #1, #2, #5, ...

........................................................................
.............................. CYCLE   42 ..............................
........................................................................

 iter      E             dE          RMSdq      gap      omega  full diag
   1    -21.1173618 -0.211174E+02  0.292E-03    6.95       0.0  T
   2    -21.1173618 -0.118927E-09  0.171E-03    6.95      14.2  T
   3    -21.1173618 -0.539693E-10  0.382E-05    6.95     634.6  T
   4    -21.1173618 -0.273559E-11  0.240E-05    6.95    1011.6  T
     SCC iter.                  ...        0 min,  0.002 sec
     gradient                   ...        0 min,  0.004 sec
 * total energy  :   -20.8730657 Eh     change       -0.1783740E-06 Eh
   gradient norm :     0.0000323 Eh/α   predicted    -0.6081141E-07 ( -65.91%)
   displ. norm   :     0.0060555 α      lambda       -0.1210123E-06
   maximum displ.:     0.0056575 α      in ANC's #1, #2, #5, ...
 * RMSD in coord.:     0.0480997 α      energy gain  -0.1098603E-04 Eh

generating ANC from exact Hessian ...
Using Lindh-Hessian (1995)
 Shifting diagonal of input Hessian by   8.096923447743756E-003
 Lowest  eigenvalues of input Hessian
    0.000000    0.000000    0.000000    0.000000    0.000000    0.000000
    0.010000    0.011872    0.013311    0.016599    0.018952    0.022480
    0.030496    0.039328    0.049851    0.058773    0.059687    0.061995
 Highest eigenvalues
    1.148158    1.163564    1.186203    1.235572    1.260126    1.287730
 

........................................................................
.............................. CYCLE   43 ..............................
........................................................................

 iter      E             dE          RMSdq      gap      omega  full diag
   1    -21.1173619 -0.211174E+02  0.325E-03    6.95       0.0  T
   2    -21.1173619 -0.143640E-09  0.190E-03    6.95      12.8  T
   3    -21.1173619 -0.680771E-10  0.428E-05    6.95     566.6  T
   4    -21.1173619 -0.255085E-11  0.270E-05    6.95     899.8  T
     SCC iter.                  ...        0 min,  0.002 sec
     gradient                   ...        0 min,  0.004 sec
 * total energy  :   -20.8730659 Eh     change       -0.1787022E-06 Eh
   gradient norm :     0.0000305 Eh/α   predicted     0.0000000E+00 (-100.00%)
   displ. norm   :     0.0044898 α      lambda       -0.8734400E-07
   maximum displ.:     0.0044762 α      in ANC's #1, #2, #5, ...

........................................................................
.............................. CYCLE   44 ..............................
........................................................................

 iter      E             dE          RMSdq      gap      omega  full diag
   1    -21.1173623 -0.211174E+02  0.177E-03    6.95       0.0  T
   2    -21.1173623 -0.531664E-10  0.104E-03    6.95      23.4  T
   3    -21.1173623 -0.229718E-10  0.259E-05    6.95     936.6  T
   4    -21.1173623 -0.116884E-11  0.154E-05    6.95    1575.0  T
     SCC iter.                  ...        0 min,  0.002 sec
     gradient                   ...        0 min,  0.004 sec
 * total energy  :   -20.8730660 Eh     change       -0.1306396E-06 Eh
   gradient norm :     0.0000299 Eh/α   predicted    -0.4495964E-07 ( -65.58%)
   displ. norm   :     0.0045197 α      lambda       -0.8548164E-07
   maximum displ.:     0.0044227 α      in ANC's #1, #2, #3, ...

........................................................................
.............................. CYCLE   45 ..............................
........................................................................

 iter      E             dE          RMSdq      gap      omega  full diag
   1    -21.1173621 -0.211174E+02  0.208E-03    6.95       0.0  T
   2    -21.1173621 -0.654126E-10  0.122E-03    6.95      19.9  T
   3    -21.1173621 -0.289937E-10  0.283E-05    6.95     855.7  T
   4    -21.1173621 -0.169820E-11  0.176E-05    6.95    1381.1  T
     SCC iter.                  ...        0 min,  0.002 sec
     gradient                   ...        0 min,  0.004 sec
 * total energy  :   -20.8730661 Eh     change       -0.1284707E-06 Eh
   gradient norm :     0.0000289 Eh/α   predicted    -0.4358014E-07 ( -66.08%)
   displ. norm   :     0.0048925 α      lambda       -0.9314417E-07
   maximum displ.:     0.0046744 α      in ANC's #1, #2, #3, ...

........................................................................
.............................. CYCLE   46 ..............................
........................................................................

 iter      E             dE          RMSdq      gap      omega  full diag
   1    -21.1173631 -0.211174E+02  0.239E-03    6.94       0.0  T
   2    -21.1173631 -0.820570E-10  0.139E-03    6.94      17.4  T
   3    -21.1173631 -0.379181E-10  0.336E-05    6.94     722.3  T
   4    -21.1173631 -0.169464E-11  0.211E-05    6.94    1151.7  T
     SCC iter.                  ...        0 min,  0.002 sec
     gradient                   ...        0 min,  0.004 sec
 * total energy  :   -20.8730662 Eh     change       -0.1332827E-06 Eh
   gradient norm :     0.0000274 Eh/α   predicted    -0.4542312E-07 ( -65.92%)
   displ. norm   :     0.0051915 α      lambda       -0.8963732E-07
   maximum displ.:     0.0049000 α      in ANC's #1, #2, #3, ...

........................................................................
.............................. CYCLE   47 ..............................
........................................................................

 iter      E             dE          RMSdq      gap      omega  full diag
   1    -21.1173636 -0.211174E+02  0.270E-03    6.94       0.0  T
   2    -21.1173636 -0.102194E-09  0.158E-03    6.94      15.4  T
   3    -21.1173636 -0.480291E-10  0.370E-05    6.94     656.4  T
   4    -21.1173636 -0.187583E-11  0.231E-05    6.94    1051.9  T
     SCC iter.                  ...        0 min,  0.002 sec
     gradient                   ...        0 min,  0.004 sec
 * total energy  :   -20.8730664 Eh     change       -0.1344587E-06 Eh
   gradient norm :     0.0000269 Eh/α   predicted    -0.4590325E-07 ( -65.86%)
   displ. norm   :     0.0052046 α      lambda       -0.8617475E-07
   maximum displ.:     0.0049139 α      in ANC's #1, #2, #3, ...

........................................................................
.............................. CYCLE   48 ..............................
........................................................................

 iter      E             dE          RMSdq      gap      omega  full diag
   1    -21.1173645 -0.211174E+02  0.274E-03    6.94       0.0  T
   2    -21.1173645 -0.104155E-09  0.160E-03    6.94      15.2  T
   3    -21.1173645 -0.486118E-10  0.373E-05    6.94     650.9  T
   4    -21.1173645 -0.222755E-11  0.236E-05    6.94    1026.1  T
     SCC iter.                  ...        0 min,  0.002 sec
     gradient                   ...        0 min,  0.004 sec
 * total energy  :   -20.8730665 Eh     change       -0.1295057E-06 Eh
   gradient norm :     0.0000265 Eh/α   predicted    -0.4416513E-07 ( -65.90%)
   displ. norm   :     0.0050064 α      lambda       -0.8165708E-07
   maximum displ.:     0.0047431 α      in ANC's #1, #2, #3, ...

........................................................................
.............................. CYCLE   49 ..............................
........................................................................

 iter      E             dE          RMSdq      gap      omega  full diag
   1    -21.1173651 -0.211174E+02  0.262E-03    6.94       0.0  T
   2    -21.1173651 -0.916209E-10  0.153E-03    6.94      15.9  T
   3    -21.1173651 -0.440536E-10  0.348E-05    6.94     697.2  T
   4    -21.1173651 -0.159162E-11  0.218E-05    6.94    1111.2  T
     SCC iter.                  ...        0 min,  0.002 sec
     gradient                   ...        0 min,  0.004 sec
 * total energy  :   -20.8730666 Eh     change       -0.1201980E-06 Eh
   gradient norm :     0.0000257 Eh/α   predicted    -0.4099094E-07 ( -65.90%)
   displ. norm   :     0.0046907 α      lambda       -0.7211342E-07
   maximum displ.:     0.0044867 α      in ANC's #1, #2, #3, ...

........................................................................
.............................. CYCLE   50 ..............................
........................................................................

 iter      E             dE          RMSdq      gap      omega  full diag
   1    -21.1173652 -0.211174E+02  0.243E-03    6.94       0.0  T
   2    -21.1173652 -0.839755E-10  0.142E-03    6.94      17.1  T
   3    -21.1173652 -0.377050E-10  0.329E-05    6.94     737.8  T
   4    -21.1173652 -0.237677E-11  0.209E-05    6.94    1161.4  T
     SCC iter.                  ...        0 min,  0.002 sec
     gradient                   ...        0 min,  0.004 sec
 * total energy  :   -20.8730667 Eh     change       -0.1093849E-06 Eh
   gradient norm :     0.0000253 Eh/α   predicted    -0.3730678E-07 ( -65.89%)
   displ. norm   :     0.0043673 α      lambda       -0.6465456E-07
   maximum displ.:     0.0042158 α      in ANC's #1, #2, #3, ...

........................................................................
.............................. CYCLE   51 ..............................
........................................................................

 iter      E             dE          RMSdq      gap      omega  full diag
   1    -21.1173657 -0.211174E+02  0.213E-03    6.94       0.0  T
   2    -21.1173657 -0.628475E-10  0.124E-03    6.94      19.5  T
   3    -21.1173657 -0.293703E-10  0.287E-05    6.94     846.1  T
   4    -21.1173657 -0.114753E-11  0.180E-05    6.94    1351.0  T
     SCC iter.                  ...        0 min,  0.002 sec
     gradient                   ...        0 min,  0.004 sec
 * total energy  :   -20.8730668 Eh     change       -0.9928533E-07 Eh
   gradient norm :     0.0000243 Eh/α   predicted    -0.3382247E-07 ( -65.93%)
   displ. norm   :     0.0040702 α      lambda       -0.6014114E-07
   maximum displ.:     0.0039682 α      in ANC's #1, #3, #2, ...

   *** GEOMETRY OPTIMIZATION CONVERGED AFTER 51 ITERATIONS ***

------------------------------------------------------------------------
 total energy gain   :        -0.0014789 Eh       -0.9281 kcal/mol
 total RMSD          :         0.2682029 a0        0.1419 Å
 total power (kW/mol):        -0.0761367 (step)   -8.6167 (real)
------------------------------------------------------------------------

 ANCopt (total)                0 d,  0 h,  0 min,  0.451 sec
 optimizer setup                ...        0 min,  0.000 sec (  0.065%)
 model hessian                  ...        0 min,  0.021 sec (  4.709%)
 ANC generation                 ...        0 min,  0.001 sec (  0.239%)
 coordinate transformation      ...        0 min,  0.000 sec (  0.072%)
 single point calculation       ...        0 min,  0.409 sec ( 90.743%)
 optimization log               ...        0 min,  0.010 sec (  2.157%)
 hessian update                 ...        0 min,  0.000 sec (  0.075%)
 rational function              ...        0 min,  0.006 sec (  1.424%)

================
 final structure:
================
$coord
        5.56275185896591        0.31969368647044        1.12239111330762      C
        3.55609077238456       -1.42023898074577        0.00484666155309      C
        1.79454366965005       -0.08979692935798       -1.86209217389879      C
        0.23883899154750        2.07542493141696       -0.74285642274302      C
       -1.60228998129823        1.26486741561523        1.30212562908608      C
       -3.95418892375245       -0.86963197348427        0.07529873519396      Cl
        6.60564190444655        1.26479273260455       -0.37534758496005      H
        6.89261936833581       -0.76790781530106        2.24968962868973      H
        4.71985919504713        1.74657532004895        2.33479773188479      H
        4.49433482000332       -2.95901165669727       -1.00184959664677      H
        2.45608504114743       -2.27506417248102        1.52520370669441      H
        0.50215908193703       -1.48710475479614       -2.66052402685999      H
        2.92584579178088        0.66982407461097       -3.41148358331205      H
       -0.81317692988106        2.98330313315018       -2.26714349809830      H
        1.49479818102120        3.48515097243504        0.08370093936410      H
       -0.66768795894629        0.26074248938174        2.83240494163629      H
       -2.64232700471580        2.87508185697384        2.04724592097282      H
$end
 
 Bond Distances (Angstroems)
 ---------------------------
C1-C2=1.5248         C1-H7=1.0876         C1-H8=1.0874         C1-H9=1.0866         C2-C1=1.5248         C2-C3=1.5299         
C2-H10=1.0924        C2-H11=1.0912        C3-C2=1.5299         C3-C4=1.5301         C3-H12=1.0922        C3-H13=1.0919        
C4-C3=1.5301         C4-C5=1.5180         C4-H14=1.0915        C4-H15=1.0907        C5-C4=1.5180         C5-Cl6=1.8017        
C5-H16=1.0875        C5-H17=1.0883        Cl6-C5=1.8017        H7-C1=1.0876         H8-C1=1.0874         H9-C1=1.0866         
H10-C2=1.0924        H11-C2=1.0912        H12-C3=1.0922        H13-C3=1.0919        H14-C4=1.0915        H15-C4=1.0907        
H16-C5=1.0875        H17-C5=1.0883        
 C  H  Rav=1.0898 sigma=0.0022  Rmin=1.0866  Rmax=1.0924    11
 C  C  Rav=1.5257 sigma=0.0049  Rmin=1.5180  Rmax=1.5301     4
 Cl C  Rav=1.8017 sigma=0.0000  Rmin=1.8017  Rmax=1.8017     1
 
 selected bond angles (degree)
 --------------------
H7-C1-C2=110.39                H8-C1-C2=110.11                H8-C1-H7=108.35                H9-C1-C2=111.27                
H9-C1-H7=108.60                H9-C1-H8=108.03                C3-C2-C1=113.38                H10-C2-C1=108.83               
H10-C2-C3=107.76               H11-C2-C1=109.62               H11-C2-C3=109.99               H11-C2-H10=107.04              
C4-C3-C2=114.99                H12-C3-C2=108.65               H12-C3-C4=108.65               H13-C3-C2=108.68               
H13-C3-C4=108.06               H13-C3-H12=107.58              C5-C4-C3=114.18                H14-C4-C3=108.54               
H14-C4-C5=108.90               H15-C4-C3=109.85               H15-C4-C5=107.37               H15-C4-H14=107.83              
Cl6-C5-C4=111.32               H16-C5-C4=112.15               H16-C5-Cl6=106.03              H17-C5-C4=111.20               
H17-C5-Cl6=105.79              H17-C5-H16=110.04              
 
 selected dihedral angles (degree)
 ---------------------------------
C3-C2-C1-H7=306.46            C3-C2-C1-H8=186.87            C3-C2-C1-H9= 67.12            H10-C2-C1-H7= 66.37           
H10-C2-C1-H8=306.78           H10-C2-C1-H9=187.02           H11-C2-C1-H7=183.12           H11-C2-C1-H8= 63.54           
H11-C2-C1-H9=303.78           C4-C3-C2-C1=298.37            C4-C3-C2-H10=177.86           C4-C3-C2-H11= 61.50           
H12-C3-C2-C1=176.38           H12-C3-C2-H10= 55.87          H12-C3-C2-H11=299.52          H13-C3-C2-C1= 59.60           
H13-C3-C2-H10=299.09          H13-C3-C2-H11=182.74          C5-C4-C3-C2=296.77            C5-C4-C3-H12= 58.75           
C5-C4-C3-H13=175.19           H14-C4-C3-C2=175.10           H14-C4-C3-H12=297.08          H14-C4-C3-H13= 53.52          
H15-C4-C3-C2= 57.43           H15-C4-C3-H12=179.41          H15-C4-C3-H13=295.86          Cl6-C5-C4-C3=297.03           
Cl6-C5-C4-H14= 58.51          Cl6-C5-C4-H15=175.00          H16-C5-C4-C3= 55.65           H16-C5-C4-H14=177.12          
H16-C5-C4-H15=293.61          H17-C5-C4-C3=179.34           H17-C5-C4-H14=300.82          H17-C5-C4-H15= 57.31          
           -------------------------------------------------
          |                Final Singlepoint                |
           -------------------------------------------------

          ...................................................
          :                      SETUP                      :
          :.................................................:
          :  # basis functions                  41          :
          :  # atomic orbitals                  40          :
          :  # shells                           24          :
          :  # electrons                        38          :
          :  max. iterations                   250          :
          :  Hamiltonian                  GFN2-xTB          :
          :  restarted?                      false          :
          :  GBSA solvation                   true          :
          :  PC potential                    false          :
          :  electronic temp.          300.0000000     K    :
          :  accuracy                    1.0000000          :
          :  -> integral cutoff          0.2500000E+02      :
          :  -> integral neglect         0.1000000E-07      :
          :  -> SCF convergence          0.1000000E-05 Eh   :
          :  -> wf. convergence          0.1000000E-03 e    :
          :  Broyden damping             0.4000000          :
          :  net charge                          0          :
          :  unpaired electrons                  0          :
          ...................................................

 iter      E             dE          RMSdq      gap      omega  full diag
   1    -21.1173657 -0.211174E+02  0.676E-06    6.94       0.0  T
   2    -21.1173657 -0.746070E-13  0.573E-06    6.94    4230.3  T
   3    -21.1173657 -0.238032E-12  0.249E-06    6.94    9730.1  T

   *** convergence criteria satisfied after 3 iterations ***

         #    Occupation            Energy/Eh            Energy/eV
      -------------------------------------------------------------
         1        2.0000           -1.0548027             -28.7026
       ...           ...                  ...                  ...
        13        2.0000           -0.4572847             -12.4433
        14        2.0000           -0.4557135             -12.4006
        15        2.0000           -0.4287875             -11.6679
        16        2.0000           -0.4261445             -11.5960
        17        2.0000           -0.4234175             -11.5218
        18        2.0000           -0.4135144             -11.2523
        19        2.0000           -0.4115474             -11.1988 (HOMO)
        20                         -0.1563344              -4.2541 (LUMO)
        21                          0.0171213               0.4659
        22                          0.0219540               0.5974
        23                          0.0260082               0.7077
        24                          0.0262795               0.7151
       ...                                ...                  ...
        40                          0.3060636               8.3284
      -------------------------------------------------------------
                  HL-Gap            0.2552130 Eh            6.9447 eV
             Fermi-level           -0.2839409 Eh           -7.7264 eV

 SCC (total)                   0 d,  0 h,  0 min,  0.008 sec
 SCC setup                      ...        0 min,  0.001 sec ( 12.304%)
 Dispersion                     ...        0 min,  0.000 sec (  0.734%)
 classical contributions        ...        0 min,  0.000 sec (  0.197%)
 integral evaluation            ...        0 min,  0.001 sec ( 16.976%)
 iterations                     ...        0 min,  0.001 sec ( 17.058%)
 molecular gradient             ...        0 min,  0.004 sec ( 50.714%)
 printout                       ...        0 min,  0.000 sec (  1.796%)

         :::::::::::::::::::::::::::::::::::::::::::::::::::::
         ::                     SUMMARY                     ::
         :::::::::::::::::::::::::::::::::::::::::::::::::::::
         :: total energy             -20.873066842766 Eh    ::
         :: total w/o Gsasa/hb       -20.872526095514 Eh    ::
         :: gradient norm              0.000024443829 Eh/a0 ::
         :: HOMO-LUMO gap              6.944700074584 eV    ::
         ::.................................................::
         :: SCC energy               -21.117334678778 Eh    ::
         :: -> isotropic ES            0.011589532069 Eh    ::
         :: -> anisotropic ES          0.002434448872 Eh    ::
         :: -> anisotropic XC          0.011277145924 Eh    ::
         :: -> dispersion             -0.010499562569 Eh    ::
         :: -> Gsolv                  -0.004029564504 Eh    ::
         ::    -> Gelec               -0.003488817252 Eh    ::
         ::    -> Gsasa               -0.000778988208 Eh    ::
         ::    -> Ghb                 -0.000842518742 Eh    ::
         ::    -> Gshift               0.001080759698 Eh    ::
         :: repulsion energy           0.244267836012 Eh    ::
         :: add. restraining           0.000000000000 Eh    ::
         :: total charge               0.000000000000 e     ::
         :::::::::::::::::::::::::::::::::::::::::::::::::::::

           ------------------------------------------------- 
          |                Numerical Hessian                |
           ------------------------------------------------- 
step length          :   0.00500
SCC accuracy         :   0.30000
Hessian scale factor :   1.00000
frozen atoms in %    :   0.00000    0
RMS gradient         :   0.00002
estimated CPU  time      0.01 min
estimated wall time      0.01 min

writing file <hessian>.

 projected vibrational frequencies (cm⁻¹)
eigval :       -0.00    -0.00    -0.00    -0.00    -0.00     0.00
eigval :       29.33    76.64   162.87   211.00   274.03   329.38
eigval :      398.62   475.20   645.36   767.56   804.48   885.46
eigval :      913.24   970.45  1000.24  1050.74  1092.18  1099.10
eigval :     1145.62  1162.05  1189.74  1242.01  1251.53  1280.63
eigval :     1336.11  1352.96  1359.44  1411.18  1423.67  1461.03
eigval :     1482.36  1498.68  1501.66  1509.06  2962.78  2968.85
eigval :     2978.99  2986.71  2989.68  2992.53  2998.84  3006.38
eigval :     3029.21  3032.97  3044.93
           -------------------------------------------------
          |                Property Printout                |
           -------------------------------------------------

    * Orbital Energies and Occupations

         #    Occupation            Energy/Eh            Energy/eV
      -------------------------------------------------------------
         1        2.0000           -1.0548027             -28.7026
       ...           ...                  ...                  ...
         7        2.0000           -0.5273883             -14.3510
         8        2.0000           -0.5218713             -14.2008
         9        2.0000           -0.4977570             -13.5447
        10        2.0000           -0.4938566             -13.4385
        11        2.0000           -0.4933083             -13.4236
        12        2.0000           -0.4657286             -12.6731
        13        2.0000           -0.4572846             -12.4433
        14        2.0000           -0.4557135             -12.4006
        15        2.0000           -0.4287875             -11.6679
        16        2.0000           -0.4261445             -11.5960
        17        2.0000           -0.4234175             -11.5218
        18        2.0000           -0.4135144             -11.2523
        19        2.0000           -0.4115474             -11.1988 (HOMO)
        20                         -0.1563343              -4.2541 (LUMO)
        21                          0.0171214               0.4659
        22                          0.0219540               0.5974
        23                          0.0260082               0.7077
        24                          0.0262795               0.7151
        25                          0.0789911               2.1495
        26                          0.0974921               2.6529
        27                          0.1083294               2.9478
        28                          0.1260736               3.4306
        29                          0.1372111               3.7337
        30                          0.1394914               3.7958
       ...                                ...                  ...
        40                          0.3060637               8.3284
      -------------------------------------------------------------
                  HL-Gap            0.2552131 Eh            6.9447 eV
             Fermi-level           -0.2839409 Eh           -7.7264 eV

     #   Z          covCN         q      C6AA      α(0)
     1   6 C        3.751    -0.113    22.729     6.799
     2   6 C        3.799    -0.058    21.619     6.620
     3   6 C        3.801    -0.063    21.711     6.634
     4   6 C        3.823    -0.069    21.805     6.645
     5   6 C        3.713     0.027    20.241     6.429
     6  17 Cl       0.909    -0.269   107.702    15.877
     7   1 H        0.925     0.040     2.453     2.449
     8   1 H        0.925     0.037     2.493     2.469
     9   1 H        0.925     0.040     2.453     2.449
    10   1 H        0.924     0.033     2.547     2.496
    11   1 H        0.924     0.033     2.550     2.497
    12   1 H        0.924     0.037     2.485     2.465
    13   1 H        0.924     0.042     2.419     2.432
    14   1 H        0.924     0.056     2.252     2.347
    15   1 H        0.924     0.068     2.107     2.270
    16   1 H        0.925     0.081     1.966     2.193
    17   1 H        0.925     0.079     1.987     2.204

 Mol. C6AA /au·bohr⁶  :       2535.882483
 Mol. C8AA /au·bohr⁸  :      62581.532267
 Mol. α(0) /au        :         75.274912


Wiberg/Mayer (AO) data.
largest (>0.10) Wiberg bond orders for each atom

 ---------------------------------------------------------------------------
     #   Z sym  total        # sym  WBO       # sym  WBO       # sym  WBO
 ---------------------------------------------------------------------------
     1   6 C    3.996 --     2 C    1.020     7 H    0.987     8 H    0.987
                             9 H    0.986
     2   6 C    3.997 --     1 C    1.020     3 C    1.008    10 H    0.978
                            11 H    0.976
     3   6 C    3.996 --     2 C    1.008     4 C    1.007    13 H    0.976
                            12 H    0.976
     4   6 C    3.991 --     5 C    1.020     3 C    1.007    14 H    0.974
                            15 H    0.961
     5   6 C    3.910 --     4 C    1.020    17 H    0.977    16 H    0.974
                             6 Cl   0.916
     6  17 Cl   0.961 --     5 C    0.916
     7   1 H    0.998 --     1 C    0.987
     8   1 H    0.999 --     1 C    0.987
     9   1 H    0.998 --     1 C    0.986
    10   1 H    0.999 --     2 C    0.978
    11   1 H    0.999 --     2 C    0.976
    12   1 H    0.999 --     3 C    0.976
    13   1 H    0.998 --     3 C    0.976
    14   1 H    0.997 --     4 C    0.974
    15   1 H    0.995 --     4 C    0.961
    16   1 H    0.993 --     5 C    0.974
    17   1 H    0.994 --     5 C    0.977
 ---------------------------------------------------------------------------

Topologies differ in total number of bonds
Writing topology from bond orders to xtbtopo.mol

molecular dipole:
                 x           y           z       tot (Debye)
 q only:        0.919       0.722       0.263
   full:        0.771       0.631       0.263       2.618
molecular quadrupole (traceless):
                xx          xy          yy          xz          yz          zz
 q only:       -4.388      -2.114       2.173      -0.785       0.606       2.216
  q+dip:       -4.304      -2.605       1.922      -1.099       0.181       2.382
   full:       -3.954      -1.966       1.950      -0.716       0.574       2.005

           -------------------------------------------------
          |                Geometry Summary                 |
           -------------------------------------------------

      molecular mass/u    :      106.5939653
   center of mass at/Å    :        0.0034180       0.0041398       0.0095720
  moments of inertia/u·Å² :        0.8597633E+02   0.4041115E+03   0.4157704E+03
rotational constants/cm⁻¹ :        0.1960729E+00   0.4171530E-01   0.4054553E-01

 * 16 selected distances

     #   Z          #   Z                                           value/Å
     1   6 C        2   6 C                                       1.5248167
     2   6 C        3   6 C                                       1.5299159
     3   6 C        4   6 C                                       1.5301453
     4   6 C        5   6 C                                       1.5179836
     5   6 C        6  17 Cl                                      1.8017394 (max)
     1   6 C        7   1 H                                       1.0875916
     1   6 C        8   1 H                                       1.0873565
     1   6 C        9   1 H                                       1.0866045 (min)
     2   6 C       10   1 H                                       1.0924096
     2   6 C       11   1 H                                       1.0912123
     3   6 C       12   1 H                                       1.0922378
     3   6 C       13   1 H                                       1.0918868
     4   6 C       14   1 H                                       1.0914955
     4   6 C       15   1 H                                       1.0906648
     5   6 C       16   1 H                                       1.0875208
     5   6 C       17   1 H                                       1.0883147

 * 3 distinct bonds (by element types)

   Z      Z             #   av. dist./Å        max./Å        min./Å
   1 H    6 C          11     1.0897541     1.0924096     1.0866045
   6 C    6 C           4     1.5257154     1.5301453     1.5179836
   6 C   17 Cl          1     1.8017394     1.8017394     1.8017394

           -------------------------------------------------
          |               Frequency Printout                |
           -------------------------------------------------
 projected vibrational frequencies (cm⁻¹)
eigval :       -0.00    -0.00    -0.00    -0.00    -0.00     0.00
eigval :       29.33    76.64   162.87   211.00   274.03   329.38
eigval :      398.62   475.20   645.36   767.56   804.48   885.46
eigval :      913.24   970.45  1000.24  1050.74  1092.18  1099.10
eigval :     1145.62  1162.05  1189.74  1242.01  1251.53  1280.63
eigval :     1336.11  1352.96  1359.44  1411.18  1423.67  1461.03
eigval :     1482.36  1498.68  1501.66  1509.06  2962.78  2968.85
eigval :     2978.99  2986.71  2989.68  2992.53  2998.84  3006.38
eigval :     3029.21  3032.97  3044.93
 reduced masses (amu)
   1: 11.78   2: 15.58   3: 14.66   4: 24.49   5: 16.98   6: 21.41   7: 15.34   8: 12.09
   9: 11.27  10:  9.30  11:  5.34  12:  9.35  13:  7.98  14:  8.74  15: 15.43  16:  3.97
  17:  5.21  18:  5.21  19:  6.53  20:  5.74  21:  6.04  22:  5.30  23:  5.84  24:  3.45
  25:  6.56  26:  5.97  27:  4.51  28:  3.46  29:  2.94  30:  2.16  31:  4.58  32:  4.58
  33:  4.82  34:  3.22  35:  2.04  36:  1.91  37:  1.91  38:  1.61  39:  1.82  40:  1.61
  41:  1.92  42:  1.93  43:  1.81  44:  1.63  45:  1.56  46:  1.69  47:  1.58  48:  1.79
  49:  1.93  50:  1.86  51:  1.36
 IR intensities (km·mol⁻¹)
   1:  0.30   2:  0.90   3:  0.52   4:  0.38   5:  0.19   6:  0.12   7:  0.94   8:  1.72
   9:  0.63  10:  1.24  11:  0.77  12:  1.12  13:  1.32  14:  1.10  15:  3.10  16: 27.75
  17:  2.57  18:  2.44  19:  4.64  20:  1.85  21:  4.12  22:  3.19  23:  1.80  24:  0.53
  25:  0.56  26:  0.69  27:  2.94  28:  9.89  29: 16.32  30:  1.52  31:  3.43  32:  4.35
  33:  3.25  34:  1.34  35:  4.14  36:  3.69  37:  1.56  38:  0.87  39:  2.33  40:  0.71
  41: 48.93  42: 63.76  43: 24.22  44: 83.30  45: 90.69  46: 11.98  47: 25.58  48: 21.74
  49: 81.57  50: 79.88  51: 42.74
 Raman intensities (Ä⁴*amu⁻¹)
   1:  0.00   2:  0.00   3:  0.00   4:  0.00   5:  0.00   6:  0.00   7:  0.00   8:  0.00
   9:  0.00  10:  0.00  11:  0.00  12:  0.00  13:  0.00  14:  0.00  15:  0.00  16:  0.00
  17:  0.00  18:  0.00  19:  0.00  20:  0.00  21:  0.00  22:  0.00  23:  0.00  24:  0.00
  25:  0.00  26:  0.00  27:  0.00  28:  0.00  29:  0.00  30:  0.00  31:  0.00  32:  0.00
  33:  0.00  34:  0.00  35:  0.00  36:  0.00  37:  0.00  38:  0.00  39:  0.00  40:  0.00
  41:  0.00  42:  0.00  43:  0.00  44:  0.00  45:  0.00  46:  0.00  47:  0.00  48:  0.00
  49:  0.00  50:  0.00  51:  0.00
 output can be read by thermo (or use thermo option).
 writing <g98.out> molden fake output.
 recommended (thermochemical) frequency scaling factor: 1.0
           -------------------------------------------------
          |             Thermodynamic Functions             |
           -------------------------------------------------

Molecule has no symmetry elements
It seems to be the C1 point group
c1  symmetry found (for desy threshold:  0.10E+00) used in thermo

          ...................................................
          :                      SETUP                      :
          :.................................................:
          :  # frequencies                          45      :
          :  # imaginary freq.                       0      :
          :  linear?                             false      :
          :  only rotor calc.                    false      :
          :  symmetry                               c1      :
          :  rotational number                       1      :
          :  scaling factor                  1.0000000      :
          :  rotor cutoff                    0.0000000 cm⁻¹ :
          :  imag. cutoff                 -100.0000000 cm⁻¹ :
          :.................................................:

    mode    ω/cm⁻¹     T·S(HO)/kcal·mol⁻¹    T·S(FR)/kcal·mol⁻¹   T·S(vib)
   ------------------------------------------------------------------------
       1     29.33    -1.75133 (100.00%)    -1.21397 (  0.00%)    -1.75133
       2     76.64    -1.18516 (100.00%)    -0.92980 (  0.00%)    -1.18516
       3    162.87    -0.75019 (100.00%)    -0.70660 (  0.00%)    -0.75019
       4    211.00    -0.60673 (100.00%)    -0.62993 (  0.00%)    -0.60673
       5    274.03    -0.46828 (100.00%)    -0.55251 (  0.00%)    -0.46828
   ------------------------------------------------------------------------

   temp. (K)  partition function   enthalpy   heat capacity  entropy
                                   cal/mol     cal/K/mol   cal/K/mol   J/K/mol
 298.15  VIB   188.                 3106.583     20.909     20.827
         ROT  0.290E+06              888.752      2.981     27.978
         INT  0.546E+08             3995.335     23.890     48.806
         TR   0.106E+28             1481.254      4.968     39.890
         TOT                        5476.5891    28.8579    88.6958   371.1031

       T/K    H(0)-H(T)+PV         H(T)/Eh          T*S/Eh         G(T)/Eh
   ------------------------------------------------------------------------
    298.15    0.872750E-02    0.158598E+00    0.421422E-01    0.116456E+00
   ------------------------------------------------------------------------

         :::::::::::::::::::::::::::::::::::::::::::::::::::::
         ::                  THERMODYNAMIC                  ::
         :::::::::::::::::::::::::::::::::::::::::::::::::::::
         :: total free energy         -20.756611263991 Eh   ::
         ::.................................................::
         :: total energy              -20.873066842761 Eh   ::
         :: zero point energy           0.149870306387 Eh   ::
         :: G(RRHO) w/o ZPVE           -0.033414727618 Eh   ::
         :: G(RRHO) contrib.            0.116455578769 Eh   ::
         :::::::::::::::::::::::::::::::::::::::::::::::::::::

optimized geometry written to: xtbopt.coord


           -------------------------------------------------
          | TOTAL ENERGY              -20.873066842761 Eh   |
          | TOTAL ENTHALPY            -20.714469036105 Eh   |
          | TOTAL FREE ENERGY         -20.756611263991 Eh   |
          | GRADIENT NORM               0.000024440713 Eh/α |
          | HOMO-LUMO GAP               6.944701374344 eV   |
           -------------------------------------------------

------------------------------------------------------------------------
 * finished run on 2025/04/11 at 16:00:45.982     
------------------------------------------------------------------------
 total:
 * wall-time:     0 d,  0 h,  0 min,  1.406 sec
 *  cpu-time:     0 d,  0 h,  0 min,  1.315 sec
 * ratio c/w:     0.935 speedup
 SCF:
 * wall-time:     0 d,  0 h,  0 min,  0.018 sec
 *  cpu-time:     0 d,  0 h,  0 min,  0.013 sec
 * ratio c/w:     0.743 speedup
 ANC optimizer:
 * wall-time:     0 d,  0 h,  0 min,  0.470 sec
 *  cpu-time:     0 d,  0 h,  0 min,  0.454 sec
 * ratio c/w:     0.966 speedup
 analytical hessian:
 * wall-time:     0 d,  0 h,  0 min,  0.849 sec
 *  cpu-time:     0 d,  0 h,  0 min,  0.837 sec
 * ratio c/w:     0.986 speedup

