
                                 *****************
                                 * O   R   C   A *
                                 *****************

                                            #,                                       
                                            ###                                      
                                            ####                                     
                                            #####                                    
                                            ######                                   
                                           ########,                                 
                                     ,,################,,,,,                         
                               ,,#################################,,                 
                          ,,##########################################,,             
                       ,#########################################, ''#####,          
                    ,#############################################,,   '####,        
                  ,##################################################,,,,####,       
                ,###########''''           ''''###############################       
              ,#####''   ,,,,##########,,,,          '''####'''          '####       
            ,##' ,,,,###########################,,,                        '##       
           ' ,,###''''                  '''############,,,                           
         ,,##''                                '''############,,,,        ,,,,,,###''
      ,#''                                            '''#######################'''  
     '                                                          ''''####''''         
             ,#######,   #######,   ,#######,      ##                                
            ,#'     '#,  ##    ##  ,#'     '#,    #''#        ,####,   ,####,        
            ##       ##  ##   ,#'  ##            #'  '#       #'       #'  '#        
            ##       ##  #######   ##           ,######,      #####,   #    #        
            '#,     ,#'  ##    ##  '#,     ,#' ,#      #,     #,   #   #,  ,#        
             '#######'   ##     ##  '#######'  #'      '#     '####' # '####'        



                #########################################################
                #                        -***-                          #
                #          Department of theory and spectroscopy        #
                #                                                       #
                #                      Frank Neese                      #
                #                                                       #
                #     Directorship, Architecture, Infrastructure        #
                #                    SHARK, DRIVERS                     #
                #        Core code/Algorithms in most modules           #
                #                                                       #
                #        Max Planck Institute fuer Kohlenforschung      #
                #                Kaiser Wilhelm Platz 1                 #
                #                 D-45470 Muelheim/Ruhr                 #
                #                      Germany                          #
                #                                                       #
                #                  All rights reserved                  #
                #                        -***-                          #
                #########################################################


                         Program Version 6.0.0  -   RELEASE  -


 With contributions from (in alphabetic order):
   Daniel Aravena         : Magnetic Suceptibility
   Michael Atanasov       : Ab Initio Ligand Field Theory (pilot matlab implementation)
   Alexander A. Auer      : GIAO ZORA, VPT2 properties, NMR spectrum
   Ute Becker             : All parallelization in ORCA, NUMFREQ, NUMCALC
   Giovanni Bistoni       : ED, misc. LED, open-shell LED, HFLD
   Martin Brehm           : Molecular dynamics
   Dmytro Bykov           : pre 5.0 version of the SCF Hessian
   Marcos Casanova-Páez   : Triplet and SCS-CIS(D). UHF-(DLPNO)-IP/EA/STEOM-CCSD. UHF-CVS-IP/STEOM-CCSD
   Vijay G. Chilkuri      : MRCI spin determinant printing, contributions to CSF-ICE
   Pauline Colinet        : FMM embedding
   Dipayan Datta          : RHF DLPNO-CCSD density
   Achintya Kumar Dutta   : EOM-CC, STEOM-CC
   Nicolas Foglia         : Exact transition moments, OPA infrastructure, MCD improvements
   Dmitry Ganyushin       : Spin-Orbit,Spin-Spin,Magnetic field MRCI
   Miquel Garcia          : C-PCM and meta-GGA Hessian, CCSD/C-PCM, Gaussian charge scheme
   Tiago L. C. Gouveia    : GS-ROHF, GS-ROCIS
   Yang Guo               : DLPNO-NEVPT2, F12-NEVPT2, CIM, IAO-localization
   Andreas Hansen         : Spin unrestricted coupled pair/coupled cluster methods
   Ingolf Harden          : AUTO-CI MPn and infrastructure 
   Benjamin Helmich-Paris : MC-RPA, TRAH-(SCF,CASSCF), AVAS, COSX integrals, SCF dyn. polar.
   Lee Huntington         : MR-EOM, pCC
   Robert Izsak           : Overlap fitted RIJCOSX, COSX-SCS-MP3, EOM
   Riya Kayal             : Wick's Theorem for AUTO-CI, AUTO-CI UHF-CCSDT
   Emily Kempfer          : AUTO-CI, RHF CISDT and CCSDT
   Christian Kollmar      : KDIIS, OOCD, Brueckner-CCSD(T), CCSD density, CASPT2, CASPT2-K, improved NEVPT2
   Axel Koslowski         : Symmetry handling
   Simone Kossmann        : Meta GGA functionals, TD-DFT gradient, OOMP2, (MP2 Hessian; deprecated post 5.0)
   Lucas Lang             : DCDCAS
   Marvin Lechner         : AUTO-CI (C++ implementation), FIC-MRCC
   Spencer Leger          : CASSCF response
   Dagmar Lenk            : GEPOL surface, SMD, ORCA-2-JSON
   Dimitrios Liakos       : Extrapolation schemes; Compound Job, initial MDCI parallelization
   Dimitrios Manganas     : Further ROCIS development; embedding schemes. LFT, Crystal Embedding
   Dimitrios Pantazis     : SARC Basis sets
   Anastasios Papadopoulos: AUTO-CI, single reference methods and gradients
   Taras Petrenko         : pre 6.0 DFT Hessian and TD-DFT gradient, (ASA, deprecated), ECA, 1-Electron XAS/XES, NRVS
   Peter Pinski           : DLPNO-MP2, DLPNO-MP2 Gradient
   Christoph Reimann      : Effective Core Potentials
   Marius Retegan         : Local ZFS, SOC
   Christoph Riplinger    : Optimizer, TS searches, QM/MM, DLPNO-CCSD(T), (RO)-DLPNO pert. Triples
   Michael Roemelt        : Original ROCIS implementation
   Masaaki Saitow         : Open-shell DLPNO-CCSD energy and density
   Barbara Sandhoefer     : DKH picture change effects
   Kantharuban Sivalingam : CASSCF convergence/infrastructure, NEVPT2 and variants, FIC-MRCI
   Bernardo de Souza      : ESD, SOC TD-DFT
   Georgi Stoychev        : AutoAux, RI-MP2 NMR, DLPNO-MP2 response, X2C
   Van Anh Tran           : RI-MP2 g-tensors
   Willem Van den Heuvel  : Paramagnetic NMR
   Zikuan Wang            : NOTCH, Electric field optimization 
   Frank Wennmohs         : Technical directorship and infrastructure
   Hang Xu                : AUTO-CI-Response properties 


 We gratefully acknowledge several colleagues who have allowed us to
 interface, adapt or use parts of their codes:
   Stefan Grimme, W. Hujo, H. Kruse, P. Pracht,  : VdW corrections, initial TS optimization,
                  C. Bannwarth, S. Ehlert,         DFT functionals, gCP, sTDA/sTD-DF
                  L. Wittmann, M. Mueller
   Ed Valeev, F. Pavosevic, A. Kumar             : LibInt (2-el integral package), F12 methods
   Garnet Chan, S. Sharma, J. Yang, R. Olivares  : DMRG
   Ulf Ekstrom                                   : XCFun DFT Library
   Mihaly Kallay                                 : mrcc  (arbitrary order and MRCC methods)
   Frank Weinhold                                : gennbo (NPA and NBO analysis)
   Simon Mueller                                 : openCOSMO-RS
   Christopher J. Cramer and Donald G. Truhlar   : smd solvation model
   Lars Goerigk                                  : TD-DFT with DH, B97 family of functionals
   V. Asgeirsson, H. Jonsson                     : NEB implementation
   FAccTs GmbH                                   : IRC, NEB, NEB-TS, DLPNO-Multilevel, CI-OPT
                                                   MM, QMMM, 2- and 3-layer-ONIOM, Crystal-QMMM,
                                                   LR-CPCM, SF, NACMEs, symmetry and pop. for TD-DFT,
                                                   nearIR, NL-DFT gradient (VV10), updates on ESD,
                                                   ML-optimized integration grids, MBIS, APM,
                                                   GOAT, DOCKER, SOLVATOR, interface openCOSMO-RS
   S Lehtola, MJT Oliveira, MAL Marques          : LibXC Library
   Liviu Ungur et al                             : ANISO software


 Your calculation uses the libint2 library for the computation of 2-el integrals
 For citations please refer to: http://libint.valeyev.net

 Your ORCA version has been built with support for libXC version: 6.2.2
 For citations please refer to: https://libxc.gitlab.io

 This ORCA versions uses:
   CBLAS   interface :  Fast vector & matrix operations
   LAPACKE interface :  Fast linear algebra routines
   SCALAPACK package :  Parallel linear algebra routines
   Shared memory     :  Shared parallel matrices
   BLAS/LAPACK       :  OpenBLAS 0.3.27  USE64BITINT DYNAMIC_ARCH NO_AFFINITY SkylakeX SINGLE_THREADED
        Core in use  :  SkylakeX
   Copyright (c) 2011-2014, The OpenBLAS Project


Your calculation utilizes the geometrical counterpoise correction gCP
Please cite in your paper:
H.Kruse, S. Grimme J.Chem.Phys., 136, (2012), 154101 
   

Your calculation utilizes the atom-pairwise dispersion correction
based on EEQ partial charges (D4)


================================================================================

----- Orbital basis set information -----
Your calculation utilizes the basis: def2-mTZVPP
   Stefan Grimme, Andreas Hansen, Sebastian Ehlert, and Jan-Michael Mewes 
   J. Chem. Phys. 154, 064103 (2021). DOI: 10.1063/5.0040021

----- AuxJ basis set information -----
Your calculation utilizes the auxiliary basis: def2/J
   F. Weigend, Phys. Chem. Chem. Phys. 8, 1057 (2006).

================================================================================
                                        WARNINGS
                       Please study these warnings very carefully!
================================================================================

Using LibXC functional ID 497 : Re-regularized SCAN exchange by Furness et al
[ 1]  J. W. Furness, A. D. Kaplan, J. Ning, J. P. Perdew, and J. Sun.,  J. Phys. Chem. Lett. 11, 8208-8215 (2020)
[ 2]  J. W. Furness, A. D. Kaplan, J. Ning, J. P. Perdew, and J. Sun.,  J. Phys. Chem. Lett. 11, 9248-9248 (2020)
Using LibXC functional ID 498 : Re-regularized SCAN correlation by Furness et al
[ 1]  J. W. Furness, A. D. Kaplan, J. Ning, J. P. Perdew, and J. Sun.,  J. Phys. Chem. Lett. 11, 8208-8215 (2020)
[ 2]  J. W. Furness, A. D. Kaplan, J. Ning, J. P. Perdew, and J. Sun.,  J. Phys. Chem. Lett. 11, 9248-9248 (2020)
Using LibXC functional ID 497 : Re-regularized SCAN exchange by Furness et al
[ 1]  J. W. Furness, A. D. Kaplan, J. Ning, J. P. Perdew, and J. Sun.,  J. Phys. Chem. Lett. 11, 8208-8215 (2020)
[ 2]  J. W. Furness, A. D. Kaplan, J. Ning, J. P. Perdew, and J. Sun.,  J. Phys. Chem. Lett. 11, 9248-9248 (2020)
Using LibXC functional ID 498 : Re-regularized SCAN correlation by Furness et al
[ 1]  J. W. Furness, A. D. Kaplan, J. Ning, J. P. Perdew, and J. Sun.,  J. Phys. Chem. Lett. 11, 8208-8215 (2020)
[ 2]  J. W. Furness, A. D. Kaplan, J. Ning, J. P. Perdew, and J. Sun.,  J. Phys. Chem. Lett. 11, 9248-9248 (2020)

================================================================================
                                       INPUT FILE
================================================================================
NAME = sp_gas.inp
|  1> ! r2scan-3c def2/J RI DEFGRID2 scfconv6 printgap
|  2> %output
|  3>     printlevel normal
|  4> end
|  5> * xyz 0 1
|  6> C -4.5691782477 -1.1088329877 0.1919384746
|  7> C -3.8301519104 -2.2666550144 -0.007963965
|  8> C -2.4570471652 -2.1953393818 -0.1526090154
|  9> C -1.7982477574 -0.968585904 -0.101046322
| 10> C -2.5450244415 0.1977068979 0.1003708058
| 11> C -3.928707731 0.114677638 0.2457373351
| 12> C -1.8877206592 1.5089890945 0.1619277072
| 13> O -2.5291884706 2.5412526389 0.3476854744
| 14> C -0.4243046533 1.5285587328 -0.0096609822
| 15> C 0.1957131994 2.7645005443 0.0490645272
| 16> C 1.5764498308 2.8676231907 -0.0991361541
| 17> C 2.3325048389 1.7456866225 -0.3077297745
| 18> C 1.7427638605 0.4599752324 -0.3840825735
| 19> C 0.3263913597 0.3480069263 -0.2228361669
| 20> C -0.3315933875 -0.9401484615 -0.2632124409
| 21> O 0.2759677038 -2.0145158197 -0.4203618676
| 22> N 2.4886858811 -0.6289942346 -0.6144275116
| 23> C 3.9232591436 -0.6734388851 -0.7463349917
| 24> C 4.6430540749 -0.6483619133 0.6158567158
| 25> O 4.5510327634 -1.8740074075 1.3053458461
| 26> H -5.6404604551 -1.1616867323 0.3054351024
| 27> H -4.3253285499 -3.22401318 -0.0507761559
| 28> H -1.8649702055 -3.0848823522 -0.3090267031
| 29> H -4.4780379622 1.0315674732 0.400551926
| 30> H -0.4166129949 3.6374736559 0.2146156904
| 31> H 2.04852434 3.8359949316 -0.0465108408
| 32> H 3.3997258509 1.8404600373 -0.4149572028
| 33> H 1.9747403234 -1.5072783175 -0.6326776202
| 34> H 4.277448794 0.161235536 -1.3539717122
| 35> H 4.1816098374 -1.6042839686 -1.2526019756
| 36> H 4.2461592737 0.1676884247 1.2327510522
| 37> H 5.7107447835 -0.4865095455 0.456824975
| 38> H 3.6233715298 -2.0631242013 1.500902958
| 39> *
| 40> 
| 41>                          ****END OF INPUT****
================================================================================

                       ****************************
                       * Single Point Calculation *
                       ****************************

---------------------------------
CARTESIAN COORDINATES (ANGSTROEM)
---------------------------------
  C     -4.569178   -1.108833    0.191938
  C     -3.830152   -2.266655   -0.007964
  C     -2.457047   -2.195339   -0.152609
  C     -1.798248   -0.968586   -0.101046
  C     -2.545024    0.197707    0.100371
  C     -3.928708    0.114678    0.245737
  C     -1.887721    1.508989    0.161928
  O     -2.529188    2.541253    0.347685
  C     -0.424305    1.528559   -0.009661
  C      0.195713    2.764501    0.049065
  C      1.576450    2.867623   -0.099136
  C      2.332505    1.745687   -0.307730
  C      1.742764    0.459975   -0.384083
  C      0.326391    0.348007   -0.222836
  C     -0.331593   -0.940148   -0.263212
  O      0.275968   -2.014516   -0.420362
  N      2.488686   -0.628994   -0.614428
  C      3.923259   -0.673439   -0.746335
  C      4.643054   -0.648362    0.615857
  O      4.551033   -1.874007    1.305346
  H     -5.640460   -1.161687    0.305435
  H     -4.325329   -3.224013   -0.050776
  H     -1.864970   -3.084882   -0.309027
  H     -4.478038    1.031567    0.400552
  H     -0.416613    3.637474    0.214616
  H      2.048524    3.835995   -0.046511
  H      3.399726    1.840460   -0.414957
  H      1.974740   -1.507278   -0.632678
  H      4.277449    0.161236   -1.353972
  H      4.181610   -1.604284   -1.252602
  H      4.246159    0.167688    1.232751
  H      5.710745   -0.486510    0.456825
  H      3.623372   -2.063124    1.500903

----------------------------
CARTESIAN COORDINATES (A.U.)
----------------------------
  NO LB      ZA    FRAG     MASS         X           Y           Z
   0 C     6.0000    0    12.011   -8.634496   -2.095391    0.362711
   1 C     6.0000    0    12.011   -7.237938   -4.283357   -0.015050
   2 C     6.0000    0    12.011   -4.643146   -4.148590   -0.288389
   3 C     6.0000    0    12.011   -3.398196   -1.830362   -0.190950
   4 C     6.0000    0    12.011   -4.809399    0.373612    0.189673
   5 C     6.0000    0    12.011   -7.424182    0.216709    0.464376
   6 C     6.0000    0    12.011   -3.567275    2.851576    0.305999
   7 O     8.0000    0    15.999   -4.779474    4.802272    0.657030
   8 C     6.0000    0    12.011   -0.801820    2.888557   -0.018257
   9 C     6.0000    0    12.011    0.369844    5.224149    0.092719
  10 C     6.0000    0    12.011    2.979058    5.419022   -0.187340
  11 C     6.0000    0    12.011    4.407795    3.298870   -0.581525
  12 C     6.0000    0    12.011    3.293346    0.869227   -0.725811
  13 C     6.0000    0    12.011    0.616790    0.657638   -0.421099
  14 C     6.0000    0    12.011   -0.626621   -1.776623   -0.497399
  15 O     8.0000    0    15.999    0.521503   -3.806883   -0.794369
  16 N     7.0000    0    14.007    4.702935   -1.188627   -1.161100
  17 C     6.0000    0    12.011    7.413885   -1.272615   -1.410369
  18 C     6.0000    0    12.011    8.774101   -1.225226    1.163801
  19 O     8.0000    0    15.999    8.600206   -3.541361    2.466746
  20 H     1.0000    0     1.008  -10.658926   -2.195270    0.577189
  21 H     1.0000    0     1.008   -8.173686   -6.092502   -0.095953
  22 H     1.0000    0     1.008   -3.524283   -5.829583   -0.583976
  23 H     1.0000    0     1.008   -8.462265    1.949380    0.756933
  24 H     1.0000    0     1.008   -0.787284    6.873829    0.405565
  25 H     1.0000    0     1.008    3.871150    7.248980   -0.087893
  26 H     1.0000    0     1.008    6.424551    3.477965   -0.784155
  27 H     1.0000    0     1.008    3.731718   -2.848343   -1.195587
  28 H     1.0000    0     1.008    8.083207    0.304691   -2.558636
  29 H     1.0000    0     1.008    7.902097   -3.031657   -2.367075
  30 H     1.0000    0     1.008    8.024078    0.316885    2.329562
  31 H     1.0000    0     1.008   10.791744   -0.919370    0.863274
  32 H     1.0000    0     1.008    6.847180   -3.898740    2.836296

--------------------------------
INTERNAL COORDINATES (ANGSTROEM)
--------------------------------
 C      0   0   0     0.000000000000     0.00000000     0.00000000
 C      1   0   0     1.388046381823     0.00000000     0.00000000
 C      2   1   0     1.382542856967   120.05475702     0.00000000
 C      3   2   1     1.393412884382   120.73778065   359.96611512
 C      4   3   2     1.399458171955   119.12684175     0.02394833
 C      1   2   3     1.382054648469   119.82287499     0.00000000
 C      5   4   3     1.468093496156   120.76326299   179.94443436
 O      7   5   4     1.229453100462   121.51114653   180.52080649
 C      7   5   4     1.473571191153   116.84766871     0.53348328
 C      9   7   5     1.383988072396   116.86084103   180.03493557
 C     10   9   7     1.392491065475   120.38649114   179.78189102
 C     11  10   9     1.368894494404   120.20995668     0.16034410
 C     12  11  10     1.416572606735   121.47711960     0.25144777
 C      9   7   5     1.415164559737   122.22678394   359.92613795
 C     14   9   7     1.447037827483   120.37212628   359.23126099
 O     15  14   9     1.244223308872   123.37807423   181.47035633
 N     13  12  11     1.339892888026   121.00761638   178.69231071
 C     17  13  12     1.441310291278   126.50517723     3.13070934
 C     18  17  13     1.540876323921   112.55324575    79.65398578
 O     19  18  17     1.409279979289   112.82130154    74.20448131
 H      1   2   3     1.078573396080   120.20543108   180.02199032
 H      2   1   3     1.078687834935   120.10724104   179.99496156
 H      3   2   1     1.079957552602   121.14217622   180.00901916
 H      6   1   2     1.080008439948   121.42916987   180.02998867
 H     10   9   7     1.079088786634   118.34304678   359.96565185
 H     11  10   9     1.078595194876   119.68797667   180.30409570
 H     12  11  10     1.076773146947   119.37003664   180.34332891
 H     17  13  12     1.017770127789   115.04355149   178.82993766
 H     18  17  13     1.091491677380   110.50884238   317.33191977
 H     18  17  13     1.090652973888   107.73228744   198.94851197
 H     19  18  17     1.097279481104   109.88577775   310.57342740
 H     19  18  17     1.091535951206   109.30166078   191.01111934
 H     20  19  18     0.966728043472   109.37575055   297.48431562

---------------------------
INTERNAL COORDINATES (A.U.)
---------------------------
 C      0   0   0     0.000000000000     0.00000000     0.00000000
 C      1   0   0     2.623027522826     0.00000000     0.00000000
 C      2   1   0     2.612627368076   120.05475702     0.00000000
 C      3   2   1     2.633168742960   120.73778065   359.96611512
 C      4   3   2     2.644592680872   119.12684175     0.02394833
 C      1   2   3     2.611704787719   119.82287499     0.00000000
 C      5   4   3     2.774294646726   120.76326299   179.94443436
 O      7   5   4     2.323329654373   121.51114653   180.52080649
 C      7   5   4     2.784645990116   116.84766871     0.53348328
 C      9   7   5     2.615358429442   116.86084103   180.03493557
 C     10   9   7     2.631426757680   120.38649114   179.78189102
 C     11  10   9     2.586835700656   120.20995668     0.16034410
 C     12  11  10     2.676934275544   121.47711960     0.25144777
 C      9   7   5     2.674273452335   122.22678394   359.92613795
 C     14   9   7     2.734505199368   120.37212628   359.23126099
 O     15  14   9     2.351241303209   123.37807423   181.47035633
 N     13  12  11     2.532030607158   121.00761638   178.69231071
 C     17  13  12     2.723681724518   126.50517723     3.13070934
 C     18  17  13     2.911834258455   112.55324575    79.65398578
 O     19  18  17     2.663153206874   112.82130154    74.20448131
 H      1   2   3     2.038208333925   120.20543108   180.02199032
 H      2   1   3     2.038424592020   120.10724104   179.99496156
 H      3   2   1     2.040824010677   121.14217622   180.00901916
 H      6   1   2     2.040920173825   121.42916987   180.02998867
 H     10   9   7     2.039182280924   118.34304678   359.96565185
 H     11  10   9     2.038249527679   119.68797667   180.30409570
 H     12  11  10     2.034806356091   119.37003664   180.34332891
 H     17  13  12     1.923306808807   115.04355149   178.82993766
 H     18  17  13     2.062620347702   110.50884238   317.33191977
 H     18  17  13     2.061035427795   107.73228744   198.94851197
 H     19  18  17     2.073557711658   109.88577775   310.57342740
 H     19  18  17     2.062704013109   109.30166078   191.01111934
 H     20  19  18     1.826851248145   109.37575055   297.48431562

---------------------
BASIS SET INFORMATION
---------------------
There are 4 groups of distinct atoms

 Group   1 Type C   : 11s6p1d contracted to 5s3p1d pattern {62111/411/1}
 Group   2 Type O   : 11s6p2d contracted to 5s3p2d pattern {62111/411/11}
 Group   3 Type N   : 11s6p2d contracted to 5s3p2d pattern {62111/411/11}
 Group   4 Type H   : 4s1p contracted to 2s1p pattern {31/1}

Atom   0C    basis set group =>   1
Atom   1C    basis set group =>   1
Atom   2C    basis set group =>   1
Atom   3C    basis set group =>   1
Atom   4C    basis set group =>   1
Atom   5C    basis set group =>   1
Atom   6C    basis set group =>   1
Atom   7O    basis set group =>   2
Atom   8C    basis set group =>   1
Atom   9C    basis set group =>   1
Atom  10C    basis set group =>   1
Atom  11C    basis set group =>   1
Atom  12C    basis set group =>   1
Atom  13C    basis set group =>   1
Atom  14C    basis set group =>   1
Atom  15O    basis set group =>   2
Atom  16N    basis set group =>   3
Atom  17C    basis set group =>   1
Atom  18C    basis set group =>   1
Atom  19O    basis set group =>   2
Atom  20H    basis set group =>   4
Atom  21H    basis set group =>   4
Atom  22H    basis set group =>   4
Atom  23H    basis set group =>   4
Atom  24H    basis set group =>   4
Atom  25H    basis set group =>   4
Atom  26H    basis set group =>   4
Atom  27H    basis set group =>   4
Atom  28H    basis set group =>   4
Atom  29H    basis set group =>   4
Atom  30H    basis set group =>   4
Atom  31H    basis set group =>   4
Atom  32H    basis set group =>   4
---------------------------------
AUXILIARY/J BASIS SET INFORMATION
---------------------------------
There are 4 groups of distinct atoms

 Group   1 Type C   : 12s5p4d2f1g contracted to 6s4p3d1f1g pattern {711111/2111/211/2/1}
 Group   2 Type O   : 12s5p4d2f1g contracted to 6s4p3d1f1g pattern {711111/2111/211/2/1}
 Group   3 Type N   : 12s5p4d2f1g contracted to 6s4p3d1f1g pattern {711111/2111/211/2/1}
 Group   4 Type H   : 5s2p1d contracted to 3s1p1d pattern {311/2/1}

Atom   0C    basis set group =>   1
Atom   1C    basis set group =>   1
Atom   2C    basis set group =>   1
Atom   3C    basis set group =>   1
Atom   4C    basis set group =>   1
Atom   5C    basis set group =>   1
Atom   6C    basis set group =>   1
Atom   7O    basis set group =>   2
Atom   8C    basis set group =>   1
Atom   9C    basis set group =>   1
Atom  10C    basis set group =>   1
Atom  11C    basis set group =>   1
Atom  12C    basis set group =>   1
Atom  13C    basis set group =>   1
Atom  14C    basis set group =>   1
Atom  15O    basis set group =>   2
Atom  16N    basis set group =>   3
Atom  17C    basis set group =>   1
Atom  18C    basis set group =>   1
Atom  19O    basis set group =>   2
Atom  20H    basis set group =>   4
Atom  21H    basis set group =>   4
Atom  22H    basis set group =>   4
Atom  23H    basis set group =>   4
Atom  24H    basis set group =>   4
Atom  25H    basis set group =>   4
Atom  26H    basis set group =>   4
Atom  27H    basis set group =>   4
Atom  28H    basis set group =>   4
Atom  29H    basis set group =>   4
Atom  30H    basis set group =>   4
Atom  31H    basis set group =>   4
Atom  32H    basis set group =>   4

Checking for AutoStart:
The File: sp_gas.gbw exists
Trying to determine its content:
     ... Fine, the file contains calculation information
     ... Fine, the calculation information was read
     ... Fine, the file contains a basis set
     ... Fine, the basis set was read
     ... Fine, the file contains a geometry
     ... Fine, the geometry was read
     ... Fine, the file contains a set of orbitals
     ... Fine, the orbitals can be read
     => possible old guess file was deleted
     => GBW file was renamed to GES file
     => GES file is set as startup file
     => Guess is set to MORead
     ... now leaving AutoStart

------------------------------------------------------------------------------
                             ORCA STARTUP CALCULATIONS
                           -- RI-GTO INTEGRALS CHOSEN --
------------------------------------------------------------------------------
------------------------------------------------------------------------------
                   ___                                                        
                  /   \      - P O W E R E D   B Y -                         
                 /     \                                                     
                 |  |  |   _    _      __       _____    __    __             
                 |  |  |  | |  | |    /  \     |  _  \  |  |  /  |          
                  \  \/   | |  | |   /    \    | | | |  |  | /  /          
                 / \  \   | |__| |  /  /\  \   | |_| |  |  |/  /          
                |  |  |   |  __  | /  /__\  \  |    /   |      \           
                |  |  |   | |  | | |   __   |  |    \   |  |\   \          
                \     /   | |  | | |  |  |  |  | |\  \  |  | \   \       
                 \___/    |_|  |_| |__|  |__|  |_| \__\ |__|  \__/        
                                                                              
                      - O R C A' S   B I G   F R I E N D -                    
                                      &                                       
                       - I N T E G R A L  F E E D E R -                       
                                                                              
 v1 FN, 2020, v2 2021, v3 2022-2024                                           
------------------------------------------------------------------------------


----------------------
SHARK INTEGRAL PACKAGE
----------------------

Number of atoms                             ...     33
Number of basis functions                   ...    465
Number of shells                            ...    223
Maximum angular momentum                    ...      2
Integral batch strategy                     ... SHARK/LIBINT Hybrid
RI-J (if used) integral strategy            ... SPLIT-RIJ (Revised 2003 algorithm where possible)
Printlevel                                  ...      1
Contraction scheme used                     ... SEGMENTED contraction
Prescreening option                         ... SCHWARTZ
   Thresh                                   ... 1.000e-10
   Tcut                                     ... 1.000e-11
   Tpresel                                  ... 1.000e-11 
Coulomb Range Separation                    ... NOT USED
Exchange Range Separation                   ... NOT USED
Multipole approximations                    ... NOT USED
Finite Nucleus Model                        ... NOT USED
CABS basis                                  ... NOT available
Auxiliary Coulomb fitting basis             ... AVAILABLE
   # of basis functions in Aux-J            ...   1123
   # of shells in Aux-J                     ...    365
   Maximum angular momentum in Aux-J        ...      4
Auxiliary J/K fitting basis                 ... NOT available
Auxiliary Correlation fitting basis         ... NOT available
Auxiliary 'external' fitting basis          ... NOT available

Checking pre-screening integrals            ... done (  0.0 sec) Dimension = 223
Check shell pair data                       ... done (  0.0 sec)
Shell pair information
Shell pair cut-off parameter TPreSel        ...   1.0e-11
Total number of shell pairs                 ...     24976
Shell pairs after pre-screening             ...     17953
Total number of primitive shell pairs       ...     92714
Primitive shell pairs kept                  ...     42489
          la=0 lb=0:   5394 shell pairs
          la=1 lb=0:   6825 shell pairs
          la=1 lb=1:   2154 shell pairs
          la=2 lb=0:   2052 shell pairs
          la=2 lb=1:   1313 shell pairs
          la=2 lb=2:    215 shell pairs

Calculating one electron integrals          ... done (  0.1 sec)
Calculating RI/J V-Matrix + Cholesky decomp.... done (  0.3 sec)
Calculating Nuclear repulsion               ... done (  0.0 sec) ENN=   1465.817169014397 Eh

Diagonalization of the overlap matrix:
Smallest eigenvalue                        ... 6.120e-06
Time for diagonalization                   ...    0.029 sec
Threshold for overlap eigenvalues          ... 1.000e-07
Number of eigenvalues below threshold      ... 0
Time for construction of square roots      ...    0.040 sec
Total time needed                          ...    0.105 sec

-------------------
DFT GRID GENERATION
-------------------

General Integration Accuracy     IntAcc      ... 4.388
Radial Grid Type                 RadialGrid  ... OptM3 with GC (2021)
Angular Grid (max. ang.)         AngularGrid ... 4 (Lebedev-302)
Angular grid pruning method      GridPruning ... 4 (adaptive)
Weight generation scheme         WeightScheme... mBecke (2022)
Basis function cutoff            BFCut       ... 1.0000e-10
Integration weight cutoff        WCut        ... 1.0000e-14
Partially contracted basis set               ... off
Rotationally invariant grid construction     ... off
Angular grids for H and He will be reduced by one unit
Diffuse basis detected: some atoms will have their outermost
                        angular grid increased by 1.

Total number of grid points                  ...   161812
Total number of batches                      ...     2547
Average number of points per batch           ...       63
Average number of grid points per atom       ...     4903
Initializing property integral containers    ... done (  0.1 sec)

SHARK setup successfully completed in   3.8 seconds

Maximum memory used throughout the entire STARTUP-calculation: 83.6 MB
-------------------------------------------------------------------------------
                                 ORCA GUESS
                   Start orbitals & Density for SCF / CASSCF
-------------------------------------------------------------------------------

------------
SCF SETTINGS
------------
Hamiltonian:
 Density Functional     Method          .... DFT(GTOs)
  Functional kind                       .... Exchange
  Functional name                       .... Re-regularized SCAN exchange by Furness et al
  Functional family                     .... MGGA
  Functional refs                              
    [ 0] J. W. Furness, A. D. Kaplan, J. Ning, J. P. Perdew, and J. Sun.,  J. Phys. Chem. Lett. 11, 8208-8215 (2020), doi: 10.1021/acs.jpclett.0c02405
    [ 1] J. W. Furness, A. D. Kaplan, J. Ning, J. P. Perdew, and J. Sun.,  J. Phys. Chem. Lett. 11, 9248-9248 (2020), doi: 10.1021/acs.jpclett.0c03077
  Functional external parameters        .... 6
    Parameter  0 _c1        =  6.670000e-01 : c1 parameter        
    Parameter  1 _c2        =  8.000000e-01 : c2 parameter        
    Parameter  2 _d         =  1.240000e+00 : d parameter         
    Parameter  3 _k1        =  6.500000e-02 : k1 parameter        
    Parameter  4 _eta       =  1.000000e-03 : eta parameter       
    Parameter  5 _dp2       =  3.610000e-01 : dp2 parameter       
  Functional kind                       .... Correlation
  Functional name                       .... Re-regularized SCAN correlation by Furness et al
  Functional family                     .... MGGA
  Functional refs                              
    [ 0] J. W. Furness, A. D. Kaplan, J. Ning, J. P. Perdew, and J. Sun.,  J. Phys. Chem. Lett. 11, 8208-8215 (2020), doi: 10.1021/acs.jpclett.0c02405
    [ 1] J. W. Furness, A. D. Kaplan, J. Ning, J. P. Perdew, and J. Sun.,  J. Phys. Chem. Lett. 11, 9248-9248 (2020), doi: 10.1021/acs.jpclett.0c03077
  Functional external parameters        .... 1
    Parameter  0 _eta       =  1.000000e-03 : Regularization parameter
 Gradients option       PostSCFGGA      .... off
 RI-approximation to the Coulomb term is turned on
   Number of AuxJ basis functions       .... 1123


General Settings:
 Integral files         IntName         .... sp_gas
 Hartree-Fock type      HFTyp           .... RHF
 Total Charge           Charge          ....    0
 Multiplicity           Mult            ....    1
 Number of Electrons    NEL             ....  140
 Basis Dimension        Dim             ....  465
 Nuclear Repulsion      ENuc            ....   1465.8171690144 Eh

Convergence Acceleration:
 AO-DIIS                CNVDIIS         .... on
   Start iteration      DIISMaxIt       ....    12
   Startup error        DIISStart       ....  0.200000
   # of expansion vecs  DIISMaxEq       ....     5
   Bias factor          DIISBfac        ....   1.050
   Max. coefficient     DIISMaxC        ....  10.000
 MO-DIIS                CNVKDIIS        .... off
 Trust-Rad. Augm. Hess. CNVTRAH         .... auto
   Auto Start mean grad. ratio tolernc. ....  1.125000
   Auto Start start iteration           ....     1
   Auto Start num. interpolation iter.  ....    10
   Max. Number of Micro iterations      ....    24
   Max. Number of Macro iterations      .... Maxiter - #DIIS iter
   Number of Davidson start vectors     ....     2
   Converg. threshold    (grad. norm)   ....   3.330e-04
   Grad. Scal. Fac. for Micro threshold ....   0.100
   Minimum threshold for Micro iter.    ....   1.000e-02
   NR start threshold (gradient norm)   ....   1.000e-04
   Initial trust radius                 ....   0.400
   Minimum AH scaling param. (alpha)    ....   1.000
   Maximum AH scaling param. (alpha)    .... 1000.000
   Quad. conv. algorithm                .... NR
   White noise on init. David. guess    .... on
   Maximum white noise                  ....   0.010
   Pseudo random numbers                .... off
   Inactive MOs                         .... canonical
   Orbital update algorithm             .... Taylor
   Preconditioner                       .... Diag
   Full preconditioner red. dimension   ....   250
   COSX micro iterations for RIJONX calc.... off
 SOSCF                  CNVSOSCF        .... on
   Start iteration      SOSCFMaxIt      ....   150
   Startup grad/error   SOSCFStart      ....  0.003300
   Hessian update       SOSCFHessUp     .... L-BFGS
 Level Shifting         CNVShift        .... on
   Level shift para.    LevelShift      ....    0.2500
   Turn off err/grad.   ShiftErr        ....    0.0010
 Zerner damping         CNVZerner       .... off
 Static damping         CNVDamp         .... on
   Fraction old density DampFac         ....    0.7000
   Max. Damping (<1)    DampMax         ....    0.9800
   Min. Damping (>=0)   DampMin         ....    0.0000
   Turn off err/grad.   DampErr         ....    0.1000

SCF Procedure:
 Maximum # iterations   MaxIter         ....   125
 SCF integral mode      SCFMode         .... Direct
   Integral package                     .... SHARK and LIBINT hybrid scheme
 Reset frequency        DirectResetFreq ....    20
 Integral Threshold     Thresh          ....  1.000e-10 Eh
 Primitive CutOff       TCut            ....  1.000e-11 Eh

Convergence Tolerance:
 Convergence Check Mode ConvCheckMode   .... Total+1el-Energy
 Convergence forced     ConvForced      .... 0
 Energy Change          TolE            ....  1.000e-06 Eh
 1-El. energy change                    ....  1.000e-03 Eh
 Orbital Gradient       TolG            ....  3.330e-04
 Orbital Rotation angle TolX            ....  3.330e-04
 DIIS Error             TolErr          ....  1.000e-06

---------------------
INITIAL GUESS: MOREAD
---------------------
Guess MOs are being read from file: sp_gas.ges
Input Geometry matches current geometry (good)
Atom 0: N(Shells)= 9 and 6 - projection required
Input basis set needs projection
NBasis(read)= 306
NBasis(calc)= 465
Basis set overlap was calculated
Using GuessMode=FMatrix for the initial guess
C*T matrix was formed
Effective Fockian was calculated
Effective Fockian was diagonalized
Initial density was built
                      ------------------
                      INITIAL GUESS DONE (   0.2 sec)
                      ------------------
             **** ENERGY FILE WAS UPDATED (sp_gas.en.tmp) ****
Finished Guess after   0.6 sec
Maximum memory used throughout the entire GUESS-calculation: 47.3 MB

-------------------------------------------------------------------------------------------
                                      ORCA LEAN-SCF
                              memory conserving SCF solver
-------------------------------------------------------------------------------------------

----------------------------------------D-I-I-S--------------------------------------------
Iteration    Energy (Eh)           Delta-E    RMSDP     MaxDP     DIISErr   Damp  Time(sec)
-------------------------------------------------------------------------------------------
               ***  Starting incremental Fock matrix formation  ***
    1    -897.3671162117248059     0.00e+00  2.36e-02  1.71e+00  6.27e-01  0.700  12.5
Warning: op=0 Small HOMO/LUMO gap (   0.068) - skipping pre-diagonalization
         Will do a full diagonalization
    2    -897.4921012693871489    -1.25e-01  1.72e-02  1.18e+00  4.41e-01  0.700  10.7
    3    -897.5803399271298986    -8.82e-02  1.20e-02  8.16e-01  3.09e-01  0.700  10.4
    4    -897.6422183560230224    -6.19e-02  8.36e-03  5.67e-01  2.16e-01  0.700  10.3
                               ***Turning on AO-DIIS***
    5    -897.6856032109781154    -4.34e-02  5.83e-03  3.92e-01  1.51e-01  0.700  10.4
    6    -897.7160036264731389    -3.04e-02  4.09e-03  2.75e-01  1.06e-01  0.700  10.1
    7    -897.7373119780768320    -2.13e-02  2.86e-03  1.92e-01  7.42e-02  0.700   9.7
    8    -897.7522388780926121    -1.49e-02  6.64e-03  4.45e-01  5.20e-02  0.000   9.6
                              *** Initializing SOSCF ***
---------------------------------------S-O-S-C-F--------------------------------------
Iteration    Energy (Eh)           Delta-E    RMSDP     MaxDP     MaxGrad    Time(sec)
--------------------------------------------------------------------------------------
    9    -897.7871056592639434    -3.49e-02  2.79e-05  2.28e-03  3.06e-04    10.0
               *** Restarting incremental Fock matrix formation ***
   10    -897.7871053031090014     3.56e-07  1.92e-04  1.38e-02  1.86e-04    12.3
   11    -897.7871008092215561     4.49e-06  6.56e-05  4.65e-03  5.31e-04     8.4
   12    -897.7871061002529132    -5.29e-06  3.58e-05  2.79e-03  1.33e-05     8.3
                  *** Gradient check signals convergence ***

               *****************************************************
               *                     SUCCESS                       *
               *           SCF CONVERGED AFTER  12 CYCLES          *
               *****************************************************

             **** ENERGY FILE WAS UPDATED (sp_gas.en.tmp) ****

----------------
TOTAL SCF ENERGY
----------------

Total Energy       :       -897.78710610025291 Eh          -24430.02916 eV

Components:
Nuclear Repulsion  :       1465.81716901439677 Eh           39886.91298 eV
Electronic Energy  :      -2363.60427511464968 Eh          -64316.94214 eV
One Electron Energy:      -4131.30945805943156 Eh         -112418.64561 eV
Two Electron Energy:       1767.70518294478211 Eh           48101.70347 eV

Virial components:
Potential Energy   :      -1792.09576909021143 Eh          -48765.40506 eV
Kinetic Energy     :        894.30866298995852 Eh           24335.37591 eV
Virial Ratio       :          2.00388953305972

DFT components:
N(Alpha)           :       70.000026185213 electrons
N(Beta)            :       70.000026185213 electrons
N(Total)           :      140.000052370427 electrons
E(X)               :     -119.555308288875 Eh       
E(C)               :       -4.618888926014 Eh       
E(XC)              :     -124.174197214889 Eh       

---------------
SCF CONVERGENCE
---------------

  Last Energy change         ...    5.2910e-06  Tolerance :   1.0000e-06
  Last MAX-Density change    ...    2.7863e-03  Tolerance :   1.0000e-05
  Last RMS-Density change    ...    3.5823e-05  Tolerance :   1.0000e-06
  Last DIIS Error            ...    3.0628e-04  Tolerance :   1.0000e-06
  Last Orbital Gradient      ...    1.3271e-05  Tolerance :   3.3300e-04
  Last Orbital Rotation      ...    7.0449e-05  Tolerance :   3.3300e-04


----------------
ORBITAL ENERGIES
----------------

  NO   OCC          E(Eh)            E(eV) 
   0   2.0000     -18.960646      -515.9454 
   1   2.0000     -18.946063      -515.5486 
   2   2.0000     -18.940422      -515.3951 
   3   2.0000     -14.193910      -386.2359 
   4   2.0000     -10.128157      -275.6012 
   5   2.0000     -10.124612      -275.5047 
   6   2.0000     -10.107969      -275.0518 
   7   2.0000     -10.091706      -274.6093 
   8   2.0000     -10.084098      -274.4022 
   9   2.0000     -10.062232      -273.8073 
  10   2.0000     -10.061960      -273.7999 
  11   2.0000     -10.060963      -273.7727 
  12   2.0000     -10.059587      -273.7353 
  13   2.0000     -10.059002      -273.7194 
  14   2.0000     -10.056245      -273.6443 
  15   2.0000     -10.055302      -273.6187 
  16   2.0000     -10.055047      -273.6117 
  17   2.0000     -10.052724      -273.5485 
  18   2.0000     -10.052159      -273.5332 
  19   2.0000     -10.044268      -273.3184 
  20   2.0000      -1.010421       -27.4950 
  21   2.0000      -1.004675       -27.3386 
  22   2.0000      -0.998974       -27.1835 
  23   2.0000      -0.932824       -25.3834 
  24   2.0000      -0.853510       -23.2252 
  25   2.0000      -0.837329       -22.7849 
  26   2.0000      -0.777641       -21.1607 
  27   2.0000      -0.750475       -20.4215 
  28   2.0000      -0.739722       -20.1288 
  29   2.0000      -0.735110       -20.0034 
  30   2.0000      -0.703182       -19.1345 
  31   2.0000      -0.655149       -17.8275 
  32   2.0000      -0.636619       -17.3233 
  33   2.0000      -0.616939       -16.7878 
  34   2.0000      -0.608985       -16.5713 
  35   2.0000      -0.572330       -15.5739 
  36   2.0000      -0.555769       -15.1232 
  37   2.0000      -0.525939       -14.3115 
  38   2.0000      -0.519628       -14.1398 
  39   2.0000      -0.500656       -13.6235 
  40   2.0000      -0.487136       -13.2556 
  41   2.0000      -0.470812       -12.8115 
  42   2.0000      -0.463706       -12.6181 
  43   2.0000      -0.451818       -12.2946 
  44   2.0000      -0.445697       -12.1280 
  45   2.0000      -0.434658       -11.8277 
  46   2.0000      -0.430948       -11.7267 
  47   2.0000      -0.418915       -11.3993 
  48   2.0000      -0.409886       -11.1536 
  49   2.0000      -0.406708       -11.0671 
  50   2.0000      -0.402488       -10.9523 
  51   2.0000      -0.394063       -10.7230 
  52   2.0000      -0.388132       -10.5616 
  53   2.0000      -0.378047       -10.2872 
  54   2.0000      -0.372396       -10.1334 
  55   2.0000      -0.368224       -10.0199 
  56   2.0000      -0.354811        -9.6549 
  57   2.0000      -0.349588        -9.5128 
  58   2.0000      -0.341080        -9.2813 
  59   2.0000      -0.334629        -9.1057 
  60   2.0000      -0.325854        -8.8669 
  61   2.0000      -0.317802        -8.6478 
  62   2.0000      -0.297059        -8.0834 
  63   2.0000      -0.264282        -7.1915 
  64   2.0000      -0.255166        -6.9434 
  65   2.0000      -0.253805        -6.9064 
  66   2.0000      -0.252239        -6.8638 
  67   2.0000      -0.237799        -6.4708 
  68   2.0000      -0.225173        -6.1273 
  69   2.0000      -0.200622        -5.4592 
  70   0.0000      -0.132593        -3.6080 
  71   0.0000      -0.082175        -2.2361 
  72   0.0000      -0.053250        -1.4490 
  73   0.0000      -0.032098        -0.8734 
  74   0.0000       0.019966         0.5433 
  75   0.0000       0.030021         0.8169 
  76   0.0000       0.041464         1.1283 
  77   0.0000       0.066029         1.7967 
  78   0.0000       0.079909         2.1744 
  79   0.0000       0.086721         2.3598 
  80   0.0000       0.091616         2.4930 
*Only the first 10 virtual orbitals were printed.

                    ********************************
                    * MULLIKEN POPULATION ANALYSIS *
                    ********************************

-----------------------
MULLIKEN ATOMIC CHARGES
-----------------------
   0 C :   -0.130123
   1 C :   -0.126141
   2 C :   -0.226768
   3 C :    0.188305
   4 C :    0.137622
   5 C :   -0.214427
   6 C :    0.037646
   7 O :   -0.353350
   8 C :    0.195508
   9 C :   -0.248951
  10 C :   -0.140849
  11 C :   -0.307794
  12 C :    0.307620
  13 C :   -0.145192
  14 C :    0.013989
  15 O :   -0.441481
  16 N :   -0.060371
  17 C :   -0.305808
  18 C :   -0.126837
  19 O :   -0.417215
  20 H :    0.149407
  21 H :    0.149152
  22 H :    0.182337
  23 H :    0.182041
  24 H :    0.185496
  25 H :    0.147850
  26 H :    0.145347
  27 H :    0.316111
  28 H :    0.147017
  29 H :    0.169412
  30 H :    0.141744
  31 H :    0.143532
  32 H :    0.305169
Sum of atomic charges:    0.0000000

--------------------------------
MULLIKEN REDUCED ORBITAL CHARGES
--------------------------------
  0 C s       :     3.201065  s :     3.201065
      pz      :     0.966107  p :     2.891486
      px      :     1.020399
      py      :     0.904980
      dz2     :     0.003313  d :     0.037572
      dxz     :     0.002628
      dyz     :     0.006388
      dx2y2   :     0.013463
      dxy     :     0.011780

  1 C s       :     3.199680  s :     3.199680
      pz      :     0.960714  p :     2.888802
      px      :     0.938399
      py      :     0.989688
      dz2     :     0.003393  d :     0.037660
      dxz     :     0.005660
      dyz     :     0.003401
      dx2y2   :     0.012142
      dxy     :     0.013063

  2 C s       :     3.238420  s :     3.238420
      pz      :     0.942419  p :     2.951487
      px      :     0.973867
      py      :     1.035202
      dz2     :     0.003264  d :     0.036861
      dxz     :     0.005424
      dyz     :     0.003589
      dx2y2   :     0.011261
      dxy     :     0.013322

  3 C s       :     3.194726  s :     3.194726
      pz      :     0.986641  p :     2.571707
      px      :     0.724359
      py      :     0.860707
      dz2     :     0.003906  d :     0.045262
      dxz     :     0.004531
      dyz     :     0.007021
      dx2y2   :     0.016070
      dxy     :     0.013734

  4 C s       :     3.239942  s :     3.239942
      pz      :     0.982542  p :     2.577121
      px      :     0.850644
      py      :     0.743934
      dz2     :     0.004001  d :     0.045315
      dxz     :     0.006266
      dyz     :     0.004877
      dx2y2   :     0.014411
      dxy     :     0.015760

  5 C s       :     3.237257  s :     3.237257
      pz      :     0.934615  p :     2.940179
      px      :     0.979963
      py      :     1.025601
      dz2     :     0.003256  d :     0.036991
      dxz     :     0.005184
      dyz     :     0.003930
      dx2y2   :     0.012454
      dxy     :     0.012168

  6 C s       :     3.374543  s :     3.374543
      pz      :     0.783889  p :     2.495562
      px      :     0.898440
      py      :     0.813233
      dz2     :     0.005311  d :     0.092248
      dxz     :     0.009414
      dyz     :     0.013787
      dx2y2   :     0.038499
      dxy     :     0.025238

  7 O s       :     3.863042  s :     3.863042
      pz      :     1.362705  p :     4.465580
      px      :     1.682437
      py      :     1.420437
      dz2     :     0.005595  d :     0.024728
      dxz     :     0.005181
      dyz     :     0.008295
      dx2y2   :     0.001164
      dxy     :     0.004493

  8 C s       :     3.212280  s :     3.212280
      pz      :     0.982832  p :     2.546291
      px      :     0.689570
      py      :     0.873889
      dz2     :     0.004018  d :     0.045921
      dxz     :     0.004157
      dyz     :     0.008527
      dx2y2   :     0.015745
      dxy     :     0.013474

  9 C s       :     3.227427  s :     3.227427
      pz      :     0.967334  p :     2.984932
      px      :     0.978451
      py      :     1.039147
      dz2     :     0.003278  d :     0.036591
      dxz     :     0.005159
      dyz     :     0.003711
      dx2y2   :     0.011509
      dxy     :     0.012935

 10 C s       :     3.221886  s :     3.221886
      pz      :     0.950104  p :     2.879829
      px      :     0.949152
      py      :     0.980573
      dz2     :     0.003532  d :     0.039135
      dxz     :     0.006633
      dyz     :     0.003770
      dx2y2   :     0.012176
      dxy     :     0.013023

 11 C s       :     3.249878  s :     3.249878
      pz      :     1.058938  p :     3.022404
      px      :     1.046921
      py      :     0.916545
      dz2     :     0.003459  d :     0.035512
      dxz     :     0.002511
      dyz     :     0.005842
      dx2y2   :     0.013055
      dxy     :     0.010645

 12 C s       :     3.052949  s :     3.052949
      pz      :     0.893359  p :     2.573638
      px      :     0.836198
      py      :     0.844082
      dz2     :     0.005543  d :     0.065793
      dxz     :     0.009361
      dyz     :     0.013294
      dx2y2   :     0.017886
      dxy     :     0.019709

 13 C s       :     3.447937  s :     3.447937
      pz      :     1.075184  p :     2.654828
      px      :     0.834139
      py      :     0.745504
      dz2     :     0.004040  d :     0.042427
      dxz     :     0.005392
      dyz     :     0.004835
      dx2y2   :     0.014704
      dxy     :     0.013455

 14 C s       :     3.436936  s :     3.436936
      pz      :     0.793141  p :     2.458156
      px      :     0.855818
      py      :     0.809197
      dz2     :     0.005191  d :     0.090919
      dxz     :     0.008621
      dyz     :     0.015971
      dx2y2   :     0.036200
      dxy     :     0.024936

 15 O s       :     3.849508  s :     3.849508
      pz      :     1.440439  p :     4.558926
      px      :     1.709640
      py      :     1.408847
      dz2     :     0.006371  d :     0.033048
      dxz     :     0.004694
      dyz     :     0.008468
      dx2y2   :     0.008861
      dxy     :     0.004654

 16 N s       :     3.298987  s :     3.298987
      pz      :     1.591899  p :     3.665698
      px      :     0.978802
      py      :     1.094997
      dz2     :     0.009246  d :     0.095686
      dxz     :     0.015953
      dyz     :     0.014394
      dx2y2   :     0.027318
      dxy     :     0.028774

 17 C s       :     3.313329  s :     3.313329
      pz      :     0.985266  p :     2.945050
      px      :     0.828589
      py      :     1.131194
      dz2     :     0.007535  d :     0.047429
      dxz     :     0.013995
      dyz     :     0.007156
      dx2y2   :     0.013330
      dxy     :     0.005413

 18 C s       :     3.287725  s :     3.287725
      pz      :     0.908296  p :     2.780500
      px      :     1.052295
      py      :     0.819909
      dz2     :     0.012771  d :     0.058612
      dxz     :     0.007190
      dyz     :     0.016901
      dx2y2   :     0.014254
      dxy     :     0.007496

 19 O s       :     3.759803  s :     3.759803
      pz      :     1.754345  p :     4.643749
      px      :     1.439844
      py      :     1.449559
      dz2     :     0.004266  d :     0.013663
      dxz     :     0.000774
      dyz     :     0.002479
      dx2y2   :     0.006439
      dxy     :    -0.000295

 20 H s       :     0.831077  s :     0.831077
      pz      :     0.004049  p :     0.019516
      px      :     0.012324
      py      :     0.003144

 21 H s       :     0.831357  s :     0.831357
      pz      :     0.003943  p :     0.019491
      px      :     0.005073
      py      :     0.010476

 22 H s       :     0.797646  s :     0.797646
      pz      :     0.003906  p :     0.020017
      px      :     0.006767
      py      :     0.009345

 23 H s       :     0.798017  s :     0.798017
      pz      :     0.003854  p :     0.019942
      px      :     0.005289
      py      :     0.010799

 24 H s       :     0.794268  s :     0.794268
      pz      :     0.004173  p :     0.020236
      px      :     0.007031
      py      :     0.009032

 25 H s       :     0.832676  s :     0.832676
      pz      :     0.003869  p :     0.019474
      px      :     0.004905
      py      :     0.010701

 26 H s       :     0.834162  s :     0.834162
      pz      :     0.004720  p :     0.020491
      px      :     0.012406
      py      :     0.003365

 27 H s       :     0.646430  s :     0.646430
      pz      :     0.008747  p :     0.037458
      px      :     0.012126
      py      :     0.016586

 28 H s       :     0.834999  s :     0.834999
      pz      :     0.006248  p :     0.017984
      px      :     0.003673
      py      :     0.008063

 29 H s       :     0.812886  s :     0.812886
      pz      :     0.005254  p :     0.017701
      px      :     0.003108
      py      :     0.009339

 30 H s       :     0.841030  s :     0.841030
      pz      :     0.005600  p :     0.017226
      px      :     0.004218
      py      :     0.007408

 31 H s       :     0.839193  s :     0.839193
      pz      :     0.003321  p :     0.017276
      px      :     0.011257
      py      :     0.002698

 32 H s       :     0.651579  s :     0.651579
      pz      :     0.012232  p :     0.043252
      px      :     0.021432
      py      :     0.009588


------------------------
MULLIKEN OVERLAP CHARGES
------------------------
B(  0-C ,  1-C ) :   0.5633 B(  0-C ,  2-C ) :   0.0838 B(  0-C ,  3-C ) :  -0.2765 
B(  0-C ,  4-C ) :   0.0688 B(  0-C ,  5-C ) :   0.4602 B(  0-C , 20-H ) :   0.8132 
B(  0-C , 21-H ) :  -0.0646 B(  0-C , 23-H ) :  -0.1152 B(  1-C ,  2-C ) :   0.3864 
B(  1-C ,  3-C ) :   0.1084 B(  1-C ,  4-C ) :  -0.2641 B(  1-C ,  5-C ) :   0.0589 
B(  1-C , 20-H ) :  -0.0651 B(  1-C , 21-H ) :   0.8130 B(  1-C , 22-H ) :  -0.1163 
B(  2-C ,  3-C ) :   0.7315 B(  2-C ,  4-C ) :  -0.3363 B(  2-C ,  5-C ) :  -0.3113 
B(  2-C ,  6-C ) :   0.1384 B(  2-C , 13-C ) :   0.1612 B(  2-C , 14-C ) :  -0.4435 
B(  2-C , 15-O ) :   0.1223 B(  2-C , 21-H ) :  -0.0612 B(  2-C , 22-H ) :   0.8441 
B(  3-C ,  4-C ) :  -2.5674 B(  3-C ,  5-C ) :  -0.3199 B(  3-C ,  6-C ) :   1.6429 
B(  3-C ,  7-O ) :  -0.0624 B(  3-C ,  8-C ) :  -2.0346 B(  3-C ,  9-C ) :  -0.0535 
B(  3-C , 12-C ) :   0.2521 B(  3-C , 13-C ) :   1.7573 B(  3-C , 14-C ) :  -1.9133 
B(  3-C , 15-O ) :  -0.4391 B(  4-C ,  5-C ) :   0.8287 B(  4-C ,  6-C ) :  -2.3012 
B(  4-C ,  7-O ) :  -0.4072 B(  4-C ,  8-C ) :   1.7671 B(  4-C ,  9-C ) :   0.1951 
B(  4-C , 13-C ) :  -2.3066 B(  4-C , 14-C ) :   1.6790 B(  5-C ,  6-C ) :  -0.5934 
B(  5-C ,  7-O ) :   0.1269 B(  5-C ,  8-C ) :   0.1988 B(  5-C , 14-C ) :   0.1669 
B(  5-C , 20-H ) :  -0.0607 B(  5-C , 23-H ) :   0.8483 B(  6-C ,  7-O ) :   1.3686 
B(  6-C ,  8-C ) :  -2.1176 B(  6-C ,  9-C ) :  -0.6173 B(  6-C , 10-C ) :   0.1069 
B(  6-C , 11-C ) :  -0.0601 B(  6-C , 12-C ) :   0.2184 B(  6-C , 13-C ) :   1.6243 
B(  6-C , 14-C ) :  -1.4641 B(  7-O ,  8-C ) :  -0.4161 B(  7-O ,  9-C ) :   0.1204 
B(  7-O , 13-C ) :  -0.0736 B(  8-C ,  9-C ) :   0.7161 B(  8-C , 10-C ) :   0.1906 
B(  8-C , 11-C ) :  -0.4952 B(  8-C , 13-C ) :  -3.1116 B(  8-C , 14-C ) :   1.2088 
B(  9-C , 11-C ) :   0.3172 B(  9-C , 12-C ) :  -0.6211 B(  9-C , 13-C ) :  -0.1444 
B(  9-C , 14-C ) :   0.2410 B(  9-C , 24-H ) :   0.8740 B(  9-C , 25-H ) :  -0.0735 
B( 10-C , 11-C ) :   0.1517 B( 10-C , 12-C ) :   0.3190 B( 10-C , 13-C ) :  -0.4093 
B( 10-C , 24-H ) :  -0.1311 B( 10-C , 25-H ) :   0.8312 B( 11-C , 13-C ) :   0.2060 
B( 11-C , 14-C ) :   0.0766 B( 11-C , 16-N ) :  -0.2170 B( 11-C , 25-H ) :  -0.0779 
B( 11-C , 26-H ) :   0.7851 B( 12-C , 13-C ) :  -0.6064 B( 12-C , 14-C ) :  -1.1001 
B( 12-C , 15-O ) :   0.1733 B( 12-C , 16-N ) :   0.5988 B( 12-C , 17-C ) :  -0.1547 
B( 12-C , 26-H ) :  -0.0834 B( 13-C , 14-C ) :  -1.9317 B( 13-C , 15-O ) :  -0.3407 
B( 13-C , 16-N ) :   0.0509 B( 13-C , 17-C ) :   0.0522 B( 13-C , 27-H ) :  -0.0890 
B( 14-C , 15-O ) :   1.1599 B( 15-O , 16-N ) :  -0.2087 B( 15-O , 27-H ) :   0.0899 
B( 16-N , 17-C ) :   0.2849 B( 16-N , 18-C ) :  -0.1267 B( 16-N , 27-H ) :   0.6767 
B( 16-N , 28-H ) :  -0.0565 B( 16-N , 29-H ) :  -0.0797 B( 17-C , 18-C ) :   0.3382 
B( 17-C , 19-O ) :  -0.1109 B( 17-C , 27-H ) :  -0.0513 B( 17-C , 28-H ) :   0.7890 
B( 17-C , 29-H ) :   0.8178 B( 17-C , 30-H ) :  -0.1355 B( 17-C , 31-H ) :  -0.1008 
B( 18-C , 19-O ) :   0.4755 B( 18-C , 28-H ) :  -0.0899 B( 18-C , 30-H ) :   0.9075 
B( 18-C , 31-H ) :   0.8454 B( 18-C , 32-H ) :  -0.0829 B( 19-O , 30-H ) :  -0.1039 
B( 19-O , 31-H ) :  -0.1008 B( 19-O , 32-H ) :   0.5891 B( 30-H , 31-H ) :  -0.0596 



                     *******************************
                     * LOEWDIN POPULATION ANALYSIS *
                     *******************************

----------------------
LOEWDIN ATOMIC CHARGES
----------------------
   0 C :   -0.142171
   1 C :   -0.139244
   2 C :   -0.101331
   3 C :   -0.026255
   4 C :   -0.035596
   5 C :   -0.096247
   6 C :    0.269970
   7 O :   -0.478106
   8 C :   -0.023015
   9 C :   -0.122268
  10 C :   -0.125431
  11 C :   -0.142879
  12 C :    0.200383
  13 C :   -0.034760
  14 C :    0.270412
  15 O :   -0.539843
  16 N :   -0.681545
  17 C :   -0.030183
  18 C :    0.024582
  19 O :   -0.600809
  20 H :    0.170964
  21 H :    0.170879
  22 H :    0.193053
  23 H :    0.192056
  24 H :    0.194207
  25 H :    0.172495
  26 H :    0.175167
  27 H :    0.295404
  28 H :    0.180387
  29 H :    0.195873
  30 H :    0.166132
  31 H :    0.179023
  32 H :    0.268692

-------------------------------
LOEWDIN REDUCED ORBITAL CHARGES
-------------------------------
  0 C s       :     2.904714  s :     2.904714
      pz      :     0.955034  p :     3.155341
      px      :     1.102317
      py      :     1.097989
      dz2     :     0.005691  d :     0.082116
      dxz     :     0.004051
      dyz     :     0.011931
      dx2y2   :     0.032661
      dxy     :     0.027783

  1 C s       :     2.904987  s :     2.904987
      pz      :     0.951015  p :     3.152023
      px      :     1.099630
      py      :     1.101379
      dz2     :     0.005844  d :     0.082233
      dxz     :     0.010414
      dyz     :     0.005673
      dx2y2   :     0.028891
      dxy     :     0.031412

  2 C s       :     2.895106  s :     2.895106
      pz      :     0.939033  p :     3.125850
      px      :     1.089290
      py      :     1.097526
      dz2     :     0.005503  d :     0.080375
      dxz     :     0.009709
      dyz     :     0.006297
      dx2y2   :     0.027061
      dxy     :     0.031806

  3 C s       :     2.847289  s :     2.847289
      pz      :     0.966082  p :     3.083418
      px      :     1.031352
      py      :     1.085984
      dz2     :     0.007514  d :     0.095549
      dxz     :     0.007565
      dyz     :     0.012801
      dx2y2   :     0.035942
      dxy     :     0.031728

  4 C s       :     2.847978  s :     2.847978
      pz      :     0.972020  p :     3.091443
      px      :     1.083008
      py      :     1.036415
      dz2     :     0.007792  d :     0.096175
      dxz     :     0.011352
      dyz     :     0.008427
      dx2y2   :     0.032859
      dxy     :     0.035745

  5 C s       :     2.895826  s :     2.895826
      pz      :     0.931605  p :     3.119896
      px      :     1.081562
      py      :     1.106729
      dz2     :     0.005502  d :     0.080525
      dxz     :     0.009568
      dyz     :     0.006614
      dx2y2   :     0.029331
      dxy     :     0.029510

  6 C s       :     2.782925  s :     2.782925
      pz      :     0.752388  p :     2.747164
      px      :     0.998070
      py      :     0.996706
      dz2     :     0.012910  d :     0.199941
      dxz     :     0.016700
      dyz     :     0.024870
      dx2y2   :     0.087029
      dxy     :     0.058431

  7 O s       :     3.560746  s :     3.560746
      pz      :     1.367500  p :     4.662593
      px      :     1.711470
      py      :     1.583623
      dz2     :     0.030436  d :     0.254766
      dxz     :     0.021618
      dyz     :     0.036549
      dx2y2   :     0.083705
      dxy     :     0.082459

  8 C s       :     2.848253  s :     2.848253
      pz      :     0.961040  p :     3.077980
      px      :     1.033473
      py      :     1.083467
      dz2     :     0.007700  d :     0.096782
      dxz     :     0.007045
      dyz     :     0.015729
      dx2y2   :     0.035229
      dxy     :     0.031080

  9 C s       :     2.891850  s :     2.891850
      pz      :     0.969974  p :     3.150342
      px      :     1.081782
      py      :     1.098585
      dz2     :     0.005557  d :     0.080077
      dxz     :     0.009202
      dyz     :     0.006552
      dx2y2   :     0.027601
      dxy     :     0.031164

 10 C s       :     2.900971  s :     2.900971
      pz      :     0.937184  p :     3.139170
      px      :     1.100228
      py      :     1.101759
      dz2     :     0.006098  d :     0.085290
      dxz     :     0.012389
      dyz     :     0.006515
      dx2y2   :     0.028994
      dxy     :     0.031295

 11 C s       :     2.887826  s :     2.887826
      pz      :     1.026365  p :     3.177949
      px      :     1.101238
      py      :     1.050346
      dz2     :     0.005759  d :     0.077104
      dxz     :     0.004050
      dyz     :     0.010515
      dx2y2   :     0.031203
      dxy     :     0.025577

 12 C s       :     2.769889  s :     2.769889
      pz      :     0.864282  p :     2.889794
      px      :     1.018720
      py      :     1.006792
      dz2     :     0.010995  d :     0.139933
      dxz     :     0.017813
      dyz     :     0.024772
      dx2y2   :     0.042680
      dxy     :     0.043673

 13 C s       :     2.834092  s :     2.834092
      pz      :     1.057105  p :     3.111980
      px      :     1.022285
      py      :     1.032589
      dz2     :     0.007408  d :     0.088689
      dxz     :     0.009365
      dyz     :     0.008421
      dx2y2   :     0.032254
      dxy     :     0.031240

 14 C s       :     2.779041  s :     2.779041
      pz      :     0.767783  p :     2.753191
      px      :     0.990599
      py      :     0.994809
      dz2     :     0.012702  d :     0.197356
      dxz     :     0.015200
      dyz     :     0.029232
      dx2y2   :     0.082592
      dxy     :     0.057630

 15 O s       :     3.560775  s :     3.560775
      pz      :     1.433835  p :     4.696381
      px      :     1.692683
      py      :     1.569864
      dz2     :     0.035775  d :     0.282687
      dxz     :     0.023497
      dyz     :     0.038531
      dx2y2   :     0.094558
      dxy     :     0.090326

 16 N s       :     3.096221  s :     3.096221
      pz      :     1.550966  p :     4.014262
      px      :     1.207977
      py      :     1.255320
      dz2     :     0.056208  d :     0.571062
      dxz     :     0.103805
      dyz     :     0.060398
      dx2y2   :     0.164491
      dxy     :     0.186160

 17 C s       :     2.856188  s :     2.856188
      pz      :     1.039932  p :     3.066534
      px      :     0.928202
      py      :     1.098400
      dz2     :     0.015179  d :     0.107461
      dxz     :     0.031171
      dyz     :     0.016877
      dx2y2   :     0.030410
      dxy     :     0.013824

 18 C s       :     2.876625  s :     2.876625
      pz      :     0.993267  p :     2.968289
      px      :     1.060361
      py      :     0.914661
      dz2     :     0.027819  d :     0.130504
      dxz     :     0.015488
      dyz     :     0.037600
      dx2y2   :     0.033749
      dxy     :     0.015848

 19 O s       :     3.520326  s :     3.520326
      pz      :     1.757373  p :     4.811044
      px      :     1.504792
      py      :     1.548880
      dz2     :     0.049214  d :     0.269439
      dxz     :     0.025252
      dyz     :     0.062358
      dx2y2   :     0.073197
      dxy     :     0.059418

 20 H s       :     0.784145  s :     0.784145
      pz      :     0.008813  p :     0.044891
      px      :     0.028957
      py      :     0.007122

 21 H s       :     0.784289  s :     0.784289
      pz      :     0.008548  p :     0.044832
      px      :     0.011656
      py      :     0.024628

 22 H s       :     0.759948  s :     0.759948
      pz      :     0.008686  p :     0.047000
      px      :     0.016080
      py      :     0.022233

 23 H s       :     0.761199  s :     0.761199
      pz      :     0.008527  p :     0.046745
      px      :     0.012178
      py      :     0.026040

 24 H s       :     0.758038  s :     0.758038
      pz      :     0.009431  p :     0.047755
      px      :     0.016891
      py      :     0.021433

 25 H s       :     0.782984  s :     0.782984
      pz      :     0.008281  p :     0.044520
      px      :     0.011332
      py      :     0.024908

 26 H s       :     0.778089  s :     0.778089
      pz      :     0.010750  p :     0.046744
      px      :     0.028746
      py      :     0.007247

 27 H s       :     0.597952  s :     0.597952
      pz      :     0.021868  p :     0.106643
      px      :     0.035731
      py      :     0.049044

 28 H s       :     0.777546  s :     0.777546
      pz      :     0.015135  p :     0.042067
      px      :     0.007541
      py      :     0.019391

 29 H s       :     0.763828  s :     0.763828
      pz      :     0.011652  p :     0.040299
      px      :     0.006221
      py      :     0.022425

 30 H s       :     0.793138  s :     0.793138
      pz      :     0.013847  p :     0.040730
      px      :     0.009770
      py      :     0.017113

 31 H s       :     0.781230  s :     0.781230
      pz      :     0.007353  p :     0.039747
      px      :     0.026812
      py      :     0.005582

 32 H s       :     0.608248  s :     0.608248
      pz      :     0.031654  p :     0.123060
      px      :     0.066239
      py      :     0.025167


---------------------------------
LOEWDIN BOND ORDERS (THRESH 0.050000)
---------------------------------
B(  0-C ,  1-C ) :   1.4749 B(  0-C ,  2-C ) :   0.0902 B(  0-C ,  3-C ) :   0.1099 
B(  0-C ,  4-C ) :   0.0905 B(  0-C ,  5-C ) :   1.5223 B(  0-C , 20-H ) :   0.8723 
B(  0-C , 21-H ) :   0.0533 B(  0-C , 23-H ) :   0.0522 B(  1-C ,  2-C ) :   1.5200 
B(  1-C ,  3-C ) :   0.0903 B(  1-C ,  4-C ) :   0.1102 B(  1-C ,  5-C ) :   0.0908 
B(  1-C , 20-H ) :   0.0534 B(  1-C , 21-H ) :   0.8723 B(  1-C , 22-H ) :   0.0523 
B(  2-C ,  3-C ) :   1.3921 B(  2-C ,  4-C ) :   0.0846 B(  2-C ,  5-C ) :   0.1185 
B(  2-C , 14-C ) :   0.0870 B(  2-C , 15-O ) :   0.0813 B(  2-C , 21-H ) :   0.0554 
B(  2-C , 22-H ) :   0.8458 B(  3-C ,  4-C ) :   1.3225 B(  3-C ,  5-C ) :   0.0848 
B(  3-C ,  6-C ) :   0.0815 B(  3-C , 13-C ) :   0.0815 B(  3-C , 14-C ) :   0.9758 
B(  3-C , 15-O ) :   0.2034 B(  3-C , 22-H ) :   0.0513 B(  4-C ,  5-C ) :   1.3910 
B(  4-C ,  6-C ) :   0.9868 B(  4-C ,  7-O ) :   0.2034 B(  4-C ,  8-C ) :   0.0821 
B(  4-C , 14-C ) :   0.0771 B(  4-C , 23-H ) :   0.0518 B(  5-C ,  6-C ) :   0.0895 
B(  5-C ,  7-O ) :   0.0814 B(  5-C , 20-H ) :   0.0553 B(  5-C , 23-H ) :   0.8488 
B(  6-C ,  7-O ) :   2.2334 B(  6-C ,  8-C ) :   0.9777 B(  6-C ,  9-C ) :   0.0991 
B(  6-C , 13-C ) :   0.0741 B(  7-O ,  8-C ) :   0.2018 B(  7-O ,  9-C ) :   0.1035 
B(  8-C ,  9-C ) :   1.4352 B(  8-C , 10-C ) :   0.0913 B(  8-C , 11-C ) :   0.1091 
B(  8-C , 12-C ) :   0.0810 B(  8-C , 13-C ) :   1.2771 B(  8-C , 14-C ) :   0.0827 
B(  8-C , 24-H ) :   0.0522 B(  9-C , 10-C ) :   1.4343 B(  9-C , 11-C ) :   0.0926 
B(  9-C , 12-C ) :   0.0708 B(  9-C , 13-C ) :   0.0922 B(  9-C , 24-H ) :   0.8440 
B(  9-C , 25-H ) :   0.0533 B( 10-C , 11-C ) :   1.5663 B( 10-C , 12-C ) :   0.0889 
B( 10-C , 13-C ) :   0.0844 B( 10-C , 24-H ) :   0.0510 B( 10-C , 25-H ) :   0.8684 
B( 10-C , 26-H ) :   0.0554 B( 11-C , 12-C ) :   1.2098 B( 11-C , 13-C ) :   0.0823 
B( 11-C , 16-N ) :   0.2144 B( 11-C , 25-H ) :   0.0570 B( 11-C , 26-H ) :   0.8541 
B( 12-C , 13-C ) :   1.1401 B( 12-C , 14-C ) :   0.0775 B( 12-C , 15-O ) :   0.0514 
B( 12-C , 16-N ) :   1.5679 B( 12-C , 17-C ) :   0.0777 B( 13-C , 14-C ) :   1.0633 
B( 13-C , 15-O ) :   0.2073 B( 13-C , 16-N ) :   0.2111 B( 14-C , 15-O ) :   2.1073 
B( 14-C , 16-N ) :   0.0573 B( 15-O , 16-N ) :   0.2025 B( 15-O , 27-H ) :   0.0977 
B( 16-N , 17-C ) :   1.3364 B( 16-N , 18-C ) :   0.1478 B( 16-N , 27-H ) :   0.7947 
B( 16-N , 28-H ) :   0.0953 B( 16-N , 29-H ) :   0.0985 B( 17-C , 18-C ) :   0.9627 
B( 17-C , 19-O ) :   0.1608 B( 17-C , 28-H ) :   0.8120 B( 17-C , 29-H ) :   0.8161 
B( 18-C , 19-O ) :   1.4571 B( 18-C , 30-H ) :   0.8280 B( 18-C , 31-H ) :   0.8238 
B( 19-O , 30-H ) :   0.1021 B( 19-O , 31-H ) :   0.1001 B( 19-O , 32-H ) :   0.9719 


------------------------------------------
LOEWDIN REDUCED ORBITAL POPULATIONS PER MO
-------------------------------------------
THRESHOLD FOR PRINTING IS 0.1%%
                      0         1         2         3         4         5   
                 -18.96065 -18.94606 -18.94042 -14.19391 -10.12816 -10.12461
                   2.00000   2.00000   2.00000   2.00000   2.00000   2.00000
                  --------  --------  --------  --------  --------  --------
 6 C  s               0.0       0.0       0.0       0.0       0.0      99.2
 7 O  s               0.0       0.0      99.9       0.0       0.0       0.0
 7 O  py              0.0       0.0       0.0       0.0       0.0       0.1
 7 O  dxy             0.0       0.0       0.0       0.0       0.0       0.2
14 C  s               0.0       0.0       0.0       0.0      99.2       0.0
15 O  s               0.0      99.9       0.0       0.0       0.0       0.0
15 O  py              0.0       0.0       0.0       0.0       0.1       0.0
15 O  dxy             0.0       0.0       0.0       0.0       0.2       0.0
16 N  s               0.0       0.0       0.0      99.8       0.0       0.0
19 O  s              99.9       0.0       0.0       0.0       0.0       0.0

                      6         7         8         9        10        11   
                 -10.10797 -10.09171 -10.08410 -10.06223 -10.06196 -10.06096
                   2.00000   2.00000   2.00000   2.00000   2.00000   2.00000
                  --------  --------  --------  --------  --------  --------
 2 C  py              0.0       0.0       0.0       0.0       0.1       0.0
 3 C  s               0.0       0.0       0.0       0.0      98.7       0.0
 4 C  s               0.0       0.0       0.0       0.0       0.7       0.0
 6 C  px              0.0       0.0       0.0       0.1       0.0       0.0
 8 C  s               0.0       0.0       0.0      97.5       0.0       2.0
 9 C  py              0.0       0.0       0.0       0.1       0.0       0.0
12 C  s              99.2       0.0       0.0       0.0       0.0       0.0
12 C  px              0.0       0.0       0.0       0.0       0.0       0.1
13 C  s               0.0       0.0       0.0       2.0       0.0      97.6
13 C  px              0.1       0.0       0.0       0.0       0.0       0.0
16 N  px              0.0       0.0       0.1       0.0       0.0       0.0
16 N  dx2y2           0.0       0.0       0.2       0.0       0.0       0.0
16 N  dxy             0.2       0.0       0.0       0.0       0.0       0.0
17 C  s               0.0       0.0      99.4       0.0       0.0       0.0
18 C  s               0.0      99.4       0.0       0.0       0.0       0.0
19 O  dyz             0.0       0.2       0.0       0.0       0.0       0.0
19 O  dx2y2           0.0       0.1       0.0       0.0       0.0       0.0

                     12        13        14        15        16        17   
                 -10.05959 -10.05900 -10.05625 -10.05530 -10.05505 -10.05272
                   2.00000   2.00000   2.00000   2.00000   2.00000   2.00000
                  --------  --------  --------  --------  --------  --------
 0 C  s               0.0       0.0       5.9      92.8       0.0       0.9
 0 C  py              0.0       0.0       0.1       0.0       0.0       0.1
 1 C  s               0.0       0.0      93.3       5.9       0.0       0.0
 2 C  s               0.0       0.0       0.3       0.0       0.0       0.0
 2 C  px              0.0       0.0       0.1       0.0       0.0       0.0
 3 C  s               0.8       0.0       0.0       0.0       0.0       0.0
 4 C  s              98.7       0.0       0.0       0.0       0.0       0.1
 4 C  px              0.0       0.0       0.0       0.0       0.0       0.1
 5 C  s               0.1       0.0       0.0       0.8       0.0      98.6
 5 C  px              0.1       0.0       0.0       0.0       0.0       0.0
 9 C  px              0.0       0.1       0.0       0.0       0.0       0.0
10 C  s               0.0      99.1       0.0       0.0       0.5       0.0
11 C  s               0.0       0.5       0.0       0.0      99.1       0.0
12 C  py              0.0       0.0       0.0       0.0       0.1       0.0

                     18        19        20        21        22        23   
                 -10.05216 -10.04427  -1.01042  -1.00467  -0.99897  -0.93282
                   2.00000   2.00000   2.00000   2.00000   2.00000   2.00000
                  --------  --------  --------  --------  --------  --------
 1 C  s               0.4       0.0       0.0       0.0       0.0       0.0
 1 C  px              0.1       0.0       0.0       0.0       0.0       0.0
 2 C  s              99.2       0.0       0.3       0.0       0.0       0.0
 2 C  px              0.0       0.0       0.4       0.0       0.0       0.0
 2 C  py              0.0       0.0       0.1       0.0       0.0       0.0
 3 C  s               0.1       0.0       1.5       0.0       0.0       0.0
 3 C  px              0.0       0.0       1.8       0.2       0.0       0.0
 3 C  py              0.1       0.0       0.1       0.3       0.0       0.0
 4 C  s               0.0       0.0       0.4       1.2       0.0       0.0
 4 C  px              0.0       0.0       0.2       0.1       0.0       0.0
 4 C  py              0.0       0.0       0.0       2.1       0.0       0.0
 5 C  s               0.0       0.0       0.1       0.2       0.0       0.0
 5 C  px              0.0       0.0       0.1       0.3       0.0       0.0
 5 C  py              0.0       0.0       0.0       0.2       0.0       0.0
 6 C  s               0.0       0.0       1.1      16.5       0.0       0.0
 6 C  pz              0.0       0.0       0.0       0.3       0.0       0.0
 6 C  px              0.0       0.0       0.1       3.2       0.0       0.1
 6 C  py              0.0       0.0       0.2       8.2       0.0       0.0
 6 C  dz2             0.0       0.0       0.0       0.4       0.0       0.0
 6 C  dx2y2           0.0       0.0       0.0       0.2       0.0       0.0
 6 C  dxy             0.0       0.0       0.0       0.8       0.0       0.0
 7 O  s               0.0       0.0       2.3      49.8       0.0       0.0
 7 O  pz              0.0       0.0       0.0       0.1       0.0       0.0
 7 O  px              0.0       0.0       0.1       1.6       0.0       0.0
 7 O  py              0.0       0.0       0.2       4.1       0.0       0.0
 7 O  dz2             0.0       0.0       0.0       0.2       0.0       0.0
 7 O  dxy             0.0       0.0       0.0       0.3       0.0       0.0
 8 C  s               0.0       0.0       0.4       1.2       0.0       0.3
 8 C  px              0.0       0.0       0.0       2.0       0.0       0.3
 8 C  py              0.0       0.1       0.1       0.2       0.0       0.0
 9 C  s               0.0      99.5       0.1       0.2       0.0       0.2
 9 C  px              0.0       0.0       0.0       0.5       0.0       0.1
10 C  s               0.0       0.0       0.0       0.0       0.0       0.5
10 C  px              0.0       0.1       0.0       0.0       0.0       0.0
10 C  py              0.0       0.0       0.0       0.0       0.0       0.4
11 C  s               0.0       0.0       0.1       0.0       0.0       2.5
11 C  px              0.0       0.0       0.0       0.0       0.0       0.2
11 C  py              0.0       0.0       0.1       0.0       0.0       1.9
12 C  s               0.0       0.0       0.7       0.0       0.1      14.4
12 C  pz              0.0       0.0       0.0       0.0       0.0       0.2
12 C  px              0.0       0.0       0.2       0.0       0.1       2.3
12 C  py              0.0       0.0       0.4       0.0       0.0       3.3
12 C  dz2             0.0       0.0       0.0       0.0       0.0       0.3
12 C  dxy             0.0       0.0       0.0       0.0       0.0       0.3
13 C  s               0.0       0.0       1.8       0.0       0.0       1.7
13 C  px              0.0       0.0       0.1       0.1       0.0       2.2
13 C  py              0.0       0.0       1.8       0.4       0.0       0.1
14 C  s               0.0       0.0      16.2       0.6       0.1       0.2
14 C  pz              0.0       0.0       0.2       0.0       0.0       0.0
14 C  px              0.0       0.0       2.6       0.2       0.0       0.2
14 C  py              0.0       0.0       7.6       0.6       0.1       1.1
14 C  dz2             0.0       0.0       0.4       0.0       0.0       0.0
14 C  dx2y2           0.0       0.0       0.2       0.0       0.0       0.0
[...]
19 O  dxz             3.0       0.0       0.0       0.0       0.0       0.0
19 O  dyz             0.3       0.0       0.0       0.0       0.0       0.0
19 O  dx2y2          28.3       0.0       0.0       0.0       0.0       0.0
19 O  dxy             2.4       0.0       0.0       0.0       0.0       0.0
31 H  s               0.2       0.0       0.0       0.0       0.0       0.0
31 H  px              0.3       0.0       0.0       0.0       0.0       0.0
32 H  s              13.4       0.0       0.0       0.0       0.0       0.0
32 H  pz              0.7       0.0       0.0       0.0       0.0       0.0
32 H  px             14.7       0.0       0.0       0.0       0.0       0.0
32 H  py              0.6       0.0       0.0       0.0       0.0       0.0

                    450       451       452       453       454       455   
                  22.02027  22.07056  22.12975  22.16414  22.17575  22.20074
                   0.00000   0.00000   0.00000   0.00000   0.00000   0.00000
                  --------  --------  --------  --------  --------  --------
 0 C  s               1.4       0.9       5.9       0.3      35.7       0.1
 1 C  s               1.3       1.4       4.8       0.1      32.3       2.5
 2 C  s               4.4       2.1       6.5       1.4       0.3       6.1
 3 C  s               2.2       1.2       0.1       0.2      15.5       2.7
 4 C  s               3.0       1.5       0.3       2.9      12.1       3.3
 5 C  s               3.5       2.0       7.4       0.5       0.0       4.6
 6 C  s               0.1       1.9      24.0       4.7       1.8       4.2
 8 C  s               7.2       6.3       0.7       1.2       0.8      12.7
 9 C  s               8.1       9.1       6.7       3.8       0.0       2.8
10 C  s               0.0       0.1       5.0       1.1       0.1      19.9
11 C  s               3.0       4.8       6.5       0.0       0.0      24.6
12 C  s               4.0       1.9       8.6       0.2       0.0       0.3
13 C  s               6.1       7.1       6.3       9.8       0.2       4.9
14 C  s               0.4       0.0      16.2       0.2       0.5      10.7
16 N  s               0.0       0.0       0.0       0.1       0.0       0.0
17 C  s               0.2      24.9       0.1      65.6       0.4       0.0
18 C  s              54.5      34.1       0.2       7.2       0.0       0.0

                    456       457       458       459       460       461   
                  22.21100  22.26217  22.35854  22.36619  22.38580  32.06531
                   0.00000   0.00000   0.00000   0.00000   0.00000   0.00000
                  --------  --------  --------  --------  --------  --------
 0 C  s               3.0       0.4       0.5       5.9       2.3       0.0
 1 C  s               4.0       0.3       0.4       5.7       2.7       0.0
 2 C  s              15.9       1.3       0.4      14.5       9.1       0.0
 3 C  s               6.6       0.5       7.5       6.8       5.3       0.0
 4 C  s               7.2       0.1       9.0       8.2       3.2       0.0
 4 C  px              0.0       0.0       0.0       0.1       0.0       0.0
 5 C  s              17.6       0.7       0.6      17.0       6.7       0.0
 6 C  s               4.2       4.8      28.2       0.8       6.5       0.0
 8 C  s               2.7      13.4       4.5       5.4       6.4       0.0
 8 C  px              0.0       0.0       0.1       0.0       0.1       0.0
 9 C  s               2.8      18.5       0.6       7.4      12.4       0.0
10 C  s               8.7      13.4       0.0       3.6       4.4       0.0
11 C  s              17.1       0.4       0.5       4.0       4.0       0.0
12 C  s               0.0      35.5       0.1      12.6      27.8       0.0
13 C  s               0.2       1.9       7.4       4.7       4.2       0.0
13 C  px              0.0       0.0       0.1       0.0       0.1       0.0
14 C  s               5.0       5.9      38.5       2.7       4.2       0.0
16 N  s               0.0       0.2       0.0       0.0       0.0      99.7
17 C  s               4.0       0.9       0.8       0.1       0.0       0.0
18 C  s               0.5       1.2       0.1       0.1       0.1       0.0

                    462       463       464   
                  43.62673  43.72812  43.85738
                   0.00000   0.00000   0.00000
                  --------  --------  --------
 7 O  s               0.3      80.8      18.7
15 O  s               0.6      18.4      80.8
19 O  s              99.0       0.7       0.2


                      *****************************
                      * MAYER POPULATION ANALYSIS *
                      *****************************

  NA   - Mulliken gross atomic population
  ZA   - Total nuclear charge
  QA   - Mulliken gross atomic charge
  VA   - Mayer's total valence
  BVA  - Mayer's bonded valence
  FA   - Mayer's free valence

  ATOM       NA         ZA         QA         VA         BVA        FA
  0 C      6.1301     6.0000    -0.1301     3.6941     3.6941     0.0000
  1 C      6.1261     6.0000    -0.1261     3.6857     3.6857     0.0000
  2 C      6.2268     6.0000    -0.2268     3.8115     3.8115    -0.0000
  3 C      5.8117     6.0000     0.1883     3.5997     3.5997     0.0000
  4 C      5.8624     6.0000     0.1376     3.5054     3.5054    -0.0000
  5 C      6.2144     6.0000    -0.2144     3.8033     3.8033     0.0000
  6 C      5.9624     6.0000     0.0376     3.5866     3.5866    -0.0000
  7 O      8.3534     8.0000    -0.3534     2.0370     2.0370     0.0000
  8 C      5.8045     6.0000     0.1955     3.2520     3.2520    -0.0000
  9 C      6.2490     6.0000    -0.2490     3.8362     3.8362     0.0000
 10 C      6.1408     6.0000    -0.1408     3.6969     3.6969     0.0000
 11 C      6.3078     6.0000    -0.3078     3.6499     3.6499     0.0000
 12 C      5.6924     6.0000     0.3076     3.5608     3.5608    -0.0000
 13 C      6.1452     6.0000    -0.1452     3.5345     3.5345     0.0000
 14 C      5.9860     6.0000     0.0140     3.5467     3.5467    -0.0000
 15 O      8.4415     8.0000    -0.4415     1.9683     1.9683    -0.0000
 16 N      7.0604     7.0000    -0.0604     3.0856     3.0856    -0.0000
 17 C      6.3058     6.0000    -0.3058     3.7234     3.7234     0.0000
 18 C      6.1268     6.0000    -0.1268     3.7597     3.7597     0.0000
 19 O      8.4172     8.0000    -0.4172     1.8313     1.8313    -0.0000
 20 H      0.8506     1.0000     0.1494     0.9682     0.9682     0.0000
 21 H      0.8508     1.0000     0.1492     0.9680     0.9680     0.0000
 22 H      0.8177     1.0000     0.1823     0.9545     0.9545    -0.0000
 23 H      0.8180     1.0000     0.1820     0.9549     0.9549     0.0000
 24 H      0.8145     1.0000     0.1855     0.9532     0.9532     0.0000
 25 H      0.8521     1.0000     0.1479     0.9687     0.9687     0.0000
 26 H      0.8547     1.0000     0.1453     0.9694     0.9694    -0.0000
 27 H      0.6839     1.0000     0.3161     0.9124     0.9124     0.0000
 28 H      0.8530     1.0000     0.1470     0.9601     0.9601     0.0000
 29 H      0.8306     1.0000     0.1694     0.9542     0.9542     0.0000
 30 H      0.8583     1.0000     0.1417     0.9548     0.9548     0.0000
 31 H      0.8565     1.0000     0.1435     0.9572     0.9572     0.0000
 32 H      0.6948     1.0000     0.3052     0.9084     0.9084    -0.0000

  Mayer bond orders larger than 0.100000
B(  0-C ,  1-C ) :   1.3216 B(  0-C ,  5-C ) :   1.3559 B(  0-C , 20-H ) :   0.9559 
B(  1-C ,  2-C ) :   1.3495 B(  1-C , 21-H ) :   0.9557 B(  2-C ,  3-C ) :   1.3546 
B(  2-C , 15-O ) :   0.1027 B(  2-C , 22-H ) :   0.9604 B(  3-C ,  4-C ) :   1.5184 
B(  3-C , 14-C ) :   0.9199 B(  3-C , 15-O ) :  -0.2040 B(  4-C ,  5-C ) :   1.3504 
B(  4-C ,  6-C ) :   0.8548 B(  4-C ,  7-O ) :  -0.2225 B(  5-C ,  7-O ) :   0.1079 
B(  5-C , 23-H ) :   0.9635 B(  6-C ,  7-O ) :   2.0991 B(  6-C ,  8-C ) :   0.8628 
B(  7-O ,  8-C ) :  -0.2159 B(  7-O ,  9-C ) :   0.1225 B(  8-C ,  9-C ) :   1.4030 
B(  8-C , 13-C ) :   1.2784 B(  9-C , 10-C ) :   1.2513 B(  9-C , 24-H ) :   0.9666 
B( 10-C , 11-C ) :   1.3933 B( 10-C , 25-H ) :   0.9664 B( 11-C , 12-C ) :   1.1059 
B( 11-C , 26-H ) :   0.9499 B( 12-C , 13-C ) :   1.2484 B( 12-C , 14-C ) :  -0.1099 
B( 12-C , 16-N ) :   1.2916 B( 13-C , 14-C ) :   0.9415 B( 13-C , 15-O ) :  -0.1320 
B( 14-C , 15-O ) :   1.8884 B( 16-N , 17-C ) :   0.8544 B( 16-N , 27-H ) :   0.8236 
B( 17-C , 18-C ) :   0.8779 B( 17-C , 28-H ) :   0.9666 B( 17-C , 29-H ) :   0.9602 
B( 18-C , 19-O ) :   0.9689 B( 18-C , 30-H ) :   0.9755 B( 18-C , 31-H ) :   0.9795 
B( 19-O , 32-H ) :   0.8852 

-------
TIMINGS
-------

Total SCF time: 0 days 0 hours 2 min 3 sec 

Total time                  ....     123.674 sec
Sum of individual times     ....     122.863 sec  ( 99.3%)

SCF preparation             ....       0.386 sec  (  0.3%)
Fock matrix formation       ....     119.414 sec  ( 96.6%)
  Startup                   ....       0.099 sec  (  0.1% of F)
  Split-RI-J                ....      39.104 sec  ( 32.7% of F)
  XC integration            ....      79.183 sec  ( 66.3% of F)
    XC Preparation          ....       0.000 sec  (  0.0% of XC)
    Basis function eval.    ....      14.392 sec  ( 18.2% of XC)
    Density eval.           ....      30.790 sec  ( 38.9% of XC)
    XC-Functional eval.     ....       5.608 sec  (  7.1% of XC)
    XC-Potential eval.      ....      26.459 sec  ( 33.4% of XC)
Diagonalization             ....       0.000 sec  (  0.0%)
Density matrix formation    ....       0.472 sec  (  0.4%)
Total Energy calculation    ....       0.090 sec  (  0.1%)
Population analysis         ....       0.445 sec  (  0.4%)
Orbital Transformation      ....       0.227 sec  (  0.2%)
Orbital Orthonormalization  ....       0.000 sec  (  0.0%)
DIIS solution               ....       1.388 sec  (  1.1%)
  MO trafo                  ....       0.000 sec  (  0.0 % of DIIS)
  Orb grad                  ....       0.000 sec  (  0.0 % of DIIS)
  Energy W gradient         ....       0.000 sec  (  0.0 % of DIIS)
  DIIS error                ....       0.095 sec  (  6.8 % of DIIS)
  DIIS work                 ....       1.146 sec  ( 82.6 % of DIIS)
  Form Q                    ....       0.000 sec  (  0.0 % of DIIS)
  Form QpQm                 ....       0.000 sec  (  0.0 % of DIIS)
  Exp/Cayley                ....       0.000 sec  (  0.0 % of DIIS)
  Orb update                ....       0.000 sec  (  0.0 % of DIIS)
  Wake-sleep                ....       0.032 sec  (  2.3 % of DIIS)
SOSCF solution              ....       0.441 sec  (  0.4%)
  MO trafo                  ....       0.157 sec  ( 35.5 % of SOSCF)
  Orb grad                  ....       0.003 sec  (  0.6 % of SOSCF)
  Rot update                ....       0.070 sec  ( 15.8 % of SOSCF)
  Step                      ....       0.212 sec  ( 48.0 % of SOSCF)
Finished LeanSCF after 123.8 sec

Maximum memory used throughout the entire LEANSCF-calculation: 60.9 MB


-------------------------------------------------------------------------------
                          DFT DISPERSION CORRECTION                            
                                                                               
                                DFTD4 V3.4.0                                   
-------------------------------------------------------------------------------
The R2SCAN3C composite method is recognized
Using three-body term ABC
Active option DFTDOPT                   ...         5   

-------------------------   ----------------
Dispersion correction           -0.015742949
-------------------------   ----------------

------------------   -----------------
gCP correction             0.016294879
------------------   -----------------

-------------------------   --------------------
FINAL SINGLE POINT ENERGY      -897.786554170501
-------------------------   --------------------


------------------------------------------------------------------------------
                              ORCA PROPERTY CALCULATIONS
------------------------------------------------------------------------------

GBWName                                 ... sp_gas.gbw
Number of atoms                         ...     33
Number of basis functions               ...    465
Max core memory                         ...   1024 MB

Electric properties:
Dipole moment                           ... YES
Quadrupole moment                       ...  NO
Static polarizability (Dipole/Dipole)   ...  NO
Static polarizability (Dipole/Quad.)    ...  NO
Static polarizability (Quad./Quad.)     ...  NO
Static polarizability (Velocity)        ...  NO

Atomic electric properties:
Dipole moment                           ...  NO
Quadrupole moment                       ...  NO
Static polarizability                   ...  NO

Choice of electric origin               ... Center of mass
Position of electric origin             ...     0.000008     0.000001    -0.000005

General magnetic properties:
Magnetizability                         ...  NO

EPR properties:
g-Tensor (aka g-matrix)                 ...  NO
Zero-Field splitting spin-orbit         ...  NO
Zero-field splitting spin-spin          ...  NO
Hyperfine couplings                     ...  NO (   0 nuclei)
Quadrupole couplings                    ...  NO (   0 nuclei)
Contact density                         ...  NO (   0 nuclei)

NMR properties:
Chemical shifts                         ...  NO (   0 nuclei)
Spin-rotation constants                 ...  NO (   0 nuclei)
Spin-spin couplings                     ...  NO (   0 nuclei,    0 pairs)

Choice of magnetic origin               ... GIAO
Position of magnetic origin             ...     0.000000     0.000000     0.000000

Properties with geometric perturbations:
SCF Hessian                             ...  NO
IR spectrum                             ...  NO
VCD spectrum                            ...  NO
X-ray spectroscopy properties:
SCF XES/XAS/RIXS spectra                ...  NO


-------------
DIPOLE MOMENT
-------------

Method             : SCF
Type of density    : Electron Density
Multiplicity       :   1
Irrep              :   0
Energy             :  -897.7871061002529132 Eh
Relativity type    : 
Basis              : AO
                                X                 Y                 Z
Electronic contribution:    -11.553978776       2.203273780      -0.382687890
Nuclear contribution   :     11.997109766      -2.328829172       0.062311405
                        -----------------------------------------
Total Dipole Moment    :      0.443130990      -0.125555392      -0.320376484
                        -----------------------------------------
Magnitude (a.u.)       :      0.561043958
Magnitude (Debye)      :      1.426060410



--------------------
Rotational spectrum 
--------------------
 
Rotational constants in cm-1:             0.020790             0.007645             0.005835 
Rotational constants in MHz :           623.260752           229.188503           174.914542 

Dipole components along the rotational axes: 
x,y,z [a.u.] :    -0.441073    -0.122463    -0.324389 
x,y,z [Debye]:    -1.121117    -0.311276    -0.824531 

 

Dipole moment calculation done in   0.1 sec 

Maximum memory used throughout the entire PROP-calculation: 41.6 MB

--------------------------------
SUGGESTED CITATIONS FOR THIS RUN
--------------------------------

Below you find a list of papers that are relevant to this ORCA run
We neither can nor want to force you to cite these papers, but we appreciate if you do
You receive ORCA, which is the product of decades of hard work by many enthusiastic individuals, for free
The only thing we kindly ask in return is that you cite our papers,
We deeply appreciate it, if you show your appreciation for ORCA by not just citing the generic ORCA reference.

Please note that relegating all ORCA citations to the supporting information does *not* help us.
SI sections are not indexed - citations you put there will not count into any citation statistics
But we need these citations in order to attract the funding resources that allow us to do what we are doing

Therefore, if you are a happy ORCA user, please consider citing a few of the papers listed below in the main body of your paper

In addition to the list printed below, the program has created the file sp_gas.bibtex that contains the list in bibtex format
You can import this file easily into all common literature databanks and citation aid programs


List of essential papers. We consider these as the minimum necessary citations

  1. Neese,F.
     Software update: the ORCA program system, version 5.0
     WIRES Comput. Molec. Sci., 2022 12(1)e1606
     doi.org/10.1002/wcms.1606
  2. Grimme,S.; Hansen,A.; Ehlert,S.; Mewes,J.
     r2SCAN-3c: A 'Swiss army knife' composite electronic-structure method
     J. Chem. Phys., 2021 154 064103
     doi.org/10.1063/5.0040021

List of papers to cite with high priority. The work reported in these papers was absolutely
necessary for this run to complete.
Our perspective: the developers of density functionals and basis sets usually get cited in chemistry papers
Good! But without the algorithms to do something with them, the functionals or basis sets would not do anything.
Hence, in our opinion, the algorithm design and method developments papers are equally worthy of getting cited

  1. Neese,F.
     An improvement of the resolution of the identity approximation for the formation of the Coulomb matrix
     J. Comp. Chem., 2003 24(14)1740-1747
     doi.org/10.1002/jcc.10318
  2. Neese,F.
     The SHARK Integral Generation and Digestion System
     J. Comp. Chem., 2022  1-16
     doi.org/10.1002/jcc.26942
  3. Lehtola,S.; Steigemann,C.; Oliveira,M.; Marques,M.
     Recent developments in Libxc - A comprehensive library of functionals for density functional theory
     Software X, 2018 7 
     doi.org/10.1016/j.softx.2017.11.002
  4. Caldeweyher,E.; Bannwarth,C.; Grimme,S.
     Extension of the D3 dispersion coefficient model
     J. Chem. Phys., 2017 147 034112-XXXX
     doi.org/10.1063/1.4993215
  5. Caldeweyher,E.; Ehlert,S.; Hansen,A.; Neugebauer,H.; Spicher,S.; Bannwarth,C.; Grimme,S.
     A generally applicable atomic-charge dependent London dispersion correction
     J. Chem. Phys., 2019 150 154122-XXXX
     doi.org/10.1063/1.5090222
  6. Caldeweyher,E.; Mewes,J.; Ehlert,S.; Grimme,S.
     Extension and evaluation of the D4 London-dispersion model for periodic systems
     Phys. Chem. Chem. Phys., 2020 22(16)8499-8512
     doi.org/10.1039/D0CP00502A

List of suggested additional citations. These are papers that are important in the 'surrounding' of 
of this run, or papers that preceded the highly important papers. If you like your results we are grateful for a citation.

  1. Neese,F.
     The ORCA program system
     WIRES Comput. Molec. Sci., 2012 2(1)73-78
     doi.org/10.1002/wcms.81
  2. Neese,F.
     Software update: the ORCA program system, version 4.0
     WIRES Comput. Molec. Sci., 2018 8(1)1-6
     doi.org/10.1002/wcms.1327
  3. Neese,F.; Wennmohs,F.; Becker,U.; Riplinger,C.
     The ORCA quantum chemistry program package
     J. Chem. Phys., 2020 152 Art. No. L224108
     doi.org/10.1063/5.0004608

List of optional additional citations

  1. Neese,F.
     Approximate second-order SCF convergence for spin unrestricted wavefunctions
     Chem. Phys. Lett., 2000 325(1-3)93-98
     doi.org/10.1016/s0009-2614(00)00662-x

Timings for individual modules:

Sum of individual times          ...      128.768 sec (=   2.146 min)
Startup calculation              ...        3.870 sec (=   0.065 min)   3.0 %
SCF iterations                   ...      124.597 sec (=   2.077 min)  96.8 %
Property calculations            ...        0.300 sec (=   0.005 min)   0.2 %
                             ****ORCA TERMINATED NORMALLY****
TOTAL RUN TIME: 0 days 0 hours 2 minutes 9 seconds 698 msec
