
                                 *****************
                                 * O   R   C   A *
                                 *****************

                                            #,                                       
                                            ###                                      
                                            ####                                     
                                            #####                                    
                                            ######                                   
                                           ########,                                 
                                     ,,################,,,,,                         
                               ,,#################################,,                 
                          ,,##########################################,,             
                       ,#########################################, ''#####,          
                    ,#############################################,,   '####,        
                  ,##################################################,,,,####,       
                ,###########''''           ''''###############################       
              ,#####''   ,,,,##########,,,,          '''####'''          '####       
            ,##' ,,,,###########################,,,                        '##       
           ' ,,###''''                  '''############,,,                           
         ,,##''                                '''############,,,,        ,,,,,,###''
      ,#''                                            '''#######################'''  
     '                                                          ''''####''''         
             ,#######,   #######,   ,#######,      ##                                
            ,#'     '#,  ##    ##  ,#'     '#,    #''#        ,####,   ,####,        
            ##       ##  ##   ,#'  ##            #'  '#       #'       #'  '#        
            ##       ##  #######   ##           ,######,      #####,   #    #        
            '#,     ,#'  ##    ##  '#,     ,#' ,#      #,     #,   #   #,  ,#        
             '#######'   ##     ##  '#######'  #'      '#     '####' # '####'        



                #########################################################
                #                        -***-                          #
                #          Department of theory and spectroscopy        #
                #                                                       #
                #                      Frank Neese                      #
                #                                                       #
                #     Directorship, Architecture, Infrastructure        #
                #                    SHARK, DRIVERS                     #
                #        Core code/Algorithms in most modules           #
                #                                                       #
                #        Max Planck Institute fuer Kohlenforschung      #
                #                Kaiser Wilhelm Platz 1                 #
                #                 D-45470 Muelheim/Ruhr                 #
                #                      Germany                          #
                #                                                       #
                #                  All rights reserved                  #
                #                        -***-                          #
                #########################################################


                         Program Version 6.0.0  -   RELEASE  -


 With contributions from (in alphabetic order):
   Daniel Aravena         : Magnetic Suceptibility
   Michael Atanasov       : Ab Initio Ligand Field Theory (pilot matlab implementation)
   Alexander A. Auer      : GIAO ZORA, VPT2 properties, NMR spectrum
   Ute Becker             : All parallelization in ORCA, NUMFREQ, NUMCALC
   Giovanni Bistoni       : ED, misc. LED, open-shell LED, HFLD
   Martin Brehm           : Molecular dynamics
   Dmytro Bykov           : pre 5.0 version of the SCF Hessian
   Marcos Casanova-Páez   : Triplet and SCS-CIS(D). UHF-(DLPNO)-IP/EA/STEOM-CCSD. UHF-CVS-IP/STEOM-CCSD
   Vijay G. Chilkuri      : MRCI spin determinant printing, contributions to CSF-ICE
   Pauline Colinet        : FMM embedding
   Dipayan Datta          : RHF DLPNO-CCSD density
   Achintya Kumar Dutta   : EOM-CC, STEOM-CC
   Nicolas Foglia         : Exact transition moments, OPA infrastructure, MCD improvements
   Dmitry Ganyushin       : Spin-Orbit,Spin-Spin,Magnetic field MRCI
   Miquel Garcia          : C-PCM and meta-GGA Hessian, CCSD/C-PCM, Gaussian charge scheme
   Tiago L. C. Gouveia    : GS-ROHF, GS-ROCIS
   Yang Guo               : DLPNO-NEVPT2, F12-NEVPT2, CIM, IAO-localization
   Andreas Hansen         : Spin unrestricted coupled pair/coupled cluster methods
   Ingolf Harden          : AUTO-CI MPn and infrastructure 
   Benjamin Helmich-Paris : MC-RPA, TRAH-(SCF,CASSCF), AVAS, COSX integrals, SCF dyn. polar.
   Lee Huntington         : MR-EOM, pCC
   Robert Izsak           : Overlap fitted RIJCOSX, COSX-SCS-MP3, EOM
   Riya Kayal             : Wick's Theorem for AUTO-CI, AUTO-CI UHF-CCSDT
   Emily Kempfer          : AUTO-CI, RHF CISDT and CCSDT
   Christian Kollmar      : KDIIS, OOCD, Brueckner-CCSD(T), CCSD density, CASPT2, CASPT2-K, improved NEVPT2
   Axel Koslowski         : Symmetry handling
   Simone Kossmann        : Meta GGA functionals, TD-DFT gradient, OOMP2, (MP2 Hessian; deprecated post 5.0)
   Lucas Lang             : DCDCAS
   Marvin Lechner         : AUTO-CI (C++ implementation), FIC-MRCC
   Spencer Leger          : CASSCF response
   Dagmar Lenk            : GEPOL surface, SMD, ORCA-2-JSON
   Dimitrios Liakos       : Extrapolation schemes; Compound Job, initial MDCI parallelization
   Dimitrios Manganas     : Further ROCIS development; embedding schemes. LFT, Crystal Embedding
   Dimitrios Pantazis     : SARC Basis sets
   Anastasios Papadopoulos: AUTO-CI, single reference methods and gradients
   Taras Petrenko         : pre 6.0 DFT Hessian and TD-DFT gradient, (ASA, deprecated), ECA, 1-Electron XAS/XES, NRVS
   Peter Pinski           : DLPNO-MP2, DLPNO-MP2 Gradient
   Christoph Reimann      : Effective Core Potentials
   Marius Retegan         : Local ZFS, SOC
   Christoph Riplinger    : Optimizer, TS searches, QM/MM, DLPNO-CCSD(T), (RO)-DLPNO pert. Triples
   Michael Roemelt        : Original ROCIS implementation
   Masaaki Saitow         : Open-shell DLPNO-CCSD energy and density
   Barbara Sandhoefer     : DKH picture change effects
   Kantharuban Sivalingam : CASSCF convergence/infrastructure, NEVPT2 and variants, FIC-MRCI
   Bernardo de Souza      : ESD, SOC TD-DFT
   Georgi Stoychev        : AutoAux, RI-MP2 NMR, DLPNO-MP2 response, X2C
   Van Anh Tran           : RI-MP2 g-tensors
   Willem Van den Heuvel  : Paramagnetic NMR
   Zikuan Wang            : NOTCH, Electric field optimization 
   Frank Wennmohs         : Technical directorship and infrastructure
   Hang Xu                : AUTO-CI-Response properties 


 We gratefully acknowledge several colleagues who have allowed us to
 interface, adapt or use parts of their codes:
   Stefan Grimme, W. Hujo, H. Kruse, P. Pracht,  : VdW corrections, initial TS optimization,
                  C. Bannwarth, S. Ehlert,         DFT functionals, gCP, sTDA/sTD-DF
                  L. Wittmann, M. Mueller
   Ed Valeev, F. Pavosevic, A. Kumar             : LibInt (2-el integral package), F12 methods
   Garnet Chan, S. Sharma, J. Yang, R. Olivares  : DMRG
   Ulf Ekstrom                                   : XCFun DFT Library
   Mihaly Kallay                                 : mrcc  (arbitrary order and MRCC methods)
   Frank Weinhold                                : gennbo (NPA and NBO analysis)
   Simon Mueller                                 : openCOSMO-RS
   Christopher J. Cramer and Donald G. Truhlar   : smd solvation model
   Lars Goerigk                                  : TD-DFT with DH, B97 family of functionals
   V. Asgeirsson, H. Jonsson                     : NEB implementation
   FAccTs GmbH                                   : IRC, NEB, NEB-TS, DLPNO-Multilevel, CI-OPT
                                                   MM, QMMM, 2- and 3-layer-ONIOM, Crystal-QMMM,
                                                   LR-CPCM, SF, NACMEs, symmetry and pop. for TD-DFT,
                                                   nearIR, NL-DFT gradient (VV10), updates on ESD,
                                                   ML-optimized integration grids, MBIS, APM,
                                                   GOAT, DOCKER, SOLVATOR, interface openCOSMO-RS
   S Lehtola, MJT Oliveira, MAL Marques          : LibXC Library
   Liviu Ungur et al                             : ANISO software


 Your calculation uses the libint2 library for the computation of 2-el integrals
 For citations please refer to: http://libint.valeyev.net

 Your ORCA version has been built with support for libXC version: 6.2.2
 For citations please refer to: https://libxc.gitlab.io

 This ORCA versions uses:
   CBLAS   interface :  Fast vector & matrix operations
   LAPACKE interface :  Fast linear algebra routines
   SCALAPACK package :  Parallel linear algebra routines
   Shared memory     :  Shared parallel matrices
   BLAS/LAPACK       :  OpenBLAS 0.3.27  USE64BITINT DYNAMIC_ARCH NO_AFFINITY SkylakeX SINGLE_THREADED
        Core in use  :  SkylakeX
   Copyright (c) 2011-2014, The OpenBLAS Project


Your calculation utilizes the geometrical counterpoise correction gCP
Please cite in your paper:
H.Kruse, S. Grimme J.Chem.Phys., 136, (2012), 154101 
   

Your calculation utilizes the atom-pairwise dispersion correction
based on EEQ partial charges (D4)


================================================================================

----- Orbital basis set information -----
Your calculation utilizes the basis: def2-SV(P)
   F. Weigend and R. Ahlrichs, Phys. Chem. Chem. Phys. 7, 3297 (2005).

----- AuxJ basis set information -----
Your calculation utilizes the auxiliary basis: def2/J
   F. Weigend, Phys. Chem. Chem. Phys. 8, 1057 (2006).

================================================================================
                                        WARNINGS
                       Please study these warnings very carefully!
================================================================================


================================================================================
                                       INPUT FILE
================================================================================
NAME = sp.inp
|  1> ! pbe def2-sv(p) def2/J RI DEFGRID1 loosescf d4 GCP(DFT/SV(P)) printgap
|  2> %output
|  3>     printlevel normal
|  4> end
|  5> * xyz 0 1
|  6> C -3.0063752126 -0.5967269784 -0.7836788164
|  7> C -2.4981316687 0.3746550693 0.2748189103
|  8> C -1.1940289824 -0.096937546 0.9277336219
|  9> C 0.0088902918 0.0576980149 0.0321229062
| 10> O 0.0463717452 -0.1630564055 -1.1595432442
| 11> O 1.0597978693 0.4843362547 0.7278926857
| 12> C 2.3152957422 0.645808245 0.0468441746
| 13> C 3.1037108941 -0.6549676359 0.0361891213
| 14> H -3.916886871 -0.2159116415 -1.238698462
| 15> H -2.2591320571 -0.7287322169 -1.5615261417
| 16> H -3.2205732804 -1.566253033 -0.3402434937
| 17> H -3.2509177406 0.4837173981 1.0568971899
| 18> H -2.3386690407 1.3551248783 -0.1780794803
| 19> H -1.2781390303 -1.1575128286 1.1763591755
| 20> H -0.9926454281 0.4558127702 1.8451290604
| 21> H 2.1169853923 0.9853830919 -0.9743857316
| 22> H 2.836048336 1.4209976948 0.6097706124
| 23> H 3.2436654927 -1.0153810233 1.0517287123
| 24> H 2.5701417381 -1.4094970857 -0.5376644819
| 25> H 4.0728133556 -0.4845806932 -0.4212260383
| 26> *
| 27> 
| 28>                          ****END OF INPUT****
================================================================================

                       ****************************
                       * Single Point Calculation *
                       ****************************

---------------------------------
CARTESIAN COORDINATES (ANGSTROEM)
---------------------------------
  C     -3.006375   -0.596727   -0.783679
  C     -2.498132    0.374655    0.274819
  C     -1.194029   -0.096938    0.927734
  C      0.008890    0.057698    0.032123
  O      0.046372   -0.163056   -1.159543
  O      1.059798    0.484336    0.727893
  C      2.315296    0.645808    0.046844
  C      3.103711   -0.654968    0.036189
  H     -3.916887   -0.215912   -1.238698
  H     -2.259132   -0.728732   -1.561526
  H     -3.220573   -1.566253   -0.340243
  H     -3.250918    0.483717    1.056897
  H     -2.338669    1.355125   -0.178079
  H     -1.278139   -1.157513    1.176359
  H     -0.992645    0.455813    1.845129
  H      2.116985    0.985383   -0.974386
  H      2.836048    1.420998    0.609771
  H      3.243665   -1.015381    1.051729
  H      2.570142   -1.409497   -0.537664
  H      4.072813   -0.484581   -0.421226

----------------------------
CARTESIAN COORDINATES (A.U.)
----------------------------
  NO LB      ZA    FRAG     MASS         X           Y           Z
   0 C     6.0000    0    12.011   -5.681226   -1.127651   -1.480938
   1 C     6.0000    0    12.011   -4.720785    0.707995    0.519332
   2 C     6.0000    0    12.011   -2.256388   -0.183185    1.753162
   3 C     6.0000    0    12.011    0.016800    0.109033    0.060703
   4 O     8.0000    0    15.999    0.087630   -0.308132   -2.191219
   5 O     8.0000    0    15.999    2.002728    0.915263    1.375518
   6 C     6.0000    0    12.011    4.375275    1.220401    0.088523
   7 C     6.0000    0    12.011    5.865164   -1.237709    0.068388
   8 H     1.0000    0     1.008   -7.401843   -0.408014   -2.340801
   9 H     1.0000    0     1.008   -4.269141   -1.377104   -2.950857
  10 H     1.0000    0     1.008   -6.086001   -2.959789   -0.642967
  11 H     1.0000    0     1.008   -6.143344    0.914093    1.997246
  12 H     1.0000    0     1.008   -4.419444    2.560815   -0.336521
  13 H     1.0000    0     1.008   -2.415333   -2.187382    2.222997
  14 H     1.0000    0     1.008   -1.875828    0.861361    3.486789
  15 H     1.0000    0     1.008    4.000523    1.862104   -1.841322
  16 H     1.0000    0     1.008    5.359355    2.685296    1.152299
  17 H     1.0000    0     1.008    6.129639   -1.918792    1.987479
  18 H     1.0000    0     1.008    4.856864   -2.663563   -1.016039
  19 H     1.0000    0     1.008    7.696502   -0.915725   -0.796002

--------------------------------
INTERNAL COORDINATES (ANGSTROEM)
--------------------------------
 C      0   0   0     0.000000000000     0.00000000     0.00000000
 C      1   0   0     1.523913389907     0.00000000     0.00000000
 C      2   1   0     1.532769073228   112.55149466     0.00000000
 C      3   2   1     1.507662260260   113.21856691    74.11304514
 O      4   3   2     1.212520345184   126.14372043   320.04170186
 O      4   3   2     1.330609826422   110.63534953   139.82256179
 C      6   4   3     1.437419628007   118.56185949   177.85195858
 C      7   6   4     1.521094958981   111.09875381   272.83971546
 H      1   2   3     1.086781799067   110.29632388   181.37577288
 H      1   2   3     1.086666544028   110.19951175   301.27370119
 H      1   2   3     1.087426534629   110.53417374    61.32814503
 H      2   1   3     1.090975662896   109.36110422   239.69909794
 H      2   1   3     1.091726306497   109.45293066   121.61426361
 H      3   2   1     1.092569950220   109.27477980   314.67909213
 H      3   2   1     1.089817708877   111.08456622   195.17458254
 H      7   6   4     1.094325633823   108.58601435    34.75389708
 H      7   6   4     1.090407319035   104.61920071   152.58269641
 H      8   7   6     1.086648867102   110.11125730   304.11360873
 H      8   7   6     1.087804528744   110.03645375    64.32680294
 H      8   7   6     1.085089820872   109.36516883   183.95828223

---------------------------
INTERNAL COORDINATES (A.U.)
---------------------------
 C      0   0   0     0.000000000000     0.00000000     0.00000000
 C      1   0   0     2.879778958740     0.00000000     0.00000000
 C      2   1   0     2.896513774945   112.55149466     0.00000000
 C      3   2   1     2.849068774341   113.21856691    74.11304514
 O      4   3   2     2.291331384205   126.14372043   320.04170186
 O      4   3   2     2.514488163043   110.63534953   139.82256179
 C      6   4   3     2.716329436456   118.56185949   177.85195858
 C      7   6   4     2.874452896162   111.09875381   272.83971546
 H      1   2   3     2.053719967566   110.29632388   181.37577288
 H      1   2   3     2.053502167107   110.19951175   301.27370119
 H      1   2   3     2.054938341208   110.53417374    61.32814503
 H      2   1   3     2.061645221647   109.36110422   239.69909794
 H      2   1   3     2.063063732476   109.45293066   121.61426361
 H      3   2   1     2.064657988067   109.27477980   314.67909213
 H      3   2   1     2.059457005675   111.08456622   195.17458254
 H      7   6   4     2.067975749255   108.58601435    34.75389708
 H      7   6   4     2.060571207399   104.61920071   152.58269641
 H      8   7   6     2.053468762559   110.11125730   304.11360873
 H      8   7   6     2.055652646565   110.03645375    64.32680294
 H      8   7   6     2.050522592154   109.36516883   183.95828223

---------------------
BASIS SET INFORMATION
---------------------
There are 3 groups of distinct atoms

 Group   1 Type C   : 7s4p1d contracted to 3s2p1d pattern {511/31/1}
 Group   2 Type O   : 7s4p1d contracted to 3s2p1d pattern {511/31/1}
 Group   3 Type H   : 4s contracted to 2s pattern {31}

Atom   0C    basis set group =>   1
Atom   1C    basis set group =>   1
Atom   2C    basis set group =>   1
Atom   3C    basis set group =>   1
Atom   4O    basis set group =>   2
Atom   5O    basis set group =>   2
Atom   6C    basis set group =>   1
Atom   7C    basis set group =>   1
Atom   8H    basis set group =>   3
Atom   9H    basis set group =>   3
Atom  10H    basis set group =>   3
Atom  11H    basis set group =>   3
Atom  12H    basis set group =>   3
Atom  13H    basis set group =>   3
Atom  14H    basis set group =>   3
Atom  15H    basis set group =>   3
Atom  16H    basis set group =>   3
Atom  17H    basis set group =>   3
Atom  18H    basis set group =>   3
Atom  19H    basis set group =>   3
---------------------------------
AUXILIARY/J BASIS SET INFORMATION
---------------------------------
There are 3 groups of distinct atoms

 Group   1 Type C   : 12s5p4d2f1g contracted to 6s4p3d1f1g pattern {711111/2111/211/2/1}
 Group   2 Type O   : 12s5p4d2f1g contracted to 6s4p3d1f1g pattern {711111/2111/211/2/1}
 Group   3 Type H   : 5s2p1d contracted to 3s1p1d pattern {311/2/1}

Atom   0C    basis set group =>   1
Atom   1C    basis set group =>   1
Atom   2C    basis set group =>   1
Atom   3C    basis set group =>   1
Atom   4O    basis set group =>   2
Atom   5O    basis set group =>   2
Atom   6C    basis set group =>   1
Atom   7C    basis set group =>   1
Atom   8H    basis set group =>   3
Atom   9H    basis set group =>   3
Atom  10H    basis set group =>   3
Atom  11H    basis set group =>   3
Atom  12H    basis set group =>   3
Atom  13H    basis set group =>   3
Atom  14H    basis set group =>   3
Atom  15H    basis set group =>   3
Atom  16H    basis set group =>   3
Atom  17H    basis set group =>   3
Atom  18H    basis set group =>   3
Atom  19H    basis set group =>   3
------------------------------------------------------------------------------
                             ORCA STARTUP CALCULATIONS
                           -- RI-GTO INTEGRALS CHOSEN --
------------------------------------------------------------------------------
------------------------------------------------------------------------------
                   ___                                                        
                  /   \      - P O W E R E D   B Y -                         
                 /     \                                                     
                 |  |  |   _    _      __       _____    __    __             
                 |  |  |  | |  | |    /  \     |  _  \  |  |  /  |          
                  \  \/   | |  | |   /    \    | | | |  |  | /  /          
                 / \  \   | |__| |  /  /\  \   | |_| |  |  |/  /          
                |  |  |   |  __  | /  /__\  \  |    /   |      \           
                |  |  |   | |  | | |   __   |  |    \   |  |\   \          
                \     /   | |  | | |  |  |  |  | |\  \  |  | \   \       
                 \___/    |_|  |_| |__|  |__|  |_| \__\ |__|  \__/        
                                                                              
                      - O R C A' S   B I G   F R I E N D -                    
                                      &                                       
                       - I N T E G R A L  F E E D E R -                       
                                                                              
 v1 FN, 2020, v2 2021, v3 2022-2024                                           
------------------------------------------------------------------------------


----------------------
SHARK INTEGRAL PACKAGE
----------------------

Number of atoms                             ...     20
Number of basis functions                   ...    136
Number of shells                            ...     72
Maximum angular momentum                    ...      2
Integral batch strategy                     ... SHARK/LIBINT Hybrid
RI-J (if used) integral strategy            ... SPLIT-RIJ (Revised 2003 algorithm where possible)
Printlevel                                  ...      1
Contraction scheme used                     ... SEGMENTED contraction
Prescreening option                         ... SCHWARTZ
   Thresh                                   ... 1.000e-09
   Tcut                                     ... 1.000e-10
   Tpresel                                  ... 1.000e-10 
Coulomb Range Separation                    ... NOT USED
Exchange Range Separation                   ... NOT USED
Multipole approximations                    ... NOT USED
Finite Nucleus Model                        ... NOT USED
CABS basis                                  ... NOT available
Auxiliary Coulomb fitting basis             ... AVAILABLE
   # of basis functions in Aux-J            ...    524
   # of shells in Aux-J                     ...    180
   Maximum angular momentum in Aux-J        ...      4
Auxiliary J/K fitting basis                 ... NOT available
Auxiliary Correlation fitting basis         ... NOT available
Auxiliary 'external' fitting basis          ... NOT available

Checking pre-screening integrals            ... done (  0.0 sec) Dimension = 72
Check shell pair data                       ... done (  0.0 sec)
Shell pair information
Shell pair cut-off parameter TPreSel        ...   1.0e-10
Total number of shell pairs                 ...      2628
Shell pairs after pre-screening             ...      2407
Total number of primitive shell pairs       ...     10580
Primitive shell pairs kept                  ...      6717
          la=0 lb=0:   1060 shell pairs
          la=1 lb=0:    726 shell pairs
          la=1 lb=1:    133 shell pairs
          la=2 lb=0:    336 shell pairs
          la=2 lb=1:    121 shell pairs
          la=2 lb=2:     31 shell pairs

Calculating one electron integrals          ... done (  0.0 sec)
Calculating RI/J V-Matrix + Cholesky decomp.... done (  0.1 sec)
Calculating Nuclear repulsion               ... done (  0.0 sec) ENN=    393.109892209489 Eh

Diagonalization of the overlap matrix:
Smallest eigenvalue                        ... 1.876e-03
Time for diagonalization                   ...    0.004 sec
Threshold for overlap eigenvalues          ... 1.000e-07
Number of eigenvalues below threshold      ... 0
Time for construction of square roots      ...    0.018 sec
Total time needed                          ...    0.031 sec

-------------------
DFT GRID GENERATION
-------------------

General Integration Accuracy     IntAcc      ... 4.159
Radial Grid Type                 RadialGrid  ... OptM3 with GC (2021)
Angular Grid (max. ang.)         AngularGrid ... 3 (Lebedev-194)
Angular grid pruning method      GridPruning ... 4 (adaptive)
Weight generation scheme         WeightScheme... mBecke (2022)
Basis function cutoff            BFCut       ... 1.0000e-10
Integration weight cutoff        WCut        ... 1.0000e-14
Partially contracted basis set               ... off
Rotationally invariant grid construction     ... off
Angular grids for H and He will be reduced by one unit

Total number of grid points                  ...    43098
Total number of batches                      ...      685
Average number of points per batch           ...       62
Average number of grid points per atom       ...     2155
Initializing property integral containers    ... done (  0.0 sec)

SHARK setup successfully completed in   0.7 seconds

Maximum memory used throughout the entire STARTUP-calculation: 21.1 MB
-------------------------------------------------------------------------------
                                 ORCA GUESS
                   Start orbitals & Density for SCF / CASSCF
-------------------------------------------------------------------------------

------------
SCF SETTINGS
------------
Hamiltonian:
 Density Functional     Method          .... DFT(GTOs)
 Exchange Functional    Exchange        .... PBE
   PBE kappa parameter   XKappa         ....  0.804000
   PBE mue parameter    XMuePBE         ....  0.219520
 Correlation Functional Correlation     .... PBE
   PBE beta parameter  CBetaPBE         ....  0.066725
 LDA part of GGA corr.  LDAOpt          .... PW91-LDA
 Gradients option       PostSCFGGA      .... off
   NL short-range parameter             ....  6.400000
 RI-approximation to the Coulomb term is turned on
   Number of AuxJ basis functions       .... 524


General Settings:
 Integral files         IntName         .... sp
 Hartree-Fock type      HFTyp           .... RHF
 Total Charge           Charge          ....    0
 Multiplicity           Mult            ....    1
 Number of Electrons    NEL             ....   64
 Basis Dimension        Dim             ....  136
 Nuclear Repulsion      ENuc            ....    393.1098922095 Eh

Convergence Acceleration:
 AO-DIIS                CNVDIIS         .... on
   Start iteration      DIISMaxIt       ....    12
   Startup error        DIISStart       ....  0.200000
   # of expansion vecs  DIISMaxEq       ....     5
   Bias factor          DIISBfac        ....   1.050
   Max. coefficient     DIISMaxC        ....  10.000
 MO-DIIS                CNVKDIIS        .... off
 Trust-Rad. Augm. Hess. CNVTRAH         .... auto
   Auto Start mean grad. ratio tolernc. ....  1.125000
   Auto Start start iteration           ....    50
   Auto Start num. interpolation iter.  ....    10
   Max. Number of Micro iterations      ....    24
   Max. Number of Macro iterations      .... Maxiter - #DIIS iter
   Number of Davidson start vectors     ....     2
   Converg. threshold    (grad. norm)   ....   1.000e-04
   Grad. Scal. Fac. for Micro threshold ....   0.100
   Minimum threshold for Micro iter.    ....   1.000e-02
   NR start threshold (gradient norm)   ....   1.000e-04
   Initial trust radius                 ....   0.400
   Minimum AH scaling param. (alpha)    ....   1.000
   Maximum AH scaling param. (alpha)    .... 1000.000
   Quad. conv. algorithm                .... NR
   White noise on init. David. guess    .... on
   Maximum white noise                  ....   0.010
   Pseudo random numbers                .... off
   Inactive MOs                         .... canonical
   Orbital update algorithm             .... Taylor
   Preconditioner                       .... Diag
   Full preconditioner red. dimension   ....   250
 SOSCF                  CNVSOSCF        .... on
   Start iteration      SOSCFMaxIt      ....   150
   Startup grad/error   SOSCFStart      ....  0.003300
   Hessian update       SOSCFHessUp     .... L-BFGS
 Level Shifting         CNVShift        .... on
   Level shift para.    LevelShift      ....    0.2500
   Turn off err/grad.   ShiftErr        ....    0.0010
 Zerner damping         CNVZerner       .... off
 Static damping         CNVDamp         .... on
   Fraction old density DampFac         ....    0.7000
   Max. Damping (<1)    DampMax         ....    0.9800
   Min. Damping (>=0)   DampMin         ....    0.0000
   Turn off err/grad.   DampErr         ....    0.1000

SCF Procedure:
 Maximum # iterations   MaxIter         ....   125
 SCF integral mode      SCFMode         .... Direct
   Integral package                     .... SHARK and LIBINT hybrid scheme
 Reset frequency        DirectResetFreq ....    20
 Integral Threshold     Thresh          ....  1.000e-09 Eh
 Primitive CutOff       TCut            ....  1.000e-10 Eh

Convergence Tolerance:
 Convergence Check Mode ConvCheckMode   .... Total+1el-Energy
 Convergence forced     ConvForced      .... 0
 Energy Change          TolE            ....  1.000e-05 Eh
 1-El. energy change                    ....  1.000e-02 Eh
 Orbital Gradient       TolG            ....  1.000e-04
 Orbital Rotation angle TolX            ....  1.000e-04
 DIIS Error             TolErr          ....  5.000e-04

------------------------------
INITIAL GUESS: MODEL POTENTIAL
------------------------------
Loading Hartree-Fock densities                     ... done
Calculating cut-offs                               ... done
Initializing the effective Hamiltonian             ... done
Setting up the integral package (SHARK)            ... done
Starting the Coulomb interaction                   ... done (   0.2 sec)
Making the grid                                    ... done (   0.2 sec)
Mapping shells                                     ... done
Starting the XC term evaluation                    ... done (   0.2 sec)
  promolecular density results
     # of electrons  =     63.996031000
     EX              =    -50.542861112
     EC              =     -2.106919541
     EX+EC           =    -52.649780653
Transforming the Hamiltonian                       ... done (   0.0 sec)
Diagonalizing the Hamiltonian                      ... done (   0.0 sec)
Back transforming the eigenvectors                 ... done (   0.0 sec)
Now organizing SCF variables                       ... done
                      ------------------
                      INITIAL GUESS DONE (   0.6 sec)
                      ------------------
             **** ENERGY FILE WAS UPDATED (sp.en.tmp) ****
Finished Guess after   0.8 sec
Maximum memory used throughout the entire GUESS-calculation: 16.1 MB

-------------------------------------------------------------------------------------------
                                      ORCA LEAN-SCF
                              memory conserving SCF solver
-------------------------------------------------------------------------------------------

----------------------------------------D-I-I-S--------------------------------------------
Iteration    Energy (Eh)           Delta-E    RMSDP     MaxDP     DIISErr   Damp  Time(sec)
-------------------------------------------------------------------------------------------
               ***  Starting incremental Fock matrix formation  ***
    1    -385.2849615542940001     0.00e+00  4.92e-03  1.04e-01  2.45e-01  0.700   0.9
    2    -385.4102945213462590    -1.25e-01  3.07e-03  5.22e-02  7.52e-02  0.700   1.0
                               ***Turning on AO-DIIS***
    3    -385.4487628487364645    -3.85e-02  1.25e-03  1.40e-02  2.45e-02  0.700   1.0
    4    -385.4738673123251829    -2.51e-02  1.77e-03  2.23e-02  1.70e-02  0.000   1.0
    5    -385.5321418445645349    -5.83e-02  5.56e-04  7.58e-03  9.01e-03  0.000   0.9
                              *** Initializing SOSCF ***
---------------------------------------S-O-S-C-F--------------------------------------
Iteration    Energy (Eh)           Delta-E    RMSDP     MaxDP     MaxGrad    Time(sec)
--------------------------------------------------------------------------------------
    6    -385.5328813804039783    -7.40e-04  2.09e-04  2.66e-03  3.18e-03     1.0
               *** Restarting incremental Fock matrix formation ***
    7    -385.5329356245613326    -5.42e-05  1.61e-04  3.01e-03  6.12e-04     0.9
    8    -385.5329135042900361     2.21e-05  9.18e-05  2.45e-03  1.95e-03     0.9
    9    -385.5329428014920268    -2.93e-05  6.95e-05  1.14e-03  3.44e-04     0.9
   10    -385.5329385303797380     4.27e-06  4.14e-05  8.32e-04  4.12e-04     0.9
                 **** Energy Check signals convergence ****

               *****************************************************
               *                     SUCCESS                       *
               *           SCF CONVERGED AFTER  10 CYCLES          *
               *****************************************************

             **** ENERGY FILE WAS UPDATED (sp.en.tmp) ****

----------------
TOTAL SCF ENERGY
----------------

Total Energy       :       -385.53293853037974 Eh          -10490.88460 eV

Components:
Nuclear Repulsion  :        393.10989220948863 Eh           10697.06400 eV
Electronic Energy  :       -778.64283073986837 Eh          -21187.94860 eV
One Electron Energy:      -1302.69637553948837 Eh          -35448.17053 eV
Two Electron Energy:        524.05354479962000 Eh           14260.22193 eV

Virial components:
Potential Energy   :       -767.92744163348743 Eh          -20896.36804 eV
Kinetic Energy     :        382.39450310310775 Eh           10405.48343 eV
Virial Ratio       :          2.00820732359331

DFT components:
N(Alpha)           :       32.000111276412 electrons
N(Beta)            :       32.000111276412 electrons
N(Total)           :       64.000222552824 electrons
E(X)               :      -51.597757463932 Eh       
E(C)               :       -2.123497215080 Eh       
E(XC)              :      -53.721254679013 Eh       

---------------
SCF CONVERGENCE
---------------

  Last Energy change         ...   -4.2711e-06  Tolerance :   1.0000e-05
  Last MAX-Density change    ...    8.3214e-04  Tolerance :   1.0000e-03
  Last RMS-Density change    ...    4.1408e-05  Tolerance :   1.0000e-04
  Last DIIS Error            ...    3.1778e-03  Tolerance :   5.0000e-04
  Last Orbital Gradient      ...    4.1229e-04  Tolerance :   1.0000e-04
  Last Orbital Rotation      ...    3.6334e-04  Tolerance :   1.0000e-04


----------------
ORBITAL ENERGIES
----------------

  NO   OCC          E(Eh)            E(eV) 
   0   2.0000     -18.797280      -511.5000 
   1   2.0000     -18.734016      -509.7785 
   2   2.0000     -10.006909      -272.3018 
   3   2.0000      -9.946194      -270.6497 
   4   2.0000      -9.897248      -269.3178 
   5   2.0000      -9.889847      -269.1164 
   6   2.0000      -9.887397      -269.0497 
   7   2.0000      -9.865966      -268.4666 
   8   2.0000      -1.004320       -27.3289 
   9   2.0000      -0.910668       -24.7805 
  10   2.0000      -0.724951       -19.7269 
  11   2.0000      -0.696141       -18.9430 
  12   2.0000      -0.635489       -17.2925 
  13   2.0000      -0.586829       -15.9684 
  14   2.0000      -0.530542       -14.4368 
  15   2.0000      -0.494812       -13.4645 
  16   2.0000      -0.454481       -12.3671 
  17   2.0000      -0.429042       -11.6748 
  18   2.0000      -0.417420       -11.3586 
  19   2.0000      -0.401728       -10.9316 
  20   2.0000      -0.388577       -10.5737 
  21   2.0000      -0.373396       -10.1606 
  22   2.0000      -0.362153        -9.8547 
  23   2.0000      -0.353738        -9.6257 
  24   2.0000      -0.333220        -9.0674 
  25   2.0000      -0.324170        -8.8211 
  26   2.0000      -0.300839        -8.1862 
  27   2.0000      -0.299684        -8.1548 
  28   2.0000      -0.295367        -8.0374 
  29   2.0000      -0.287378        -7.8200 
  30   2.0000      -0.256590        -6.9822 
  31   2.0000      -0.217358        -5.9146 
  32   0.0000      -0.020849        -0.5673 
  33   0.0000       0.043348         1.1796 
  34   0.0000       0.054979         1.4961 
  35   0.0000       0.079254         2.1566 
  36   0.0000       0.083799         2.2803 
  37   0.0000       0.086929         2.3654 
  38   0.0000       0.091968         2.5026 
  39   0.0000       0.100352         2.7307 
  40   0.0000       0.108423         2.9503 
  41   0.0000       0.120468         3.2781 
  42   0.0000       0.126675         3.4470 
*Only the first 10 virtual orbitals were printed.

                    ********************************
                    * MULLIKEN POPULATION ANALYSIS *
                    ********************************

-----------------------
MULLIKEN ATOMIC CHARGES
-----------------------
   0 C :   -0.293565
   1 C :   -0.183385
   2 C :   -0.149699
   3 C :    0.108532
   4 O :   -0.204210
   5 O :   -0.238010
   6 C :   -0.014646
   7 C :   -0.303394
   8 H :    0.099287
   9 H :    0.130352
  10 H :    0.090735
  11 H :    0.089653
  12 H :    0.095999
  13 H :    0.113078
  14 H :    0.099652
  15 H :    0.108127
  16 H :    0.101204
  17 H :    0.113034
  18 H :    0.125166
  19 H :    0.112090
Sum of atomic charges:    0.0000000

--------------------------------
MULLIKEN REDUCED ORBITAL CHARGES
--------------------------------
  0 C s       :     3.097447  s :     3.097447
      pz      :     1.062928  p :     3.167015
      px      :     1.073898
      py      :     1.030188
      dz2     :     0.003908  d :     0.029103
      dxz     :     0.008701
      dyz     :     0.005902
      dx2y2   :     0.006919
      dxy     :     0.003673

  1 C s       :     3.075623  s :     3.075623
      pz      :     1.020085  p :     3.070923
      px      :     0.995239
      py      :     1.055599
      dz2     :     0.005092  d :     0.036838
      dxz     :     0.011236
      dyz     :     0.006882
      dx2y2   :     0.009063
      dxy     :     0.004565

  2 C s       :     3.002504  s :     3.002504
      pz      :     1.055706  p :     3.114033
      px      :     1.006076
      py      :     1.052250
      dz2     :     0.005579  d :     0.033162
      dxz     :     0.008151
      dyz     :     0.005771
      dx2y2   :     0.009728
      dxy     :     0.003932

  3 C s       :     3.056414  s :     3.056414
      pz      :     0.937194  p :     2.704270
      px      :     0.917329
      py      :     0.849747
      dz2     :     0.028076  d :     0.130784
      dxz     :     0.051900
      dyz     :     0.026219
      dx2y2   :     0.011518
      dxy     :     0.013071

  4 O s       :     3.753136  s :     3.753136
      pz      :     1.305472  p :     4.433624
      px      :     1.710045
      py      :     1.418107
      dz2     :     0.007602  d :     0.017450
      dxz     :     0.003944
      dyz     :     0.005453
      dx2y2   :     0.000264
      dxy     :     0.000187

  5 O s       :     3.732066  s :     3.732066
      pz      :     1.611137  p :     4.489906
      px      :     1.213708
      py      :     1.665061
      dz2     :     0.002486  d :     0.016038
      dxz     :     0.006082
      dyz     :     0.002292
      dx2y2   :     0.002508
      dxy     :     0.002670

  6 C s       :     3.074176  s :     3.074176
      pz      :     1.008930  p :     2.881613
      px      :     0.795725
      py      :     1.076958
      dz2     :     0.009722  d :     0.058857
      dxz     :     0.013865
      dyz     :     0.009211
      dx2y2   :     0.013039
      dxy     :     0.013020

  7 C s       :     3.101142  s :     3.101142
      pz      :     1.082248  p :     3.174334
      px      :     1.048773
      py      :     1.043313
      dz2     :     0.005376  d :     0.027917
      dxz     :     0.004555
      dyz     :     0.006871
      dx2y2   :     0.005451
      dxy     :     0.005665

  8 H s       :     0.900713  s :     0.900713

  9 H s       :     0.869648  s :     0.869648

 10 H s       :     0.909265  s :     0.909265

 11 H s       :     0.910347  s :     0.910347

 12 H s       :     0.904001  s :     0.904001

 13 H s       :     0.886922  s :     0.886922

 14 H s       :     0.900348  s :     0.900348

 15 H s       :     0.891873  s :     0.891873

 16 H s       :     0.898796  s :     0.898796

 17 H s       :     0.886966  s :     0.886966

 18 H s       :     0.874834  s :     0.874834

 19 H s       :     0.887910  s :     0.887910


------------------------
MULLIKEN OVERLAP CHARGES
------------------------
B(  0-C ,  1-C ) :   0.8822 B(  0-C ,  2-C ) :  -0.0898 B(  0-C ,  8-H ) :   0.7196 
B(  0-C ,  9-H ) :   0.7523 B(  0-C , 10-H ) :   0.7493 B(  1-C ,  2-C ) :   0.7469 
B(  1-C ,  3-C ) :  -0.0574 B(  1-C ,  9-H ) :  -0.0524 B(  1-C , 10-H ) :  -0.0528 
B(  1-C , 11-H ) :   0.7135 B(  1-C , 12-H ) :   0.7355 B(  2-C ,  3-C ) :   0.5664 
B(  2-C ,  4-O ) :  -0.2211 B(  2-C ,  5-O ) :  -0.2647 B(  2-C , 12-H ) :  -0.0716 
B(  2-C , 13-H ) :   0.6365 B(  2-C , 14-H ) :   0.5907 B(  3-C ,  4-O ) :   1.3313 
B(  3-C ,  5-O ) :   0.7631 B(  3-C ,  6-C ) :  -0.0606 B(  4-O ,  5-O ) :  -0.1667 
B(  4-O ,  9-H ) :   0.0563 B(  4-O , 15-H ) :   0.0547 B(  5-O ,  6-C ) :   0.5234 
B(  5-O ,  7-C ) :  -0.0797 B(  5-O , 15-H ) :  -0.0644 B(  5-O , 16-H ) :  -0.0548 
B(  6-C ,  7-C ) :   0.9381 B(  6-C , 15-H ) :   0.7091 B(  6-C , 16-H ) :   0.7365 
B(  7-C , 15-H ) :  -0.0599 B(  7-C , 16-H ) :  -0.0569 B(  7-C , 17-H ) :   0.7400 
B(  7-C , 18-H ) :   0.7454 B(  7-C , 19-H ) :   0.7116 B( 11-H , 12-H ) :  -0.0637 
B( 15-H , 16-H ) :  -0.0628 B( 17-H , 18-H ) :  -0.0530 


                     *******************************
                     * LOEWDIN POPULATION ANALYSIS *
                     *******************************

----------------------
LOEWDIN ATOMIC CHARGES
----------------------
   0 C :   -0.349882
   1 C :   -0.225106
   2 C :   -0.249369
   3 C :    0.043171
   4 O :   -0.167898
   5 O :   -0.068815
   6 C :   -0.114453
   7 C :   -0.355846
   8 H :    0.117554
   9 H :    0.126915
  10 H :    0.113577
  11 H :    0.117843
  12 H :    0.119940
  13 H :    0.141639
  14 H :    0.130839
  15 H :    0.118999
  16 H :    0.116757
  17 H :    0.124170
  18 H :    0.129862
  19 H :    0.130104

-------------------------------
LOEWDIN REDUCED ORBITAL CHARGES
-------------------------------
  0 C s       :     2.946174  s :     2.946174
      pz      :     1.111182  p :     3.333290
      px      :     1.123721
      py      :     1.098387
      dz2     :     0.007956  d :     0.070418
      dxz     :     0.021219
      dyz     :     0.016063
      dx2y2   :     0.016327
      dxy     :     0.008855

  1 C s       :     2.906134  s :     2.906134
      pz      :     1.084337  p :     3.230402
      px      :     1.049388
      py      :     1.096677
      dz2     :     0.010396  d :     0.088571
      dxz     :     0.027268
      dyz     :     0.018233
      dx2y2   :     0.021959
      dxy     :     0.010715

  2 C s       :     2.916501  s :     2.916501
      pz      :     1.085089  p :     3.249013
      px      :     1.059097
      py      :     1.104828
      dz2     :     0.013482  d :     0.083855
      dxz     :     0.023175
      dyz     :     0.013932
      dx2y2   :     0.024422
      dxy     :     0.008845

  3 C s       :     2.848018  s :     2.848018
      pz      :     1.024467  p :     2.812145
      px      :     0.946976
      py      :     0.840702
      dz2     :     0.068299  d :     0.296666
      dxz     :     0.124394
      dyz     :     0.054307
      dx2y2   :     0.023852
      dxy     :     0.025813

  4 O s       :     3.549244  s :     3.549244
      pz      :     1.452062  p :     4.587730
      px      :     1.712525
      py      :     1.423143
      dz2     :     0.016400  d :     0.030924
      dxz     :     0.006227
      dyz     :     0.007725
      dx2y2   :     0.000326
      dxy     :     0.000246

  5 O s       :     3.452748  s :     3.452748
      pz      :     1.650231  p :     4.583432
      px      :     1.279067
      py      :     1.654133
      dz2     :     0.004081  d :     0.032635
      dxz     :     0.013044
      dyz     :     0.003260
      dx2y2   :     0.006514
      dxy     :     0.005736

  6 C s       :     2.924620  s :     2.924620
      pz      :     1.078406  p :     3.058560
      px      :     0.874661
      py      :     1.105493
      dz2     :     0.023199  d :     0.131272
      dxz     :     0.029669
      dyz     :     0.019549
      dx2y2   :     0.026843
      dxy     :     0.032013

  7 C s       :     2.951905  s :     2.951905
      pz      :     1.131700  p :     3.335203
      px      :     1.108470
      py      :     1.095032
      dz2     :     0.013958  d :     0.068738
      dxz     :     0.010642
      dyz     :     0.015463
      dx2y2   :     0.013152
      dxy     :     0.015523

  8 H s       :     0.882446  s :     0.882446

  9 H s       :     0.873085  s :     0.873085

 10 H s       :     0.886423  s :     0.886423

 11 H s       :     0.882157  s :     0.882157

 12 H s       :     0.880060  s :     0.880060

 13 H s       :     0.858361  s :     0.858361

 14 H s       :     0.869161  s :     0.869161

 15 H s       :     0.881001  s :     0.881001

 16 H s       :     0.883243  s :     0.883243

 17 H s       :     0.875830  s :     0.875830

 18 H s       :     0.870138  s :     0.870138

 19 H s       :     0.869896  s :     0.869896


---------------------------------
LOEWDIN BOND ORDERS (THRESH 0.050000)
---------------------------------
B(  0-C ,  1-C ) :   1.1331 B(  0-C ,  2-C ) :   0.0529 B(  0-C ,  8-H ) :   0.9383 
B(  0-C ,  9-H ) :   0.9310 B(  0-C , 10-H ) :   0.9402 B(  1-C ,  2-C ) :   1.0809 
B(  1-C ,  3-C ) :   0.0593 B(  1-C , 11-H ) :   0.9067 B(  1-C , 12-H ) :   0.9082 
B(  2-C ,  3-C ) :   1.0608 B(  2-C ,  4-O ) :   0.0926 B(  2-C ,  5-O ) :   0.0756 
B(  2-C , 13-H ) :   0.8796 B(  2-C , 14-H ) :   0.8943 B(  3-C ,  4-O ) :   2.1911 
B(  3-C ,  5-O ) :   1.3992 B(  3-C ,  6-C ) :   0.0751 B(  4-O ,  5-O ) :   0.2074 
B(  5-O ,  6-C ) :   1.0754 B(  5-O ,  7-C ) :   0.0536 B(  6-C ,  7-C ) :   1.1498 
B(  6-C , 15-H ) :   0.9068 B(  6-C , 16-H ) :   0.9203 B(  7-C , 17-H ) :   0.9386 
B(  7-C , 18-H ) :   0.9357 B(  7-C , 19-H ) :   0.9304 

------------------------------------------
LOEWDIN REDUCED ORBITAL POPULATIONS PER MO
-------------------------------------------
THRESHOLD FOR PRINTING IS 0.1%%
                      0         1         2         3         4         5   
                 -18.79728 -18.73402 -10.00691  -9.94619  -9.89725  -9.88985
                   2.00000   2.00000   2.00000   2.00000   2.00000   2.00000
                  --------  --------  --------  --------  --------  --------
 1 C  s               0.0       0.0       0.0       0.0       0.0      99.6
 2 C  s               0.0       0.0       0.0       0.0      99.6       0.0
 3 C  s               0.0       0.0      99.3       0.0       0.0       0.0
 4 O  s               0.0      99.9       0.0       0.0       0.0       0.0
 4 O  pz              0.0       0.0       0.3       0.0       0.0       0.0
 5 O  s              99.9       0.0       0.0       0.0       0.0       0.0
 5 O  px              0.0       0.0       0.1       0.1       0.0       0.0
 6 C  s               0.0       0.0       0.0      99.7       0.0       0.0

                      6         7         8         9        10        11   
                  -9.88740  -9.86597  -1.00432  -0.91067  -0.72495  -0.69614
                   2.00000   2.00000   2.00000   2.00000   2.00000   2.00000
                  --------  --------  --------  --------  --------  --------
 0 C  s               0.0      99.7       0.0       0.0       5.5       6.2
 0 C  pz              0.0       0.0       0.0       0.0       0.9       0.6
 0 C  px              0.0       0.0       0.0       0.0       0.3       0.2
 0 C  py              0.0       0.0       0.0       0.0       0.5       0.4
 1 C  s               0.0       0.0       0.1       0.1      15.2      10.0
 1 C  px              0.0       0.0       0.1       0.1       1.1       0.0
 1 C  py              0.0       0.0       0.0       0.0       0.6       0.4
 2 C  s               0.0       0.0       1.0       0.2      20.2       2.5
 2 C  pz              0.0       0.0       0.5       0.5       0.5       0.2
 2 C  px              0.0       0.0       1.4       0.0       0.2       2.7
 2 C  py              0.0       0.0       0.0       0.0       0.2       0.0
 3 C  s               0.0       0.0      18.7       4.9       3.6       0.9
 3 C  pz              0.0       0.0       0.1      20.2       6.5       0.6
 3 C  px              0.0       0.0       4.8       2.3       3.3       1.6
 3 C  py              0.0       0.0       0.3       1.7       0.0       0.3
 3 C  dz2             0.0       0.0       0.2       1.5       0.0       0.0
 3 C  dxz             0.0       0.0       0.3       0.2       0.0       0.1
 3 C  dyz             0.0       0.0       0.2       0.0       0.0       0.0
 3 C  dx2y2           0.0       0.0       0.2       0.1       0.1       0.0
 3 C  dxy             0.0       0.0       0.2       0.1       0.0       0.0
 4 O  s               0.0       0.0      11.8      41.2       1.7       0.0
 4 O  pz              0.0       0.0       2.7       4.2       0.2       0.1
 4 O  py              0.0       0.0       0.1       0.1       0.0       0.0
 4 O  dz2             0.0       0.0       0.1       0.2       0.0       0.0
 5 O  s               0.0       0.0      40.6      16.0       0.0       1.1
 5 O  pz              0.0       0.0       2.6       0.2       0.2       0.1
 5 O  px              0.0       0.0       0.3       0.4       6.4       7.9
 5 O  py              0.0       0.0       0.3       0.0       0.2       0.3
 5 O  dxz             0.0       0.0       0.0       0.0       0.1       0.1
 6 C  s               0.0       0.0       4.6       2.4       6.6      16.7
 6 C  pz              0.0       0.0       0.7       0.7       0.0       0.0
 6 C  px              0.0       0.0       4.6       1.1       0.1       1.6
 6 C  py              0.1       0.0       0.2       0.0       0.2       1.1
 6 C  dxz             0.0       0.0       0.2       0.1       0.0       0.0
 6 C  dx2y2           0.0       0.0       0.2       0.1       0.0       0.0
 7 C  s              99.7       0.0       0.3       0.2       3.7      17.2
 7 C  px              0.0       0.0       0.3       0.1       0.2       0.4
 7 C  py              0.0       0.0       0.2       0.2       0.5       1.4
 8 H  s               0.0       0.1       0.0       0.0       0.9       1.1
 9 H  s               0.0       0.1       0.0       0.1       1.0       1.2
10 H  s               0.0       0.1       0.0       0.0       1.0       1.2
11 H  s               0.0       0.0       0.0       0.0       2.7       2.0
12 H  s               0.0       0.0       0.0       0.0       2.8       1.8
13 H  s               0.0       0.0       0.1       0.0       3.9       0.6
14 H  s               0.0       0.0       0.3       0.0       4.0       0.3
15 H  s               0.0       0.0       0.8       0.1       1.2       3.1
16 H  s               0.0       0.0       0.5       0.3       1.3       3.7
17 H  s               0.1       0.0       0.1       0.0       0.7       3.4
18 H  s               0.1       0.0       0.1       0.0       0.7       3.2
19 H  s               0.1       0.0       0.0       0.0       0.6       3.5

                     12        13        14        15        16        17   
                  -0.63549  -0.58683  -0.53054  -0.49481  -0.45448  -0.42904
                   2.00000   2.00000   2.00000   2.00000   2.00000   2.00000
                  --------  --------  --------  --------  --------  --------
 0 C  s              16.7       8.4       9.2       0.1       0.0       0.2
 0 C  pz              0.1       0.3       3.0       0.0       0.7       0.1
 0 C  px              0.0       0.2       0.2       0.0       0.3       1.4
 0 C  py              0.1       0.1       4.0       0.5       1.4       0.7
 0 C  dyz             0.0       0.0       0.1       0.0       0.0       0.0
 1 C  s               3.8       0.3      13.9       0.7       0.1       0.2
 1 C  pz              3.0       2.7       2.1       0.1       4.9       3.1
 1 C  px              3.9       2.3       0.3       0.4       0.5       0.5
 1 C  py              0.3       0.3       5.7       1.2       3.6       0.0
 2 C  s               9.6       5.2       1.7       1.0       1.5       0.3
 2 C  pz              0.2       0.2       0.0       0.5       9.3      13.6
 2 C  px              3.4       0.9       7.1       0.3       4.2       0.4
 2 C  py              0.0       0.0       2.8       1.7       4.9       2.6
 2 C  dxz             0.1       0.0       0.1       0.0       0.1       0.1
 2 C  dx2y2           0.0       0.0       0.0       0.1       0.1       0.0
 3 C  s               3.2       1.0       0.8       1.9       1.4       2.4
 3 C  pz              3.8       0.8       1.1       0.6       0.4       0.1
 3 C  px              2.7       3.4       3.0       1.3       9.5       0.9
 3 C  py              0.1       0.2       0.7       2.4       1.3       6.3
 3 C  dz2             0.0       0.0       0.0       0.0       0.0       0.3
 3 C  dxz             0.1       0.2       0.1       0.0       0.0       0.0
 4 O  s               0.6       0.2       0.2       1.1       0.1       7.6
 4 O  pz              0.2       0.1       0.1       0.6       0.2      12.7
 4 O  px              0.1       0.2       0.4       0.7       5.7       0.3
 4 O  py              0.0       0.0       0.1       0.9       0.2       0.6
 4 O  dz2             0.0       0.0       0.0       0.0       0.0       0.2
 5 O  s               1.2       0.0       0.4       3.8       0.8       0.9
 5 O  pz              0.1       0.0       0.1       5.8       7.3       3.5
 5 O  px              3.2      14.3       0.1      13.6       0.0       3.5
 5 O  py              0.5       2.6       0.1       0.0       3.1       7.6
 5 O  dxz             0.0       0.2       0.0       0.1       0.0       0.0
 6 C  s               0.3       5.2       2.7       6.3       0.0       0.2
 6 C  pz              0.4       0.7       0.0      14.0       8.2       0.4
 6 C  px              3.2       2.1       0.3       3.7       2.7       1.8
 6 C  py              1.5       5.1       1.6       4.4       2.4       5.3
 6 C  dxz             0.1       0.0       0.0       0.5       0.0       0.0
 6 C  dx2y2           0.1       0.1       0.0       0.1       0.0       0.0
 7 C  s              10.4      12.4       1.1       1.1       0.0       0.1
 7 C  pz              0.0       0.0       0.0       2.1       2.0       0.0
 7 C  px              0.1       0.7       0.1       0.0       2.0       6.2
 7 C  py              0.0       1.9       1.5       5.1       0.2       0.0
 8 H  s               4.2       2.8       3.5       0.0       0.0       0.5
 9 H  s               3.6       2.1       4.5       0.2       0.2       0.1
10 H  s               3.7       2.3       4.7       0.2       0.9       0.6
11 H  s               1.0       0.1       7.6       0.4       0.6       0.6
12 H  s               0.8       0.1       6.9       1.0       2.9       0.5
13 H  s               2.3       1.6       2.0       1.9       6.4       0.0
14 H  s               2.9       1.4       0.4       0.3       1.6       8.0
15 H  s               0.0       1.3       1.1      12.1       2.0       0.1
16 H  s               0.0       2.8       2.1       3.2       3.8       2.2
17 H  s               2.5       3.8       0.6       2.9       0.8       0.3
18 H  s               2.5       4.3       0.8       0.9       0.8       0.2
19 H  s               2.9       4.5       0.4       0.0       0.3       2.2

                     18        19        20        21        22        23   
                  -0.41742  -0.40173  -0.38858  -0.37340  -0.36215  -0.35374
                   2.00000   2.00000   2.00000   2.00000   2.00000   2.00000
                  --------  --------  --------  --------  --------  --------
 0 C  s               0.1       0.1       0.3       0.0       0.0       0.0
 0 C  pz              2.0       7.0       0.9       0.6       8.9       1.1
 0 C  px              1.1       0.4      12.0       9.7       0.8       0.1
 0 C  py              0.3       2.2       0.1       3.1      10.9       1.9
 1 C  s               0.4       0.1       0.4       0.0       0.0       0.0
 1 C  pz              0.8       1.7       2.5       0.0       6.3       1.0
 1 C  px              7.6       0.1       1.7      11.7       0.5       1.9
 1 C  py              0.0       9.6       2.5       0.7       2.9       0.3
 2 C  s               0.5       0.1       0.1       0.1       0.3       0.0
 2 C  pz              0.6       2.7       4.8       0.0       3.3       0.3
 2 C  px              0.3       3.9       0.8       6.0       0.1       1.3
 2 C  py              3.7       5.7       5.5       2.9       5.8       3.0
 2 C  dxz             0.0       0.0       0.0       0.2       0.1       0.0
 2 C  dx2y2           0.0       0.0       0.0       0.0       0.3       0.0
 3 C  s               0.1       0.7       1.4       0.2       0.2       0.1
 3 C  pz              1.3       2.1       3.2       0.4       0.4       1.8
 3 C  px              2.1       0.2       0.0       3.0       4.0       0.1
 3 C  py             10.2       0.8       1.0       2.6       1.3       0.5
 3 C  dxz             0.1       0.0       0.2       0.0       0.0       0.0
 3 C  dxy             0.0       0.1       0.0       0.0       0.0       0.1
 4 O  s               0.4       3.6       5.6       0.1       0.3       1.0
 4 O  pz              0.0       9.1      17.9       0.8       0.8       5.5
 4 O  px              0.4       0.0       0.2       0.7       2.3       0.1
 4 O  py              5.0       1.7       2.9       1.5       0.3       0.1
 4 O  dz2             0.0       0.1       0.2       0.0       0.0       0.0
 5 O  s               0.0       0.0       1.7       0.6       0.2       0.8
 5 O  pz              5.2       1.7       3.6       2.5       4.4       1.1
 5 O  px              1.0       0.4       1.2       1.1       0.1       1.6
 5 O  py             11.9       5.1       0.0       3.1       0.0       1.9
 6 C  s               0.5       0.3       0.0       0.1       0.2       0.1
 6 C  pz              4.6       1.1       2.2       1.4       0.2       0.1
 6 C  px             10.9       0.2       0.2       2.3       0.3       0.8
 6 C  py              0.0       5.9       0.3       2.9       2.8       3.9
 6 C  dxz             0.1       0.0       0.0       0.1       0.0       0.2
 6 C  dx2y2           0.1       0.1       0.0       0.0       0.1       0.1
 7 C  s               0.4       0.1       0.0       0.0       0.0       0.0
 7 C  pz              3.7       0.6       5.7      13.7       1.2      14.6
 7 C  px              0.0       9.8       0.8       1.3      10.2       7.6
 7 C  py              7.2       0.3       0.1       3.9       0.1      13.3
 7 C  dz2             0.0       0.0       0.0       0.0       0.0       0.3
 7 C  dxz             0.0       0.0       0.0       0.0       0.0       0.3
 7 C  dx2y2           0.1       0.0       0.0       0.0       0.1       0.1
 7 C  dxy             0.1       0.0       0.0       0.1       0.0       0.0
 8 H  s               0.0       2.3       5.3       3.4       1.4       0.0
 9 H  s               1.4       1.3       1.0       3.6       1.9       0.6
10 H  s               0.0       1.5       0.4       0.3       8.3       0.4
11 H  s               3.6       0.4       1.2       2.9       2.5       0.0
12 H  s               0.0       3.8       0.0       0.0       3.3       0.0
13 H  s               0.7       1.5       1.1       0.7       5.7       1.2
14 H  s               0.3       4.5       5.3       0.1       0.2       1.0
15 H  s               1.4       0.3       1.0       0.9       0.0       1.6
16 H  s               4.7       1.6       0.0       0.1       0.4       1.0
17 H  s               0.0       1.1       2.1       2.9       1.1      11.7
18 H  s               3.9       0.6       0.2       4.0       1.7       2.4
19 H  s               0.5       3.2       1.6       3.0       3.1      12.6

                     24        25        26        27        28        29   
                  -0.33322  -0.32417  -0.30084  -0.29968  -0.29537  -0.28738
                   2.00000   2.00000   2.00000   2.00000   2.00000   2.00000
                  --------  --------  --------  --------  --------  --------
 0 C  s               0.0       0.0       0.1       0.4       0.1       0.0
 0 C  pz              1.5       0.1       0.1      25.7       1.0       0.0
 0 C  px              4.2       1.2      16.8       0.2       1.1       4.9
 0 C  py              5.1       6.9       0.7       1.6      14.0       0.2
 0 C  dz2             0.0       0.0       0.1       0.0       0.1       0.1
 0 C  dxz             0.1       0.0       0.3       0.1       0.2       0.1
 0 C  dyz             0.0       0.1       0.2       0.0       0.1       0.1
 0 C  dx2y2           0.0       0.0       0.0       0.2       0.4       0.0
 0 C  dxy             0.0       0.0       0.0       0.2       0.1       0.0
 1 C  s               0.0       0.0       0.0       0.1       0.1       0.0
 1 C  pz              1.1       1.7       0.0      19.8       2.3       0.2
 1 C  px              1.4       0.1       9.7       0.1       1.3       6.9
 1 C  py              1.2       2.4       1.1       3.4      17.9       0.5
 1 C  dz2             0.0       0.1       0.2       0.0       0.1       0.0
 1 C  dxz             0.0       0.0       0.2       0.3       0.2       0.1
 1 C  dyz             0.0       0.0       0.2       0.1       0.1       0.1
 1 C  dx2y2           0.0       0.0       0.0       0.1       0.7       0.0
 1 C  dxy             0.0       0.0       0.0       0.3       0.0       0.0
 2 C  s               0.2       0.0       0.7       0.0       0.5       0.0
 2 C  pz              0.4       2.6       4.6       2.8       2.4       0.1
 2 C  px              0.6       1.3       2.7       2.2       3.8       6.0
 2 C  py              2.4       2.0       0.1       4.3       7.1       0.4
 2 C  dz2             0.0       0.0       0.1       0.2       0.0       0.0
 2 C  dxz             0.0       0.1       0.0       0.2       0.0       0.1
 2 C  dyz             0.1       0.0       0.1       0.1       0.1       0.0
 2 C  dx2y2           0.0       0.1       0.0       0.0       0.4       0.0
 3 C  s               0.0       0.1       0.0       0.1       0.0       0.8
 3 C  pz              0.3       2.9       0.9       0.2       0.1       2.7
 3 C  px              2.1       0.6       0.7       0.4       0.0       0.3
 3 C  py              6.5       3.9       0.2       0.3       0.7       0.3
 3 C  dz2             0.0       0.3       0.2       0.0       0.1       0.3
 3 C  dxz             0.0       0.1       0.1       0.3       0.0       0.2
 3 C  dyz             0.3       0.0       0.0       0.0       0.1       0.1
 3 C  dxy             0.1       0.0       0.0       0.1       0.0       0.0
 4 O  s               0.6       0.7       0.6       0.0       0.0       0.4
 4 O  pz              5.0       3.2       3.6       0.3       0.0       4.0
 4 O  px              1.3       0.0       3.2       3.6       0.0       0.3
 4 O  py              9.7       8.1       0.0       0.3       3.7       0.1
 5 O  s               0.0       0.3       0.4       0.2       0.0       3.3
 5 O  pz              1.2       4.3       4.4       0.0       0.0      27.3
 5 O  px              0.2       1.9       0.0       0.8       0.0       0.9
 5 O  py              0.4       1.5       0.5       0.4       0.9       0.0
 5 O  dx2y2           0.0       0.0       0.0       0.0       0.0       0.1
 6 C  s               0.1       0.0       0.0       0.0       0.0       0.2
 6 C  pz              0.4       2.6       5.9       0.1       0.1       9.6
 6 C  px              0.1       5.6       0.8       0.2       0.0       0.4
 6 C  py             11.9       0.6       0.3       0.2       0.4       0.0
 6 C  dz2             0.0       0.0       0.2       0.0       0.0       0.4
 6 C  dyz             0.1       0.2       0.2       0.0       0.0       0.2
 6 C  dx2y2           0.1       0.2       0.0       0.0       0.0       0.1
 6 C  dxy             0.3       0.0       0.1       0.0       0.0       0.1
 7 C  s               0.1       0.1       0.0       0.0       0.0       0.0
 7 C  pz              1.4       5.9       2.7       0.0       0.1       2.5
 7 C  px              0.8      12.0       0.2       0.5       0.2       0.0
 7 C  py             13.1       0.1       0.2       0.1       0.3       0.0
 7 C  dyz             0.1       0.2       0.2       0.0       0.0       0.2
 7 C  dx2y2           0.0       0.2       0.0       0.0       0.0       0.0
 7 C  dxy             0.2       0.0       0.0       0.0       0.0       0.0
 8 H  s               2.1       0.0       6.0       2.2       5.8       2.2
 9 H  s               3.3       0.2       6.6       7.5       0.0       2.5
10 H  s               0.9       3.9       1.7       1.2      10.3       0.6
11 H  s               0.0       0.5       4.3       8.9       0.0       3.6
12 H  s               0.4       0.4       1.7       0.1      15.5       1.4
13 H  s               1.5       1.9       0.4       2.0       6.7       0.6
14 H  s               0.7       0.3       3.2       7.1       0.0       0.5
15 H  s               0.0       3.0       4.2       0.0       0.2       7.7
16 H  s               6.8       1.9       3.9       0.0       0.0       2.1
17 H  s               0.0       4.7       2.2       0.0       0.1       2.6
18 H  s               8.4       5.7       1.9       0.0       0.0       0.7
19 H  s               0.6       2.6       0.0       0.3       0.0       0.6

                     30        31        32        33        34        35   
                  -0.25659  -0.21736  -0.02085   0.04335   0.05498   0.07925
                   2.00000   2.00000   0.00000   0.00000   0.00000   0.00000
                  --------  --------  --------  --------  --------  --------
 0 C  s               0.0       0.1       0.2       2.8       3.2       0.1
 0 C  pz              0.0       1.0       0.0       0.2       0.1       0.5
 0 C  px              0.0       0.9       0.0       0.5       0.9       0.0
 0 C  py              0.0       0.0       0.1       0.6       0.4       2.9
 0 C  dyz             0.0       0.0       0.0       0.2       0.1       0.0
 0 C  dx2y2           0.0       0.0       0.0       0.1       0.0       0.1
 1 C  s               0.0       0.0       1.4       4.1       3.8       2.1
 1 C  pz              0.1       0.5       0.2       0.3       0.5       0.2
 1 C  px              0.0       0.3       1.0       1.2       1.0       0.1
 1 C  py              0.0       0.0       0.0       0.9       0.7       2.6
 1 C  dz2             0.0       0.0       0.0       0.0       0.0       0.1
 1 C  dxz             0.0       0.1       0.0       0.2       0.1       0.0
 1 C  dyz             0.0       0.0       0.0       0.0       0.0       0.1
 1 C  dx2y2           0.0       0.0       0.0       0.0       0.0       0.2
 1 C  dxy             0.0       0.0       0.0       0.0       0.0       0.1
 2 C  s               0.0       0.5       0.1       5.1       1.5       1.1
 2 C  pz              0.0       4.0       0.0       2.1       1.2       0.0
 2 C  px              0.1       3.1       0.2       0.1       0.0       0.2
 2 C  py              0.0       0.0       0.3       0.2       0.1       6.6
 2 C  dxz             0.0       0.0       0.1       0.0       0.0       0.0
 2 C  dyz             0.0       0.0       0.4       0.2       0.1       0.1
 2 C  dx2y2           0.0       0.0       0.6       0.0       0.0       0.1
 2 C  dxy             0.0       0.0       0.9       0.0       0.0       0.1
 3 C  s               0.0       0.4       0.0       1.4       0.0       0.0
 3 C  pz              0.0       0.5       1.7       0.8       0.0       0.1
 3 C  px              0.0       0.9       3.0       0.4       0.1       0.1
 3 C  py              0.4       0.1      41.9       2.0       0.2       1.0
 3 C  dz2             0.2       0.0       0.1       0.5       0.0       0.0
 3 C  dxz             0.1       4.0       0.0       0.0       0.0       0.0
 3 C  dyz             1.5       0.2       0.7       0.1       0.0       0.0
 3 C  dx2y2           0.3       0.0       0.0       0.0       0.0       0.0
 3 C  dxy             0.3       0.2       0.3       0.0       0.0       0.1
 4 O  s               0.0       0.0       0.0       0.9       0.0       0.0
 4 O  pz              1.1       0.0       0.8       0.2       0.0       0.0
 4 O  px              1.4      64.5       1.6       0.1       0.8       0.0
 4 O  py             31.9       3.9      22.3       0.8       0.0       0.7
 4 O  dyz             0.0       0.0       0.5       0.0       0.0       0.0
 5 O  s               0.0       0.3       0.0       0.3       0.0       0.4
 5 O  pz              1.7       5.3       0.5       0.2       0.1       0.2
 5 O  px              3.2       1.4       0.6       0.1       0.1       0.5
 5 O  py             40.6       1.5       8.9       0.7       0.3       0.4
 5 O  dx2y2           0.0       0.0       0.1       0.0       0.0       0.0
 5 O  dxy             0.0       0.0       0.3       0.0       0.0       0.0
 6 C  s               0.0       0.1       0.0       3.7       4.7       1.9
 6 C  pz              0.0       0.3       0.0       0.1       0.0       0.2
 6 C  px              0.3       0.4       0.1       0.6       0.4       4.5
 6 C  py              3.9       0.4       0.1       1.2       2.1       1.6
 6 C  dz2             0.1       0.1       0.1       0.0       0.1       0.0
 6 C  dxz             0.0       0.0       0.0       0.0       0.0       0.3
 6 C  dx2y2           0.0       0.0       0.0       0.0       0.0       0.5
 6 C  dxy             0.8       0.0       0.4       0.0       0.1       0.0
 7 C  s               0.5       0.0       0.8       4.7      10.0       3.4
 7 C  pz              0.2       0.0       0.0       0.0       0.0       0.0
 7 C  px              1.8       0.1       0.1       0.9       2.1       0.6
 7 C  py              4.9       0.2       0.3       1.3       0.9       1.0
 7 C  dx2y2           0.0       0.0       0.0       0.2       0.1       0.4
 8 H  s               0.0       0.1       0.0       3.5       4.5       1.5
 9 H  s               0.0       0.9       0.1       0.8       0.3       0.0
10 H  s               0.0       0.2       0.3       3.5       4.3       6.8
11 H  s               0.2       1.0       0.5       8.1       8.7       0.5
12 H  s               0.1       0.3       0.5       3.6       2.6      12.3
13 H  s               0.0       0.1       5.6       6.5       2.0      17.5
14 H  s               0.0       1.2       0.4      10.7       3.3       1.1
15 H  s               1.4       0.4       0.3       3.0       3.4       1.5
16 H  s               1.4       0.1       0.2       6.8       9.7      11.3
17 H  s               0.1       0.0       0.2       4.0       8.8       3.1
18 H  s               0.2       0.1       0.3       3.2       3.4       8.3
19 H  s               0.7       0.1       0.4       5.8      12.6       0.4

                     36        37        38        39        40        41   
                   0.08380   0.08693   0.09197   0.10035   0.10842   0.12047
                   0.00000   0.00000   0.00000   0.00000   0.00000   0.00000
                  --------  --------  --------  --------  --------  --------
 0 C  s               0.2       1.8      15.3       0.0       0.1       3.3
 0 C  pz              0.1       1.0       0.3       0.4       0.5       2.0
 0 C  px              0.4       0.1       1.2       0.0       0.7       0.8
 0 C  py              1.2       0.1       1.3       0.4       0.2       5.0
 0 C  dz2             0.1       0.1       0.0       0.2       0.2       0.0
 0 C  dxz             0.0       0.0       0.0       0.0       0.1       0.3
 0 C  dyz             0.0       0.0       0.0       0.0       0.0       0.5
 0 C  dx2y2           0.0       0.0       0.1       0.1       0.0       0.1
 0 C  dxy             0.0       0.0       0.0       0.0       0.1       0.2
 1 C  s               2.0       0.4       0.6       0.0       0.1       7.4
 1 C  pz              1.4       1.8       0.5       2.3       2.6       0.4
 1 C  px              0.3       0.5       0.6       0.1       1.3       2.2
 1 C  py              0.1       2.9       0.1       2.4       0.5       0.7
 1 C  dz2             0.1       0.0       0.0       0.0       0.0       0.6
 1 C  dxz             0.0       0.1       0.0       0.0       0.2       0.1
 1 C  dyz             0.0       0.3       0.3       0.0       0.0       0.0
 1 C  dx2y2           0.0       0.1       0.2       0.3       0.0       0.0
 1 C  dxy             0.3       0.0       0.1       0.1       0.2       0.2
 2 C  s               3.7       0.8       4.8       0.4       0.2       1.2
 2 C  pz              0.4       3.8       1.7       0.2       0.1       4.1
 2 C  px              0.2       0.3       0.2       0.2       0.0       0.6
 2 C  py              2.8       0.0       0.9       0.0       1.2       1.0
 2 C  dz2             0.5       0.1       0.0       0.2       0.1       0.0
 2 C  dxz             0.0       0.1       0.0       0.0       0.1       0.5
 2 C  dyz             0.2       0.0       0.0       0.0       0.0       0.2
 2 C  dx2y2           0.1       0.3       0.0       0.2       0.0       0.0
 3 C  s               1.4       2.2       0.6       0.1       0.8       0.6
 3 C  pz              0.7       0.5       0.2       0.8       0.2       0.6
 3 C  px              1.1       0.2       0.1       0.5       0.0       0.0
 3 C  py              0.1       0.2       0.0       0.2       0.2       1.0
 3 C  dz2             0.1       0.0       0.2       0.2       0.3       0.0
 3 C  dxz             0.0       0.0       0.1       0.0       0.0       0.0
 3 C  dx2y2           0.8       0.5       0.1       0.2       0.0       0.1
 3 C  dxy             0.4       0.1       0.0       0.1       0.1       0.1
 4 O  s               0.0       0.6       0.1       0.1       0.4       0.1
 4 O  pz              0.0       0.1       0.2       0.1       0.1       0.0
 4 O  px              0.6       0.1       0.0       0.0       0.0       0.0
 5 O  s               6.0       0.3       0.2       2.5       0.3       0.1
 5 O  pz              2.1       0.2       0.0       1.0       0.2       0.1
 5 O  px              1.7       0.1       0.0       0.8       2.2       0.1
 5 O  py              0.0       0.3       0.1       0.0       0.0       0.3
 5 O  dz2             0.1       0.1       0.0       0.0       0.0       0.0
 5 O  dxz             0.1       0.1       0.0       0.1       0.1       0.0
 5 O  dx2y2           0.2       0.1       0.0       0.1       0.1       0.0
 6 C  s               0.0       0.1       0.5      10.7       4.1       0.1
 6 C  pz              3.7       6.9       1.4       2.3       0.5       0.1
 6 C  px             15.1       1.0       0.6       4.4       0.4       0.1
 6 C  py              0.4       0.8       0.6       0.4       0.1       0.1
 6 C  dz2             0.0       0.2       0.0       0.0       0.0       0.0
 6 C  dxz             1.1       0.0       0.0       0.1       0.2       0.1
 6 C  dyz             0.0       0.5       0.2       0.5       0.2       0.0
 6 C  dx2y2           1.7       0.0       0.0       0.3       0.4       0.0
 6 C  dxy             0.3       0.2       0.0       0.0       0.1       0.0
 7 C  s               3.7       0.8       0.1       2.9       1.7       0.0
 7 C  pz              0.8       3.1       0.7       4.5       4.9       0.7
 7 C  px              0.9       0.1       0.4       0.2       7.2       0.9
 7 C  py              0.4       0.6       0.3       0.4       2.3       0.1
 7 C  dz2             0.0       0.0       0.0       0.0       0.5       0.0
 7 C  dxz             0.3       0.1       0.0       0.0       0.5       0.0
 7 C  dyz             0.1       0.4       0.1       0.2       0.0       0.1
 7 C  dx2y2           1.0       0.0       0.0       0.0       0.1       0.0
 7 C  dxy             0.0       0.1       0.0       0.5       0.0       0.0
 8 H  s               2.7       2.7      11.9       0.8       1.0      18.5
 9 H  s               0.0       3.0       4.9       0.2       1.8       2.6
10 H  s               1.1       0.1      18.7       1.3       0.2       2.7
11 H  s               5.8       2.5       0.5       2.4       5.8      16.0
12 H  s               0.5      12.6       1.3       8.3       5.0       5.6
13 H  s              13.3       1.2       0.7       0.1       2.8       0.0
14 H  s               0.9       7.8      14.7       0.3       0.2      13.9
15 H  s               1.3       9.0       0.7      23.5       1.4       0.1
16 H  s               1.3      14.5       7.0       1.5       4.9       0.0
17 H  s               7.7       2.1       0.5      17.3       4.3       1.1
18 H  s               3.7       7.9       3.5       0.8       0.4       2.3
19 H  s               2.4       1.5       0.0       0.9      35.4       0.3

                     42        43        44        45        46        47   
                   0.12668   0.13384   0.13655   0.15446   0.17719   0.18532
                   0.00000   0.00000   0.00000   0.00000   0.00000   0.00000
                  --------  --------  --------  --------  --------  --------
 0 C  s               0.3       0.1       1.9       0.4       0.9       0.3
 0 C  pz              1.1       0.3       1.9       8.7       5.3       1.4
 0 C  px              0.2       2.2       8.1      10.4       1.7       1.4
 0 C  py              0.1       0.4       3.6       1.4       1.9       0.8
 0 C  dz2             0.1       0.0       0.2       0.0       0.2       0.3
 0 C  dxz             0.1       0.1       0.2       0.7       0.7       0.3
 0 C  dyz             0.0       0.0       0.1       0.3       0.5       0.2
 0 C  dx2y2           0.0       0.0       0.3       0.6       0.0       0.0
 0 C  dxy             0.3       0.1       0.2       0.0       1.0       0.5
 1 C  s               1.0       0.1       0.4       0.0       6.7       3.2
 1 C  pz              2.8       0.3       0.2       2.0       0.7       0.0
 1 C  px              2.2       0.0       2.8       1.9       4.1       5.1
 1 C  py              0.5       0.4       0.5       0.4       7.0       6.4
 1 C  dz2             0.1       0.0       0.0       0.3       0.2       0.1
 1 C  dxz             0.3       0.0       0.1       0.0       1.9       1.4
 1 C  dyz             0.1       0.2       0.7       0.0       0.6       0.2
 1 C  dx2y2           0.0       0.1       0.1       0.3       0.1       0.2
 1 C  dxy             0.1       0.0       0.1       0.4       0.1       0.6
 2 C  s               0.0       0.5       0.1       0.1       2.2       2.9
 2 C  pz              1.5       0.1       2.9       0.0       3.6       2.4
 2 C  px              0.1       0.2       1.5       1.4       2.7       5.6
 2 C  py              2.8       0.6       4.1       0.5       1.7       0.2
 2 C  dz2             0.1       0.1       0.1       0.0       0.0       0.0
 2 C  dxz             0.1       0.0       0.1       0.3       0.4       0.9
 2 C  dyz             0.1       0.0       0.2       0.2       0.6       0.4
 2 C  dx2y2           0.3       0.0       0.0       0.2       1.3       0.9
[...]
 2 C  dz2             0.2       0.1       0.0       0.6       2.7       0.4
 2 C  dxz            11.9       1.0       0.0       0.6       1.0       0.2
 2 C  dyz             0.5       0.2       0.2       0.6       0.0       0.0
 2 C  dx2y2           4.7       0.3       0.0       0.0       0.7       0.9
 2 C  dxy             2.1       0.4       0.1       0.3       0.1       0.0
 3 C  s               0.3       0.0       0.0       0.1       0.2       1.1
 3 C  pz              0.1       0.3       0.0       0.2       0.1       1.3
 3 C  px              0.4       0.2       0.0       0.4       0.1       1.5
 3 C  py              0.0       0.0       0.0       0.6       0.5       0.4
 3 C  dz2             0.1       0.3       0.0       1.8       5.3       1.5
 3 C  dxz             0.2       0.1       0.1       0.0       0.6       2.6
 3 C  dyz             0.0       0.2       0.1       0.6       0.0       0.2
 3 C  dx2y2           0.0       1.9       0.5       0.0       7.0       1.4
 3 C  dxy             0.0       0.4       1.9       9.3       0.4       0.1
 4 O  s               0.1       0.0       0.0       0.5       0.9       0.3
 4 O  pz              0.0       0.0       0.0       0.1       0.5       0.4
 4 O  px              0.0       0.0       0.0       0.1       0.1       0.4
 4 O  py              0.0       0.0       0.0       0.2       0.1       0.0
 4 O  dz2             0.1       0.3       0.4       0.3       2.3       2.8
 4 O  dxz             0.0       0.1       0.0      10.1       3.6      18.6
 4 O  dyz             0.2       2.4       4.0       9.6       2.2       3.5
 4 O  dx2y2           0.2      63.4       0.5       0.4       7.3       0.0
 4 O  dxy             6.3      14.6       3.2       5.3       1.2       0.9
 5 O  s               0.0       0.1       0.0       0.1       0.4       7.4
 5 O  pz              0.0       0.4       0.1       0.5       0.8       0.9
 5 O  px              0.0       0.1       0.1       0.2       1.1       0.1
 5 O  py              0.1       0.1       1.1       0.3       0.1       0.1
 5 O  dz2             1.7       5.1       9.1      16.4      17.5       0.0
 5 O  dxz             0.2       0.0       0.2       0.2      12.7       0.4
 5 O  dyz             1.3       1.5      39.8       1.9      13.6       2.7
 5 O  dx2y2           0.1       0.8       0.2      16.7       0.1      28.9
 5 O  dxy             0.0       0.1      17.0      16.8       9.0      15.1
 6 C  s               0.0       0.4       0.2       0.1       0.4       0.5
 6 C  pz              0.0       0.1       0.1       0.0       0.0       0.2
 6 C  px              0.0       0.2       0.0       0.3       0.5       0.6
 6 C  py              0.0       0.3       0.3       0.0       0.0       0.0
 6 C  dz2             0.0       0.1       0.7       0.0       1.6       0.1
 6 C  dxz             0.2       0.3       0.1       0.0       0.0       2.1
 6 C  dyz             0.0       0.2       2.0       1.0       0.2       0.0
 6 C  dx2y2           0.0       0.4       1.6       0.7       2.7       1.2
 6 C  dxy             0.3       1.0      11.1       1.7       0.4       0.0
 7 C  s               0.0       0.2       0.1       0.0       0.0       0.0
 7 C  px              0.0       0.0       0.1       0.0       0.0       0.0
 7 C  py              0.0       0.0       0.2       0.1       0.0       0.0
 7 C  dz2             0.0       0.1       0.2       0.0       0.0       0.0
 7 C  dxz             0.0       0.0       0.3       0.0       0.1       0.0
 7 C  dyz             0.0       0.0       0.1       0.1       0.0       0.1
 7 C  dx2y2           0.1       0.0       3.5       0.2       0.1       0.0
 7 C  dxy             0.0       0.4       0.2       0.2       0.2       0.0
 8 H  s               0.3       0.0       0.0       0.0       0.0       0.0
13 H  s               0.2       0.1       0.0       0.0       0.0       0.0
15 H  s               0.0       0.1       0.0       0.0       0.1       0.0
16 H  s               0.0       0.1       0.0       0.0       0.0       0.0
19 H  s               0.0       0.0       0.2       0.0       0.0       0.0

                    132       133       134       135   
                   3.11838   3.32204   3.49825   3.55553
                   0.00000   0.00000   0.00000   0.00000
                  --------  --------  --------  --------
 2 C  s               0.0       0.2       0.2       0.0
 2 C  px              0.0       0.0       0.3       0.0
 2 C  dz2             0.0       0.3       0.5       0.3
 2 C  dxz             0.2       0.6       0.6       0.3
 2 C  dx2y2           0.2       0.0       0.7       0.0
 2 C  dxy             0.6       0.0       0.1       0.0
 3 C  s               0.0       3.7       0.4       6.0
 3 C  pz              0.1       0.3       1.6       5.1
 3 C  px              0.1       1.4       0.9       0.0
 3 C  py              0.3       0.1       0.3       0.2
 3 C  dz2             1.9       2.1       0.3       8.3
 3 C  dxz             2.1       1.4      19.6       1.2
 3 C  dyz            14.9       0.3       1.5       1.4
 3 C  dx2y2           1.0       2.3       0.1       0.3
 3 C  dxy             0.3       0.4       1.4       0.0
 4 O  s               0.0       1.7       0.5       4.8
 4 O  pz              0.0       0.6       0.3       3.6
 4 O  px              0.1       0.2       0.7       0.1
 4 O  py              0.8       0.1       0.1       0.1
 4 O  dz2             5.1       8.8       2.4      49.3
 4 O  dxz             5.4       5.4      20.5       2.9
 4 O  dyz            43.8       3.2       3.1       3.7
 4 O  dx2y2           1.4       0.0       0.3       0.1
 4 O  dxy             1.3       0.4       0.5       0.1
 5 O  s               0.3       0.1       0.9       0.2
 5 O  pz              0.0       0.1       0.2       0.1
 5 O  px              0.0       2.5       3.1       0.0
 5 O  py              0.0       0.2       0.2       0.0
 5 O  dz2             0.0       7.9       3.4       4.1
 5 O  dxz             0.9      34.9      21.2       0.9
 5 O  dyz             0.0       4.0       1.4       0.3
 5 O  dx2y2           8.1       7.6       4.5       4.5
 5 O  dxy             8.8       0.0       6.1       1.0
 6 C  s               0.0       0.8       0.2       0.1
 6 C  pz              0.0       0.5       0.0       0.1
 6 C  px              0.0       1.3       0.3       0.1
 6 C  dz2             0.2       0.1       0.6       0.1
 6 C  dxz             0.0       3.5       0.0       0.6
 6 C  dyz             0.5       0.0       0.0       0.0
 6 C  dx2y2           0.0       2.3       0.3       0.1
 6 C  dxy             0.7       0.2       0.1       0.0
 7 C  dx2y2           0.1       0.0       0.0       0.0
 7 C  dxy             0.0       0.1       0.0       0.0


                      *****************************
                      * MAYER POPULATION ANALYSIS *
                      *****************************

  NA   - Mulliken gross atomic population
  ZA   - Total nuclear charge
  QA   - Mulliken gross atomic charge
  VA   - Mayer's total valence
  BVA  - Mayer's bonded valence
  FA   - Mayer's free valence

  ATOM       NA         ZA         QA         VA         BVA        FA
  0 C      6.2936     6.0000    -0.2936     4.0025     4.0025     0.0000
  1 C      6.1834     6.0000    -0.1834     4.1545     4.1545     0.0000
  2 C      6.1497     6.0000    -0.1497     3.9314     3.9314    -0.0000
  3 C      5.8915     6.0000     0.1085     4.3806     4.3806     0.0000
  4 O      8.2042     8.0000    -0.2042     2.2884     2.2884     0.0000
  5 O      8.2380     8.0000    -0.2380     2.2725     2.2725     0.0000
  6 C      6.0146     6.0000    -0.0146     4.0502     4.0502     0.0000
  7 C      6.3034     6.0000    -0.3034     4.0151     4.0151    -0.0000
  8 H      0.9007     1.0000     0.0993     0.9493     0.9493    -0.0000
  9 H      0.8696     1.0000     0.1304     0.9898     0.9898    -0.0000
 10 H      0.9093     1.0000     0.0907     0.9564     0.9564     0.0000
 11 H      0.9103     1.0000     0.0897     0.9420     0.9420     0.0000
 12 H      0.9040     1.0000     0.0960     0.9449     0.9449     0.0000
 13 H      0.8869     1.0000     0.1131     0.9580     0.9580     0.0000
 14 H      0.9003     1.0000     0.0997     0.9705     0.9705     0.0000
 15 H      0.8919     1.0000     0.1081     0.9788     0.9788    -0.0000
 16 H      0.8988     1.0000     0.1012     0.9500     0.9500    -0.0000
 17 H      0.8870     1.0000     0.1130     0.9569     0.9569    -0.0000
 18 H      0.8748     1.0000     0.1252     0.9657     0.9657     0.0000
 19 H      0.8879     1.0000     0.1121     0.9549     0.9549    -0.0000

  Mayer bond orders larger than 0.100000
B(  0-C ,  1-C ) :   1.1480 B(  0-C ,  8-H ) :   0.9502 B(  0-C ,  9-H ) :   0.9422 
B(  0-C , 10-H ) :   0.9537 B(  1-C ,  2-C ) :   1.0981 B(  1-C , 11-H ) :   0.9290 
B(  1-C , 12-H ) :   0.9324 B(  2-C ,  3-C ) :   1.0249 B(  2-C , 13-H ) :   0.8931 
B(  2-C , 14-H ) :   0.9082 B(  3-C ,  4-O ) :   2.0219 B(  3-C ,  5-O ) :   1.2185 
B(  5-O ,  6-C ) :   0.9234 B(  6-C ,  7-C ) :   1.1724 B(  6-C , 15-H ) :   0.9130 
B(  6-C , 16-H ) :   0.9372 B(  7-C , 17-H ) :   0.9494 B(  7-C , 18-H ) :   0.9469 
B(  7-C , 19-H ) :   0.9447 

-------
TIMINGS
-------

Total SCF time: 0 days 0 hours 0 min 9 sec 

Total time                  ....       9.659 sec
Sum of individual times     ....       8.823 sec  ( 91.3%)

SCF preparation             ....       0.181 sec  (  1.9%)
Fock matrix formation       ....       7.661 sec  ( 79.3%)
  Startup                   ....       0.069 sec  (  0.9% of F)
  Split-RI-J                ....       2.502 sec  ( 32.7% of F)
  XC integration            ....       4.510 sec  ( 58.9% of F)
    Basis function eval.    ....       1.417 sec  ( 31.4% of XC)
    Density eval.           ....       0.489 sec  ( 10.9% of XC)
    XC-Functional eval.     ....       0.374 sec  (  8.3% of XC)
    XC-Potential eval.      ....       0.763 sec  ( 16.9% of XC)
Diagonalization             ....       0.000 sec  (  0.0%)
Density matrix formation    ....       0.215 sec  (  2.2%)
Total Energy calculation    ....       0.041 sec  (  0.4%)
Population analysis         ....       0.085 sec  (  0.9%)
Orbital Transformation      ....       0.059 sec  (  0.6%)
Orbital Orthonormalization  ....       0.000 sec  (  0.0%)
DIIS solution               ....       0.397 sec  (  4.1%)
  MO trafo                  ....       0.000 sec  (  0.0 % of DIIS)
  Orb grad                  ....       0.000 sec  (  0.0 % of DIIS)
  Energy W gradient         ....       0.000 sec  (  0.0 % of DIIS)
  DIIS error                ....       0.006 sec  (  1.4 % of DIIS)
  DIIS work                 ....       0.345 sec  ( 87.0 % of DIIS)
  Form Q                    ....       0.000 sec  (  0.0 % of DIIS)
  Form QpQm                 ....       0.000 sec  (  0.0 % of DIIS)
  Exp/Cayley                ....       0.000 sec  (  0.0 % of DIIS)
  Orb update                ....       0.000 sec  (  0.0 % of DIIS)
  Wake-sleep                ....       0.017 sec  (  4.2 % of DIIS)
SOSCF solution              ....       0.183 sec  (  1.9%)
  MO trafo                  ....       0.066 sec  ( 35.8 % of SOSCF)
  Orb grad                  ....       0.004 sec  (  1.9 % of SOSCF)
  Rot update                ....       0.065 sec  ( 35.6 % of SOSCF)
  Step                      ....       0.049 sec  ( 26.6 % of SOSCF)
Finished LeanSCF after   9.8 sec

Maximum memory used throughout the entire LEANSCF-calculation: 12.7 MB


-------------------------------------------------------------------------------
                          DFT DISPERSION CORRECTION                            
                                                                               
                                DFTD4 V3.4.0                                   
-------------------------------------------------------------------------------
The PBE functional is recognized
Active option DFTDOPT                   ...         5   

-------------------------   ----------------
Dispersion correction           -0.015065691
-------------------------   ----------------

------------------   -----------------
gCP correction             0.090504096
------------------   -----------------

-------------------------   --------------------
FINAL SINGLE POINT ENERGY      -385.457500124938
-------------------------   --------------------


------------------------------------------------------------------------------
                              ORCA PROPERTY CALCULATIONS
------------------------------------------------------------------------------

GBWName                                 ... sp.gbw
Number of atoms                         ...     20
Number of basis functions               ...    136
Max core memory                         ...   1024 MB

Electric properties:
Dipole moment                           ... YES
Quadrupole moment                       ...  NO
Static polarizability (Dipole/Dipole)   ...  NO
Static polarizability (Dipole/Quad.)    ...  NO
Static polarizability (Quad./Quad.)     ...  NO
Static polarizability (Velocity)        ...  NO

Atomic electric properties:
Dipole moment                           ...  NO
Quadrupole moment                       ...  NO
Static polarizability                   ...  NO

Choice of electric origin               ... Center of mass
Position of electric origin             ...    -0.000011    -0.000005     0.000004

General magnetic properties:
Magnetizability                         ...  NO

EPR properties:
g-Tensor (aka g-matrix)                 ...  NO
Zero-Field splitting spin-orbit         ...  NO
Zero-field splitting spin-spin          ...  NO
Hyperfine couplings                     ...  NO (   0 nuclei)
Quadrupole couplings                    ...  NO (   0 nuclei)
Contact density                         ...  NO (   0 nuclei)

NMR properties:
Chemical shifts                         ...  NO (   0 nuclei)
Spin-rotation constants                 ...  NO (   0 nuclei)
Spin-spin couplings                     ...  NO (   0 nuclei,    0 pairs)

Choice of magnetic origin               ... GIAO
Position of magnetic origin             ...     0.000000     0.000000     0.000000

Properties with geometric perturbations:
SCF Hessian                             ...  NO
IR spectrum                             ...  NO
VCD spectrum                            ...  NO
X-ray spectroscopy properties:
SCF XES/XAS/RIXS spectra                ...  NO


-------------
DIPOLE MOMENT
-------------

Method             : SCF
Type of density    : Electron Density
Multiplicity       :   1
Irrep              :   0
Energy             :  -385.5329385303797380 Eh
Relativity type    : 
Basis              : AO
                                X                 Y                 Z
Electronic contribution:      2.605956476       1.880906885       0.121445094
Nuclear contribution   :     -2.251436462      -1.756017937       0.451481916
                        -----------------------------------------
Total Dipole Moment    :      0.354520014       0.124888948       0.572927011
                        -----------------------------------------
Magnitude (a.u.)       :      0.685220438
Magnitude (Debye)      :      1.741691939



--------------------
Rotational spectrum 
--------------------
 
Rotational constants in cm-1:             0.180664             0.032219             0.029880 
Rotational constants in MHz :          5416.183130           965.904332           895.788919 

Dipole components along the rotational axes: 
x,y,z [a.u.] :    -0.390104    -0.549958     0.122035 
x,y,z [Debye]:    -0.991565    -1.397881     0.310189 

 

Dipole moment calculation done in   0.0 sec 

Maximum memory used throughout the entire PROP-calculation: 8.0 MB

--------------------------------
SUGGESTED CITATIONS FOR THIS RUN
--------------------------------

Below you find a list of papers that are relevant to this ORCA run
We neither can nor want to force you to cite these papers, but we appreciate if you do
You receive ORCA, which is the product of decades of hard work by many enthusiastic individuals, for free
The only thing we kindly ask in return is that you cite our papers,
We deeply appreciate it, if you show your appreciation for ORCA by not just citing the generic ORCA reference.

Please note that relegating all ORCA citations to the supporting information does *not* help us.
SI sections are not indexed - citations you put there will not count into any citation statistics
But we need these citations in order to attract the funding resources that allow us to do what we are doing

Therefore, if you are a happy ORCA user, please consider citing a few of the papers listed below in the main body of your paper

In addition to the list printed below, the program has created the file sp.bibtex that contains the list in bibtex format
You can import this file easily into all common literature databanks and citation aid programs


List of essential papers. We consider these as the minimum necessary citations

  1. Neese,F.
     Software update: the ORCA program system, version 5.0
     WIRES Comput. Molec. Sci., 2022 12(1)e1606
     doi.org/10.1002/wcms.1606

List of papers to cite with high priority. The work reported in these papers was absolutely
necessary for this run to complete.
Our perspective: the developers of density functionals and basis sets usually get cited in chemistry papers
Good! But without the algorithms to do something with them, the functionals or basis sets would not do anything.
Hence, in our opinion, the algorithm design and method developments papers are equally worthy of getting cited

  1. Neese,F.
     An improvement of the resolution of the identity approximation for the formation of the Coulomb matrix
     J. Comp. Chem., 2003 24(14)1740-1747
     doi.org/10.1002/jcc.10318
  2. Neese,F.
     The SHARK Integral Generation and Digestion System
     J. Comp. Chem., 2022  1-16
     doi.org/10.1002/jcc.26942
  3. Caldeweyher,E.; Bannwarth,C.; Grimme,S.
     Extension of the D3 dispersion coefficient model
     J. Chem. Phys., 2017 147 034112-XXXX
     doi.org/10.1063/1.4993215
  4. Caldeweyher,E.; Ehlert,S.; Hansen,A.; Neugebauer,H.; Spicher,S.; Bannwarth,C.; Grimme,S.
     A generally applicable atomic-charge dependent London dispersion correction
     J. Chem. Phys., 2019 150 154122-XXXX
     doi.org/10.1063/1.5090222
  5. Caldeweyher,E.; Mewes,J.; Ehlert,S.; Grimme,S.
     Extension and evaluation of the D4 London-dispersion model for periodic systems
     Phys. Chem. Chem. Phys., 2020 22(16)8499-8512
     doi.org/10.1039/D0CP00502A

List of suggested additional citations. These are papers that are important in the 'surrounding' of 
of this run, or papers that preceded the highly important papers. If you like your results we are grateful for a citation.

  1. Neese,F.
     The ORCA program system
     WIRES Comput. Molec. Sci., 2012 2(1)73-78
     doi.org/10.1002/wcms.81
  2. Neese,F.
     Software update: the ORCA program system, version 4.0
     WIRES Comput. Molec. Sci., 2018 8(1)1-6
     doi.org/10.1002/wcms.1327
  3. Neese,F.; Wennmohs,F.; Becker,U.; Riplinger,C.
     The ORCA quantum chemistry program package
     J. Chem. Phys., 2020 152 Art. No. L224108
     doi.org/10.1063/5.0004608

List of optional additional citations

  1. Neese,F.
     Approximate second-order SCF convergence for spin unrestricted wavefunctions
     Chem. Phys. Lett., 2000 325(1-3)93-98
     doi.org/10.1016/s0009-2614(00)00662-x

Timings for individual modules:

Sum of individual times          ...       11.512 sec (=   0.192 min)
Startup calculation              ...        0.785 sec (=   0.013 min)   6.8 %
SCF iterations                   ...       10.617 sec (=   0.177 min)  92.2 %
Property calculations            ...        0.111 sec (=   0.002 min)   1.0 %
                             ****ORCA TERMINATED NORMALLY****
TOTAL RUN TIME: 0 days 0 hours 0 minutes 12 seconds 290 msec
