      -----------------------------------------------------------      
     |                   =====================                   |     
     |                           x T B                           |     
     |                   =====================                   |     
     |                         S. Grimme                         |     
     |          Mulliken Center for Theoretical Chemistry        |     
     |                    University of Bonn                     |     
      -----------------------------------------------------------      

   * xtb version 6.7.1 (edcfbbe) compiled by 'albert@albert-system' on 2024-07-22

   xtb is free software: you can redistribute it and/or modify it under
   the terms of the GNU Lesser General Public License as published by
   the Free Software Foundation, either version 3 of the License, or
   (at your option) any later version.
   
   xtb is distributed in the hope that it will be useful,
   but WITHOUT ANY WARRANTY; without even the implied warranty of
   MERCHANTABILITY or FITNESS FOR A PARTICULAR PURPOSE.  See the
   GNU Lesser General Public License for more details.
   
   Cite this work as:
   * C. Bannwarth, E. Caldeweyher, S. Ehlert, A. Hansen, P. Pracht,
     J. Seibert, S. Spicher, S. Grimme, WIREs Comput. Mol. Sci., 2020, 11,
     e01493. DOI: 10.1002/wcms.1493
   
   for GFN2-xTB:
   * C. Bannwarth, S. Ehlert and S. Grimme., J. Chem. Theory Comput., 2019,
     15, 1652-1671. DOI: 10.1021/acs.jctc.8b01176
   for GFN1-xTB:
   * S. Grimme, C. Bannwarth, P. Shushkov, J. Chem. Theory Comput., 2017,
     13, 1989-2009. DOI: 10.1021/acs.jctc.7b00118
   for GFN0-xTB:
   * P. Pracht, E. Caldeweyher, S. Ehlert, S. Grimme, ChemRxiv, 2019, preprint.
     DOI: 10.26434/chemrxiv.8326202.v1
   for GFN-FF:
   * S. Spicher and S. Grimme, Angew. Chem. Int. Ed., 2020, 59, 15665-15673.
     DOI: 10.1002/anie.202004239
   
   for ALPB and GBSA implicit solvation:
   * S. Ehlert, M. Stahn, S. Spicher, S. Grimme, J. Chem. Theory Comput.,
     2021, 17, 4250-4261. DOI: 10.1021/acs.jctc.1c00471
   
   for ddCOSMO and CPCM-X implicit solvation:
   * M. Stahn, S. Ehlert, S. Grimme, J. Phys. Chem. A,
     2023, XX, XXXX-XXXX. DOI: 10.1021/acs.jpca.3c04382
   
   for DFT-D4:
   * E. Caldeweyher, C. Bannwarth and S. Grimme, J. Chem. Phys., 2017,
     147, 034112. DOI: 10.1063/1.4993215
   * E. Caldeweyher, S. Ehlert, A. Hansen, H. Neugebauer, S. Spicher,
     C. Bannwarth and S. Grimme, J. Chem. Phys., 2019, 150, 154122.
     DOI: 10.1063/1.5090222
   * E. Caldeweyher, J.-M. Mewes, S. Ehlert and S. Grimme, Phys. Chem. Chem. Phys.
     2020, 22, 8499-8512. DOI: 10.1039/D0CP00502A
   
   for sTDA-xTB:
   * S. Grimme and C. Bannwarth, J. Chem. Phys., 2016, 145, 054103.
     DOI: 10.1063/1.4959605
   
   in the mass-spec context:
   * V. Asgeirsson, C. Bauer and S. Grimme, Chem. Sci., 2017, 8, 4879.
     DOI: 10.1039/c7sc00601b
   * J. Koopman and S. Grimme, ACS Omega 2019, 4, 12, 15120-15133.
     DOI: 10.1021/acsomega.9b02011
   
   for metadynamics refer to:
   * S. Grimme, J. Chem. Theory Comput., 2019, 155, 2847-2862
     DOI: 10.1021/acs.jctc.9b00143
   
   for SPH calculations refer to:
   * S. Spicher and S. Grimme, J. Chem. Theory Comput., 2021, 17, 1701-1714
     DOI: 10.1021/acs.jctc.0c01306
   
   for ONIOM refer to:
   * C. Plett, A. Katbashev, S. Ehlert, S. Grimme, M. Bursch,
     Phys. Chem. Chem. Phys., 2023, 25, 17860-17868. DOI: 10.1039/D3CP02178E
   
   for DIPRO refer to:
   * J. Kohn, N. Gildemeister, S. Grimme, D. Fazzi, A. Hansen,
     J. Chem. Phys., 2023, just accepted.
   
   for PTB refer to:
   * S. Grimme, M. Mueller, A. Hansen, J. Chem. Phys., 2023, 158, 124111.
     DOI: 10.1063/5.0137838
   
   with help from (in alphabetical order)
   P. Atkinson, C. Bannwarth, F. Bohle, G. Brandenburg, E. Caldeweyher
   M. Checinski, S. Dohm, S. Ehlert, S. Ehrlich, I. Gerasimov, C. Hölzer
   A. Katbashev, J. Kohn, J. Koopman, C. Lavigne, S. Lehtola, F. März, M. Müller,
   F. Musil, H. Neugebauer, J. Pisarek, C. Plett, P. Pracht, F. Pultar,
   J. Seibert, P. Shushkov, S. Spicher, M. Stahn, M. Steiner, T. Strunk,
   J. Stückrath, T. Rose, and J. Unsleber
   
 * started run on 2025/04/11 at 12:24:49.076     
   ID    Z sym.   atoms
    1    6 C      1-3, 5-7
    2    7 N      4
    3    1 H      8-22

           -------------------------------------------------
          |                Calculation Setup                |
           -------------------------------------------------

          program call               : /srv/scratch/z5358697/.xtb/bin/xtb solv.coord --gfn2 --sp --chrg 0 --norestart --parallel 1 --alpb water reference -I xtb_sp-xcontrol-inp
          hostname                   : k062
          coordinate file            : solv.coord
          omp threads                :                     1


           -------------------------------------------------
          |                 G F N 2 - x T B                 |
           -------------------------------------------------

        Reference                      10.1021/acs.jctc.8b01176
      * Hamiltonian:
        H0-scaling (s, p, d)           1.850000    2.230000    2.230000
        zeta-weighting                 0.500000
      * Dispersion:
        s8                             2.700000
        a1                             0.520000
        a2                             5.000000
        s9                             5.000000
      * Repulsion:
        kExp                           1.500000    1.000000
        rExp                           1.000000
      * Coulomb:
        alpha                          2.000000
        third order                    shell-resolved
        anisotropic                    true
        a3                             3.000000
        a5                             4.000000
        cn-shift                       1.200000
        cn-exp                         4.000000
        max-rad                        5.000000

      * Solvation model:               ALPB
        Solvent                        water
        Parameter file                 internal GFN2-xTB/ALPB
        Dielectric constant                8.0200E+01
        Reference state                gsolv=reference [X=1]
        Free energy shift                  2.8945E-03 Eh       1.8164E+00 kcal/mol
        Temperature                        2.9815E+02 K
        Density                            1.0000E+00 kg/L
        Solvent mass                       1.8000E+01 g/mol
        Interaction kernel             P16
        Born radius scaling (c1)           1.4744E+00
        Born radii integrator          GBOBC
        Born offset                        0.0000E+00 a0       0.0000E+00 AA
        H-bond correction              true
        Ion screening                  false
        Surface tension                    1.0000E-05 Eh       1.5569E+01 dyn/cm
        Grid points                               974 per atom

          ...................................................
          :                      SETUP                      :
          :.................................................:
          :  # basis functions                  43          :
          :  # atomic orbitals                  43          :
          :  # shells                           29          :
          :  # electrons                        44          :
          :  max. iterations                   250          :
          :  Hamiltonian                  GFN2-xTB          :
          :  restarted?                      false          :
          :  GBSA solvation                   true          :
          :  PC potential                    false          :
          :  electronic temp.          300.0000000     K    :
          :  accuracy                    1.0000000          :
          :  -> integral cutoff          0.2500000E+02      :
          :  -> integral neglect         0.1000000E-07      :
          :  -> SCF convergence          0.1000000E-05 Eh   :
          :  -> wf. convergence          0.1000000E-03 e    :
          :  Broyden damping             0.4000000          :
          :  net charge                          0          :
          :  unpaired electrons                  0          :
          ...................................................

 iter      E             dE          RMSdq      gap      omega  full diag
   1    -23.7262955 -0.237263E+02  0.238E+00   10.33       0.0  T
   2    -23.7501118 -0.238163E-01  0.132E+00   10.23       1.0  T
   3    -23.7513459 -0.123410E-02  0.519E-01   10.25       1.0  T
   4    -23.7514815 -0.135560E-03  0.104E-01   10.19       1.0  T
   5    -23.7515175 -0.360563E-04  0.492E-02   10.19       1.0  T
   6    -23.7515199 -0.242445E-05  0.167E-02   10.18       1.3  T
   7    -23.7515203 -0.334018E-06  0.265E-03   10.19       8.0  T
   8    -23.7515203 -0.100267E-07  0.963E-04   10.19      22.1  T
   9    -23.7515203 -0.208187E-08  0.259E-04   10.19      82.5  T

   *** convergence criteria satisfied after 9 iterations ***

         #    Occupation            Energy/Eh            Energy/eV
      -------------------------------------------------------------
         1        2.0000           -0.6313133             -17.1789
       ...           ...                  ...                  ...
        16        2.0000           -0.4529327             -12.3249
        17        2.0000           -0.4433231             -12.0634
        18        2.0000           -0.4379959             -11.9185
        19        2.0000           -0.4363435             -11.8735
        20        2.0000           -0.4291935             -11.6789
        21        2.0000           -0.4205357             -11.4434
        22        2.0000           -0.3456122              -9.4046 (HOMO)
        23                          0.0287233               0.7816 (LUMO)
        24                          0.0862404               2.3467
        25                          0.0997982               2.7156
        26                          0.1131606               3.0793
        27                          0.1195088               3.2520
       ...                                ...                  ...
        43                          0.3163266               8.6077
      -------------------------------------------------------------
                  HL-Gap            0.3743355 Eh           10.1862 eV
             Fermi-level           -0.1584445 Eh           -4.3115 eV

 SCC (total)                   0 d,  0 h,  0 min,  0.015 sec
 SCC setup                      ...        0 min,  0.002 sec ( 13.436%)
 Dispersion                     ...        0 min,  0.000 sec (  1.027%)
 classical contributions        ...        0 min,  0.000 sec (  0.218%)
 integral evaluation            ...        0 min,  0.002 sec ( 14.996%)
 iterations                     ...        0 min,  0.006 sec ( 38.826%)
 molecular gradient             ...        0 min,  0.005 sec ( 30.632%)
 printout                       ...        0 min,  0.000 sec (  0.743%)

         :::::::::::::::::::::::::::::::::::::::::::::::::::::
         ::                     SUMMARY                     ::
         :::::::::::::::::::::::::::::::::::::::::::::::::::::
         :: total energy             -23.419730319821 Eh    ::
         :: total w/o Gsasa/hb       -23.420393741161 Eh    ::
         :: gradient norm              0.000078165622 Eh/a0 ::
         :: HOMO-LUMO gap             10.186187027617 eV    ::
         ::.................................................::
         :: SCC energy               -23.751437088214 Eh    ::
         :: -> isotropic ES            0.015078188980 Eh    ::
         :: -> anisotropic ES          0.008110052480 Eh    ::
         :: -> anisotropic XC          0.017483008864 Eh    ::
         :: -> dispersion             -0.013611932436 Eh    ::
         :: -> Gsolv                  -0.000195794062 Eh    ::
         ::    -> Gelec               -0.000859215402 Eh    ::
         ::    -> Gsasa               -0.001186845683 Eh    ::
         ::    -> Ghb                 -0.001044282137 Eh    ::
         ::    -> Gshift               0.002894549160 Eh    ::
         :: repulsion energy           0.331706768393 Eh    ::
         :: add. restraining           0.000000000000 Eh    ::
         :: total charge               0.000000000000 e     ::
         :::::::::::::::::::::::::::::::::::::::::::::::::::::

           -------------------------------------------------
          |                Property Printout                |
           -------------------------------------------------

    * Orbital Energies and Occupations

         #    Occupation            Energy/Eh            Energy/eV
      -------------------------------------------------------------
         1        2.0000           -0.6313133             -17.1789
       ...           ...                  ...                  ...
        10        2.0000           -0.5024977             -13.6737
        11        2.0000           -0.4866974             -13.2437
        12        2.0000           -0.4803357             -13.0706
        13        2.0000           -0.4695630             -12.7775
        14        2.0000           -0.4598764             -12.5139
        15        2.0000           -0.4597562             -12.5106
        16        2.0000           -0.4529327             -12.3249
        17        2.0000           -0.4433231             -12.0634
        18        2.0000           -0.4379959             -11.9185
        19        2.0000           -0.4363435             -11.8735
        20        2.0000           -0.4291935             -11.6789
        21        2.0000           -0.4205357             -11.4434
        22        2.0000           -0.3456122              -9.4046 (HOMO)
        23                          0.0287233               0.7816 (LUMO)
        24                          0.0862404               2.3467
        25                          0.0997982               2.7156
        26                          0.1131606               3.0793
        27                          0.1195088               3.2520
        28                          0.1282372               3.4895
        29                          0.1403933               3.8203
        30                          0.1691896               4.6039
        31                          0.1697502               4.6191
        32                          0.1770392               4.8175
        33                          0.2090509               5.6886
       ...                                ...                  ...
        43                          0.3163266               8.6077
      -------------------------------------------------------------
                  HL-Gap            0.3743355 Eh           10.1862 eV
             Fermi-level           -0.1584445 Eh           -4.3115 eV

     #   Z          covCN         q      C6AA      α(0)
     1   6 C        3.757    -0.120    22.849     6.815
     2   6 C        3.784     0.060    19.591     6.305
     3   6 C        3.756    -0.120    22.854     6.816
     4   7 N        2.687    -0.291    27.494     7.788
     5   6 C        3.785     0.052    19.723     6.326
     6   6 C        3.757    -0.124    22.924     6.826
     7   6 C        3.753    -0.117    22.791     6.808
     8   1 H        0.925     0.036     2.505     2.475
     9   1 H        0.925     0.044     2.397     2.421
    10   1 H        0.925     0.051     2.312     2.378
    11   1 H        0.922    -0.005     3.151     2.776
    12   1 H        0.925     0.051     2.308     2.376
    13   1 H        0.925     0.037     2.483     2.464
    14   1 H        0.925     0.040     2.449     2.447
    15   1 H        0.860     0.146     1.429     1.872
    16   1 H        0.924     0.025     2.662     2.551
    17   1 H        0.925     0.043     2.413     2.429
    18   1 H        0.925     0.042     2.426     2.436
    19   1 H        0.925     0.052     2.301     2.372
    20   1 H        0.925     0.028     2.613     2.528
    21   1 H        0.925     0.037     2.491     2.468
    22   1 H        0.925     0.034     2.533     2.489

 Mol. C6AA /au·bohr⁶  :       3189.000654
 Mol. C8AA /au·bohr⁸  :      65483.064730
 Mol. α(0) /au        :         84.165757


Wiberg/Mayer (AO) data.
largest (>0.10) Wiberg bond orders for each atom

 ---------------------------------------------------------------------------
     #   Z sym  total        # sym  WBO       # sym  WBO       # sym  WBO
 ---------------------------------------------------------------------------
     1   6 C    3.995 --     2 C    1.008    10 H    0.986     8 H    0.986
                             9 H    0.985
     2   6 C    3.987 --     1 C    1.008     3 C    1.003     4 N    1.000
                            11 H    0.957
     3   6 C    3.996 --     2 C    1.003    12 H    0.986    14 H    0.986
                            13 H    0.983
     4   7 N    3.064 --     5 C    1.005     2 C    1.000    15 H    0.950
     5   6 C    3.986 --     4 N    1.005     6 C    1.003     7 C    0.995
                            16 H    0.964
     6   6 C    3.995 --     5 C    1.003    18 H    0.986    19 H    0.986
                            17 H    0.986
     7   6 C    3.997 --     5 C    0.995    22 H    0.986    21 H    0.986
                            20 H    0.984
     8   1 H    0.999 --     1 C    0.986
     9   1 H    0.998 --     1 C    0.985
    10   1 H    0.997 --     1 C    0.986
    11   1 H    1.000 --     2 C    0.957
    12   1 H    0.997 --     3 C    0.986
    13   1 H    0.999 --     3 C    0.983
    14   1 H    0.998 --     3 C    0.986
    15   1 H    0.979 --     4 N    0.950
    16   1 H    0.999 --     5 C    0.964
    17   1 H    0.998 --     6 C    0.986
    18   1 H    0.998 --     6 C    0.986
    19   1 H    0.997 --     6 C    0.986
    20   1 H    0.999 --     7 C    0.984
    21   1 H    0.998 --     7 C    0.986
    22   1 H    0.999 --     7 C    0.986
 ---------------------------------------------------------------------------

Topologies differ in total number of bonds
Writing topology from bond orders to xtbtopo.mol

molecular dipole:
                 x           y           z       tot (Debye)
 q only:        0.018       0.050      -0.086
   full:       -0.068       0.361       0.090       0.960
molecular quadrupole (traceless):
                xx          xy          yy          xz          yz          zz
 q only:        1.395       0.500      -0.520       0.151      -0.783      -0.874
  q+dip:        0.660       0.090      -0.282       0.262      -1.499      -0.378
   full:        1.069       0.328      -0.406       0.322      -1.631      -0.662


           -------------------------------------------------
          | TOTAL ENERGY              -23.419730319821 Eh   |
          | GRADIENT NORM               0.000078165622 Eh/α |
          | HOMO-LUMO GAP              10.186187027617 eV   |
           -------------------------------------------------

------------------------------------------------------------------------
 * finished run on 2025/04/11 at 12:24:49.130     
------------------------------------------------------------------------
 total:
 * wall-time:     0 d,  0 h,  0 min,  0.053 sec
 *  cpu-time:     0 d,  0 h,  0 min,  0.029 sec
 * ratio c/w:     0.544 speedup
 SCF:
 * wall-time:     0 d,  0 h,  0 min,  0.016 sec
 *  cpu-time:     0 d,  0 h,  0 min,  0.015 sec
 * ratio c/w:     0.991 speedup

