11
 energy: -1038.254726898469 gnorm: 0.026814388385 xtb: 6.7.1 (edcfbbe)
C           -0.04219183271870        0.90386572010053        0.28363502292569
C           -0.86400660248286       -0.37576845206651        0.25781683511425
Cl          -2.49504879180562       -0.05413424492399       -0.42021410658621
C            1.33799267719290        0.66839056469618        0.87405779268732
Cl           2.31300963362496       -0.43176350689133       -0.16837433477461
H            0.04981809112208        1.29898380227561       -0.72870980912291
H           -0.54866499384313        1.64948084413093        0.89842418299812
H           -0.40650486538013       -1.13010909930078       -0.38004992666841
H           -1.01860738635137       -0.77360476814280        1.25927029185802
H            1.28284789856846        0.19046412378440        1.84993890611976
H            1.89878072584140        1.59808983120816        0.93654693051501
11
 energy: -1038.255641744977 gnorm: 0.015446647978 xtb: 6.7.1 (edcfbbe)
C           -0.04032145349275        0.89784484081178        0.27763003786236
C           -0.87109042875122       -0.37416878364064        0.25538898429903
Cl          -2.52091233967375       -0.05218390883105       -0.42254438949285
C            1.33863975742034        0.66449436606736        0.86906907346330
Cl           2.34837817710731       -0.43710275609893       -0.17040580298368
H            0.05051106748497        1.30766748034916       -0.73232247558746
H           -0.53619642137419        1.64762054634437        0.90339131774242
H           -0.41763096031158       -1.13719371024639       -0.37837810674253
H           -1.01186932973477       -0.77432312485441        1.26136943297786
H            1.28048391664968        0.19767136492251        1.85401466252601
H            1.88743246795853        1.60356841572105        0.94512881419496
11
 energy: -1038.255948381626 gnorm: 0.006058211378 xtb: 6.7.1 (edcfbbe)
C           -0.03922651333152        0.89385579729729        0.26963136152972
C           -0.86696148865117       -0.37666043972449        0.25432986578212
Cl          -2.53483767651829       -0.04607763523913       -0.41690751003611
C            1.33375019307250        0.66758236210253        0.87153576656420
Cl           2.36812820119032       -0.43750365161229       -0.16788722666091
H            0.05006718025840        1.31403806473335       -0.73801757168543
H           -0.52634301980562        1.64642393445815        0.90363802731255
H           -0.42940067494355       -1.14792520856583       -0.38298304191296
H           -1.00966999556405       -0.77590578946177        1.26194771904376
H            1.28029287715477        0.19775111645499        1.85717078482053
H            1.88162532691716        1.60831614647481        0.94988307865351
11
 energy: -1038.256002495652 gnorm: 0.002176036776 xtb: 6.7.1 (edcfbbe)
C           -0.03832643453160        0.89204614249154        0.26937164964930
C           -0.86394112955522       -0.37723829380839        0.25468402610063
Cl          -2.53952017390004       -0.04312739404526       -0.41324434221404
C            1.33266286567350        0.67143695991761        0.87395116944853
Cl           2.37376834187895       -0.43776281043394       -0.16551417855655
H            0.05148690553169        1.31146660735175       -0.73782771929619
H           -0.52811597327003        1.64406751119809        0.90155870634283
H           -0.43392340579077       -1.14793976961478       -0.38758086831986
H           -1.00966857026068       -0.77659061940444        1.26112334758048
H            1.28012301420063        0.19719835268343        1.85675854951112
H            1.88287896994600        1.61033804858207        0.94906076696873
11
 energy: -1038.256012593886 gnorm: 0.000438717239 xtb: 6.7.1 (edcfbbe)
C           -0.03807161365435        0.89209006520487        0.26998575792047
C           -0.86145655096353       -0.37794462956437        0.25533684048523
Cl          -2.53963003168467       -0.04067579507273       -0.41040247348439
C            1.33182836675584        0.67304869521886        0.87606370047293
Cl           2.37262283418682       -0.43873503831674       -0.16469632365123
H            0.05285193264002        1.30886725557945       -0.73762916105969
H           -0.53112002492288        1.64379023371788        0.89921408201507
H           -0.43456616158427       -1.14610312113921       -0.39093224388707
H           -1.00843967710167       -0.77863766858635        1.26038071620947
H            1.27988183002318        0.19751232197777        1.85750089112107
H            1.88352351302350        1.61068247010848        0.94751923166254
11
 energy: -1038.256014198879 gnorm: 0.000372034610 xtb: 6.7.1 (edcfbbe)
C           -0.03790504163400        0.89226215948857        0.27046616396678
C           -0.86108391117657       -0.37813079260797        0.25489133655692
Cl          -2.54060192855328       -0.04030449349123       -0.40774258574420
C            1.33178165937037        0.67384897077274        0.87716463626184
Cl           2.37099509204394       -0.44008409411106       -0.16318397572087
H            0.05413770626216        1.30730235357752       -0.73762466180532
H           -0.53261803402090        1.64414211727410        0.89780989131559
H           -0.43501992512452       -1.14417863460420       -0.39394985553144
H           -1.00665919750178       -0.78077115661047        1.25913691576501
H            1.27999841461215        0.19892443736900        1.85860620185615
H            1.88439957761113        1.61088397806118        0.94676686095321
11
 energy: -1038.256014198879 gnorm: 0.000372034610 xtb: 6.7.1 (edcfbbe)
C           -0.03790504163400        0.89226215948857        0.27046616396678
C           -0.86108391117657       -0.37813079260797        0.25489133655692
Cl          -2.54060192855328       -0.04030449349123       -0.40774258574420
C            1.33178165937037        0.67384897077274        0.87716463626184
Cl           2.37099509204394       -0.44008409411106       -0.16318397572087
H            0.05413770626216        1.30730235357752       -0.73762466180532
H           -0.53261803402090        1.64414211727410        0.89780989131559
H           -0.43501992512452       -1.14417863460420       -0.39394985553144
H           -1.00665919750178       -0.78077115661047        1.25913691576501
H            1.27999841461215        0.19892443736900        1.85860620185615
H            1.88439957761113        1.61088397806118        0.94676686095321
