 Entering Gaussian System
 *********************************************
 Gaussian 98:
 frequency output generated by the xtb code
 *********************************************
                         Standard orientation:
 --------------------------------------------------------------------
  Center     Atomic     Atomic              Coordinates (Angstroms)
  Number     Number      Type              X           Y           Z
 --------------------------------------------------------------------
    1          6             0       -2.324431   -1.236418    0.728988
    2          6             0       -2.524411    0.046753   -0.068296
    3          6             0       -1.325380    0.339194   -0.977387
    4          6             0       -0.098810    0.640649   -0.155728
    5          8             0       -0.017825    1.520218    0.677812
    6          8             0        0.901629   -0.179593   -0.442606
    7          6             0        2.137853   -0.010116    0.271347
    8          6             0        3.067436   -1.143406   -0.116730
    9          1             0       -3.197116   -1.440351    1.343568
   10          1             0       -2.164598   -2.079965    0.061793
   11          1             0       -1.459223   -1.146443    1.383329
   12          1             0       -2.657062    0.887746    0.615053
   13          1             0       -3.419275   -0.040012   -0.684945
   14          1             0       -1.538932    1.219269   -1.585871
   15          1             0       -1.110441   -0.509445   -1.625421
   16          1             0        2.556263    0.966838    0.007973
   17          1             0        1.920469   -0.008396    1.344725
   18          1             0        3.245223   -1.126482   -1.187824
   19          1             0        4.011216   -1.029030    0.406013
   20          1             0        2.622742   -2.097719    0.149488
 --------------------------------------------------------------------
     1 basis functions        1 primitive gaussians
     1 alpha electrons        1 beta electrons
 
 Harmonic frequencies (cm**-1), IR intensities (km*mol⁻¹),
 Raman scattering activities (A**4/amu), Raman depolarization ratios,
 reduced masses (AMU), force constants (mDyne/A) and normal coordinates:
                      1                      2                      3
                        a                      a                      a 
 Frequencies --    13.8489                21.4847                77.2741
 Red. masses --     8.6700                11.3783                 8.3094
 Frc consts  --     0.0000                 0.0000                 0.0000
 IR Inten    --     0.3039                 3.9984                 0.6581
 Raman Activ --     0.0000                 0.0000                 0.0000
 Depolar     --     0.0000                 0.0000                 0.0000
 Atom AN      X      Y      Z        X      Y      Z        X      Y      Z
   1   6    -0.33   0.24   0.12    -0.26   0.12   0.07     0.41   0.28   0.26
   2   6    -0.07   0.14  -0.12    -0.06   0.08  -0.06    -0.01  -0.09  -0.23
   3   6     0.07  -0.18  -0.03     0.04  -0.14   0.02     0.02   0.07  -0.15
   4   6     0.01  -0.16   0.04     0.02  -0.11   0.05    -0.06   0.01  -0.01
   5   8    -0.04  -0.16   0.02    -0.15  -0.37   0.33    -0.18  -0.20   0.21
   6   8     0.05  -0.18   0.13     0.20   0.21  -0.28    -0.01   0.12  -0.14
   7   6     0.00  -0.09   0.16     0.20   0.25  -0.29    -0.10  -0.11   0.08
   8   6     0.31   0.31  -0.30     0.02  -0.06   0.16    -0.11  -0.07  -0.06
   9   1    -0.12   0.14   0.02    -0.09   0.08   0.01     0.09   0.01   0.02
  10   1    -0.11   0.03   0.08    -0.10   0.01   0.05     0.31   0.04   0.17
  11   1    -0.11   0.07   0.05    -0.08   0.02   0.03     0.04   0.28   0.15
  12   1    -0.01   0.08  -0.08    -0.00   0.04  -0.04    -0.13   0.02  -0.15
  13   1    -0.01   0.04  -0.06    -0.01   0.04  -0.03     0.04  -0.19  -0.10
  14   1     0.07  -0.08  -0.06     0.05  -0.06  -0.04     0.00   0.03  -0.02
  15   1     0.01  -0.09   0.04     0.01  -0.07   0.04     0.03   0.04  -0.06
  16   1    -0.08   0.04   0.16     0.11   0.02  -0.20    -0.00  -0.02   0.10
  17   1     0.01  -0.17   0.05     0.05   0.21  -0.09    -0.07  -0.10   0.01
  18   1     0.09   0.23  -0.08    -0.00  -0.15   0.04     0.02   0.06  -0.01
  19   1     0.08   0.10  -0.07     0.01   0.01   0.03    -0.05  -0.08   0.04
  20   1     0.16   0.03  -0.20    -0.03   0.03   0.16    -0.06  -0.03  -0.11
                      4                      5                      6
                        a                      a                      a 
 Frequencies --   131.5208               161.8661               191.8102
 Red. masses --     7.1698                 9.0126                 5.3519
 Frc consts  --     0.0000                 0.0000                 0.0000
 IR Inten    --     1.6681                 5.2977                 3.9526
 Raman Activ --     0.0000                 0.0000                 0.0000
 Depolar     --     0.0000                 0.0000                 0.0000
 Atom AN      X      Y      Z        X      Y      Z        X      Y      Z
   1   6    -0.06   0.01  -0.03    -0.20  -0.12   0.07     0.18   0.07  -0.04
   2   6    -0.11  -0.14  -0.26     0.03  -0.15  -0.04     0.16   0.08  -0.01
   3   6     0.09   0.02   0.07     0.13  -0.24   0.06     0.09  -0.12  -0.15
   4   6    -0.00   0.04   0.21     0.06   0.17   0.05    -0.04   0.02  -0.01
   5   8     0.06   0.20   0.06    -0.13   0.30  -0.04    -0.35  -0.02   0.07
   6   8    -0.09  -0.12   0.39     0.19   0.37   0.03     0.03   0.10   0.14
   7   6     0.16   0.07  -0.13     0.16  -0.01   0.10     0.02  -0.04   0.15
   8   6    -0.05  -0.08  -0.20    -0.19  -0.21  -0.20    -0.12  -0.07  -0.13
   9   1    -0.09  -0.08  -0.14    -0.09   0.01   0.00     0.19   0.19   0.24
  10   1     0.18   0.00   0.04    -0.07  -0.06   0.05    -0.27  -0.03  -0.03
  11   1    -0.13   0.12   0.13    -0.07  -0.05   0.04     0.25  -0.10  -0.26
  12   1    -0.16  -0.03  -0.12    -0.00  -0.03  -0.03     0.13   0.03   0.00
  13   1     0.04  -0.13  -0.16     0.03  -0.04  -0.04     0.00   0.06   0.06
  14   1     0.05   0.02   0.02     0.02  -0.13  -0.06     0.04  -0.07  -0.10
  15   1     0.08   0.02   0.01     0.10  -0.11   0.09     0.04  -0.08   0.02
  16   1     0.03  -0.01  -0.17     0.11  -0.02   0.09     0.02  -0.01   0.07
  17   1     0.16   0.11  -0.01     0.04  -0.06   0.03     0.02  -0.05   0.05
  18   1    -0.25  -0.18  -0.10     0.08   0.11  -0.03    -0.31  -0.13  -0.09
  19   1     0.10   0.08  -0.28    -0.10  -0.29   0.08     0.09   0.08  -0.29
  20   1     0.07   0.01   0.18    -0.23  -0.04  -0.29     0.08  -0.01   0.18
                      7                      8                      9
                        a                      a                      a 
 Frequencies --   229.9858               265.5522               344.0916
 Red. masses --     6.0091                 7.0612                10.6813
 Frc consts  --     0.0000                 0.0000                 0.0000
 IR Inten    --     2.0112                 5.8847                12.9050
 Raman Activ --     0.0000                 0.0000                 0.0000
 Depolar     --     0.0000                 0.0000                 0.0000
 Atom AN      X      Y      Z        X      Y      Z        X      Y      Z
   1   6     0.15   0.09  -0.07    -0.14  -0.05   0.13     0.02  -0.00  -0.01
   2   6    -0.04   0.02  -0.13    -0.20  -0.28  -0.22     0.15   0.01  -0.03
   3   6     0.01   0.03  -0.03    -0.03   0.13   0.10     0.16  -0.15  -0.02
   4   6    -0.06  -0.08   0.14     0.05   0.10   0.03     0.08  -0.08  -0.00
   5   8    -0.05  -0.01   0.07     0.38   0.06   0.06     0.44  -0.19   0.06
   6   8    -0.16  -0.26   0.33     0.01   0.10  -0.21    -0.03  -0.12  -0.01
   7   6     0.10   0.16  -0.22    -0.08  -0.07   0.02    -0.24   0.29   0.11
   8   6     0.00   0.01  -0.03     0.04   0.02   0.07    -0.49   0.23  -0.06
   9   1     0.17   0.13   0.19     0.08   0.20   0.29    -0.02   0.01  -0.03
  10   1    -0.18  -0.02  -0.01    -0.34  -0.13   0.11     0.01  -0.00  -0.00
  11   1     0.20  -0.02  -0.22     0.14  -0.06  -0.19    -0.01  -0.02   0.02
  12   1    -0.04   0.01  -0.05    -0.22  -0.06  -0.12     0.07   0.01  -0.01
  13   1    -0.01  -0.03  -0.04     0.02  -0.20  -0.16     0.04   0.03  -0.00
  14   1     0.04   0.03   0.00    -0.04   0.07   0.08     0.06  -0.09  -0.08
  15   1     0.01   0.02  -0.02     0.04   0.09  -0.03     0.07  -0.09   0.06
  16   1    -0.01   0.02  -0.23    -0.01  -0.01   0.08    -0.10   0.09   0.02
  17   1     0.14   0.18  -0.04    -0.08  -0.07  -0.00    -0.09   0.10   0.03
  18   1     0.28   0.12   0.04    -0.03  -0.02   0.01    -0.21   0.09  -0.03
  19   1    -0.12  -0.18   0.25     0.02   0.08  -0.02    -0.10  -0.04  -0.07
  20   1    -0.18   0.02  -0.25     0.08  -0.01   0.07    -0.22   0.10  -0.03
                     10                     11                     12
                        a                      a                      a 
 Frequencies --   387.6772               413.6118               593.5127
 Red. masses --     7.8613                10.2001                11.0740
 Frc consts  --     0.0000                 0.0000                 0.0000
 IR Inten    --     2.6989                 1.2737                15.6989
 Raman Activ --     0.0000                 0.0000                 0.0000
 Depolar     --     0.0000                 0.0000                 0.0000
 Atom AN      X      Y      Z        X      Y      Z        X      Y      Z
   1   6     0.21   0.13  -0.27     0.03   0.05  -0.05     0.03   0.05  -0.04
   2   6    -0.36   0.17  -0.01    -0.32   0.04   0.04     0.14   0.04  -0.03
   3   6    -0.09  -0.33   0.25    -0.24   0.10   0.09     0.29   0.00   0.33
   4   6    -0.06  -0.01   0.17     0.05  -0.29  -0.08     0.05  -0.37   0.38
   5   8     0.18   0.11   0.04    -0.01  -0.16  -0.28    -0.29   0.21  -0.21
   6   8    -0.02   0.11  -0.12     0.39   0.01   0.08     0.07  -0.07  -0.27
   7   6    -0.04  -0.08  -0.03     0.27   0.20   0.28    -0.18  -0.03  -0.11
   8   6     0.06  -0.02   0.03    -0.12  -0.00  -0.05    -0.10   0.06   0.01
   9   1     0.15  -0.14  -0.01     0.07  -0.06   0.04     0.00   0.04  -0.01
  10   1     0.12   0.11  -0.16     0.02   0.04  -0.04    -0.02   0.01  -0.01
  11   1     0.12   0.11  -0.16     0.05   0.06  -0.08     0.01  -0.01  -0.01
  12   1    -0.13   0.05  -0.01    -0.14  -0.00   0.01    -0.02   0.01  -0.02
  13   1    -0.08   0.01  -0.03    -0.07  -0.03  -0.01     0.09   0.00  -0.08
  14   1     0.08  -0.23  -0.15    -0.02   0.14   0.16     0.20   0.14   0.25
  15   1     0.00  -0.24   0.27    -0.19   0.10  -0.11     0.03   0.10  -0.05
  16   1     0.01  -0.02   0.04     0.09   0.05   0.09    -0.05   0.01   0.02
  17   1    -0.04  -0.06  -0.01     0.06   0.04   0.07    -0.11  -0.04  -0.04
  18   1     0.03  -0.02   0.01    -0.14   0.04  -0.03    -0.02   0.01   0.01
  19   1     0.01   0.04   0.02     0.03  -0.15  -0.10    -0.04   0.05   0.01
  20   1     0.05  -0.02   0.02    -0.13   0.04  -0.03    -0.01   0.01   0.01
                     13                     14                     15
                        a                      a                      a 
 Frequencies --   691.3279               817.6854               819.7668
 Red. masses --    10.1904                 4.6177                 2.1521
 Frc consts  --     0.0000                 0.0000                 0.0000
 IR Inten    --    15.1290                17.3766                 4.3931
 Raman Activ --     0.0000                 0.0000                 0.0000
 Depolar     --     0.0000                 0.0000                 0.0000
 Atom AN      X      Y      Z        X      Y      Z        X      Y      Z
   1   6    -0.01  -0.01  -0.00    -0.09  -0.03  -0.06    -0.00   0.01  -0.01
   2   6    -0.06   0.06   0.13    -0.24  -0.14  -0.14    -0.01  -0.01  -0.01
   3   6     0.16   0.13   0.30     0.07  -0.10   0.06     0.01  -0.02   0.02
   4   6     0.37   0.31  -0.39     0.26   0.17  -0.09     0.01  -0.02   0.00
   5   8    -0.30  -0.07   0.06    -0.09   0.08   0.12     0.01  -0.00  -0.02
   6   8     0.08  -0.32  -0.03     0.09  -0.16  -0.03     0.03   0.08  -0.06
   7   6    -0.06  -0.01  -0.02    -0.05  -0.03  -0.05    -0.11  -0.16   0.19
   8   6    -0.06   0.05   0.01    -0.04   0.04   0.01    -0.05  -0.05   0.08
   9   1     0.01  -0.06   0.00     0.10  -0.04   0.15     0.00  -0.00   0.01
  10   1    -0.03   0.05  -0.08     0.15  -0.15   0.21     0.01  -0.00   0.01
  11   1     0.02  -0.07  -0.03     0.02   0.40  -0.12     0.00   0.02  -0.01
  12   1    -0.30   0.02  -0.03     0.32  -0.14   0.17     0.02  -0.00   0.00
  13   1     0.13  -0.16  -0.16    -0.19   0.40   0.10    -0.00   0.02  -0.00
  14   1    -0.02  -0.08  -0.06    -0.02   0.04   0.13     0.00   0.01   0.03
  15   1    -0.00  -0.07   0.20     0.07   0.07  -0.10    -0.00   0.01  -0.02
  16   1    -0.05   0.00  -0.05    -0.03   0.01  -0.00     0.20  -0.25  -0.39
  17   1    -0.02   0.04  -0.00    -0.02  -0.02  -0.01    -0.04   0.49   0.04
  18   1    -0.04   0.03  -0.00    -0.01  -0.00   0.00    -0.15   0.40  -0.00
  19   1    -0.01  -0.01  -0.01    -0.01   0.01   0.01     0.04   0.10  -0.11
  20   1    -0.03   0.02  -0.01    -0.02   0.02   0.01     0.28  -0.22  -0.25
                     16                     17                     18
                        a                      a                      a 
 Frequencies --   882.2243               915.0790               920.7465
 Red. masses --     8.0876                 7.9870                 7.1604
 Frc consts  --     0.0000                 0.0000                 0.0000
 IR Inten    --    17.7485                 4.9023                 0.5265
 Raman Activ --     0.0000                 0.0000                 0.0000
 Depolar     --     0.0000                 0.0000                 0.0000
 Atom AN      X      Y      Z        X      Y      Z        X      Y      Z
   1   6    -0.04   0.14  -0.03    -0.01  -0.27   0.14     0.09   0.05  -0.24
   2   6     0.02  -0.03   0.06    -0.19   0.13   0.00     0.23  -0.07  -0.08
   3   6     0.07  -0.30   0.10     0.08   0.34  -0.22    -0.08   0.12   0.39
   4   6     0.08   0.04  -0.21     0.07  -0.16   0.10    -0.15  -0.05  -0.17
   5   8     0.07  -0.16  -0.05    -0.02  -0.03  -0.08     0.02  -0.23  -0.18
   6   8     0.09   0.29   0.36     0.29   0.10   0.18    -0.12   0.19   0.13
   7   6    -0.20  -0.09  -0.17    -0.16  -0.10  -0.15     0.01   0.03   0.03
   8   6    -0.17   0.00  -0.09    -0.20   0.04  -0.07     0.01  -0.05  -0.04
   9   1     0.02  -0.08  -0.00     0.03  -0.08   0.08    -0.07   0.35  -0.08
  10   1    -0.00   0.14  -0.13     0.03  -0.12   0.10     0.01  -0.24   0.26
  11   1     0.03  -0.01  -0.05     0.00   0.01   0.03    -0.07   0.17   0.04
  12   1     0.00   0.08  -0.10    -0.09  -0.05   0.10    -0.02  -0.20   0.19
  13   1     0.05  -0.04  -0.04    -0.06   0.05   0.02     0.11   0.11  -0.11
  14   1    -0.09   0.09   0.31     0.24  -0.03  -0.32     0.01  -0.05  -0.02
  15   1    -0.04   0.11  -0.23    -0.03  -0.10   0.17    -0.09  -0.08   0.24
  16   1     0.04  -0.05  -0.00     0.05  -0.05  -0.01     0.03  -0.00   0.01
  17   1     0.08  -0.07  -0.01     0.05  -0.05  -0.02     0.05  -0.01   0.02
  18   1     0.17  -0.09   0.01     0.12  -0.04   0.01     0.06  -0.04  -0.00
  19   1    -0.17   0.28   0.14    -0.16   0.26   0.12    -0.03   0.05   0.03
  20   1     0.13  -0.06   0.05     0.11  -0.05   0.03     0.05  -0.03   0.01
                     19                     20                     21
                        a                      a                      a 
 Frequencies --   968.5897              1060.2309              1071.4178
 Red. masses --     9.1511                 6.5471                 8.5344
 Frc consts  --     0.0000                 0.0000                 0.0000
 IR Inten    --     3.1629                19.2072                86.6261
 Raman Activ --     0.0000                 0.0000                 0.0000
 Depolar     --     0.0000                 0.0000                 0.0000
 Atom AN      X      Y      Z        X      Y      Z        X      Y      Z
   1   6    -0.14  -0.20   0.18    -0.15   0.13   0.00     0.10  -0.20   0.06
   2   6    -0.08   0.14   0.01     0.12  -0.16   0.03    -0.03   0.22  -0.10
   3   6     0.38   0.07   0.07     0.00   0.17   0.07    -0.04  -0.20  -0.00
   4   6    -0.20  -0.02  -0.16    -0.19  -0.04   0.06     0.14   0.07  -0.06
   5   8     0.04  -0.22  -0.18    -0.02  -0.02  -0.06     0.01   0.04   0.07
   6   8    -0.35   0.21   0.02    -0.03  -0.14  -0.16    -0.35  -0.01  -0.13
   7   6     0.04   0.11   0.10     0.38  -0.12   0.09     0.42  -0.17   0.08
   8   6     0.16  -0.10  -0.00    -0.28   0.17  -0.01    -0.22   0.21   0.05
   9   1     0.13  -0.32   0.19     0.06  -0.15   0.07    -0.02   0.06  -0.02
  10   1     0.09   0.03  -0.03     0.04   0.13  -0.10    -0.01  -0.12   0.09
  11   1     0.07   0.10  -0.10     0.04   0.10  -0.11    -0.02  -0.08   0.07
  12   1    -0.02   0.06  -0.02     0.09   0.01  -0.04    -0.05   0.04  -0.02
  13   1     0.07   0.15  -0.15     0.05   0.03  -0.03     0.01   0.03  -0.06
  14   1     0.20   0.06   0.04    -0.31  -0.11  -0.08     0.30   0.10   0.10
  15   1     0.18   0.05   0.01     0.32   0.04   0.13    -0.32  -0.03  -0.12
  16   1    -0.03   0.04   0.01     0.18  -0.08   0.01     0.14  -0.08  -0.01
  17   1    -0.00   0.03   0.02     0.17  -0.10   0.03     0.13  -0.10   0.01
  18   1    -0.01  -0.02  -0.01     0.06   0.03   0.02    -0.01   0.06   0.02
  19   1     0.08  -0.13  -0.05    -0.15   0.24   0.11    -0.09   0.14   0.06
  20   1    -0.02  -0.00  -0.01     0.04   0.01   0.05    -0.01   0.05   0.04
                     22                     23                     24
                        a                      a                      a 
 Frequencies --  1083.3427              1115.9292              1123.0554
 Red. masses --     4.5382                 8.3198                 8.4529
 Frc consts  --     0.0000                 0.0000                 0.0000
 IR Inten    --     3.0094                16.0423                44.3048
 Raman Activ --     0.0000                 0.0000                 0.0000
 Depolar     --     0.0000                 0.0000                 0.0000
 Atom AN      X      Y      Z        X      Y      Z        X      Y      Z
   1   6     0.21   0.12   0.01     0.08  -0.20   0.18    -0.09   0.15  -0.15
   2   6    -0.34  -0.14  -0.04     0.08   0.19  -0.35    -0.03  -0.15   0.30
   3   6     0.17   0.06   0.13    -0.24   0.00   0.21     0.17  -0.05  -0.24
   4   6    -0.01   0.05  -0.12     0.00   0.04  -0.01     0.14  -0.05   0.06
   5   8    -0.03  -0.11  -0.09    -0.02   0.05   0.05    -0.00   0.08   0.06
   6   8    -0.10   0.00  -0.01     0.06  -0.17  -0.08    -0.20  -0.07  -0.15
   7   6     0.07   0.04   0.06    -0.04   0.34   0.17     0.06   0.33   0.26
   8   6    -0.03  -0.02  -0.03    -0.02  -0.28  -0.17    -0.04  -0.25  -0.19
   9   1    -0.13   0.19  -0.19     0.00  -0.08   0.01     0.01   0.05   0.01
  10   1    -0.13   0.05  -0.07    -0.00  -0.02  -0.01     0.02   0.01   0.02
  11   1    -0.04  -0.26   0.16     0.02  -0.15   0.06    -0.01   0.15  -0.07
  12   1     0.15  -0.00   0.00     0.19   0.17  -0.20    -0.18  -0.14   0.17
  13   1    -0.32  -0.10   0.33    -0.01   0.14  -0.06     0.03  -0.13   0.03
  14   1     0.26   0.06   0.01    -0.10  -0.02   0.03     0.09   0.02  -0.03
  15   1     0.38   0.09   0.04    -0.01   0.01   0.07    -0.12  -0.03  -0.09
  16   1     0.04  -0.00   0.01     0.01   0.09   0.09    -0.02   0.09   0.05
  17   1     0.02  -0.00   0.02    -0.07   0.06   0.03    -0.03   0.08   0.06
  18   1     0.04  -0.02   0.00     0.18  -0.09  -0.01     0.21  -0.11  -0.01
  19   1    -0.03   0.06   0.02    -0.08   0.17   0.06    -0.10   0.18   0.08
  20   1     0.04  -0.02   0.01     0.21  -0.16  -0.01     0.20  -0.14   0.02
                     25                     26                     27
                        a                      a                      a 
 Frequencies --  1137.1980              1166.6555              1204.5209
 Red. masses --     5.1589                 8.5651                 7.3549
 Frc consts  --     0.0000                 0.0000                 0.0000
 IR Inten    --    19.1123               292.4576               187.4320
 Raman Activ --     0.0000                 0.0000                 0.0000
 Depolar     --     0.0000                 0.0000                 0.0000
 Atom AN      X      Y      Z        X      Y      Z        X      Y      Z
   1   6    -0.01   0.01  -0.02     0.14  -0.18  -0.11     0.12  -0.12  -0.05
   2   6    -0.00  -0.00   0.05    -0.16   0.31   0.19    -0.18   0.18   0.03
   3   6     0.03  -0.01  -0.03     0.18  -0.18  -0.09     0.12   0.03  -0.06
   4   6    -0.07   0.03  -0.02    -0.45   0.16  -0.03     0.44  -0.25   0.12
   5   8     0.01  -0.02   0.00     0.04   0.05   0.06    -0.04  -0.05  -0.09
   6   8    -0.03  -0.10   0.15     0.26  -0.20  -0.07    -0.27   0.21   0.04
   7   6     0.16   0.23  -0.39    -0.03   0.00   0.04     0.06   0.01  -0.02
   8   6    -0.11  -0.14   0.25    -0.02   0.00  -0.04    -0.01  -0.03   0.05
   9   1     0.00   0.01   0.00    -0.03   0.19  -0.04    -0.03   0.11  -0.04
  10   1     0.00  -0.01   0.01    -0.01  -0.21   0.19    -0.03  -0.13   0.10
  11   1    -0.00   0.02  -0.01    -0.05   0.02   0.08    -0.04  -0.03   0.08
  12   1    -0.03  -0.02   0.03    -0.20   0.06   0.04    -0.04   0.11  -0.07
  13   1     0.01  -0.01  -0.01     0.09   0.03  -0.13    -0.03   0.02  -0.01
  14   1     0.03   0.01   0.01    -0.16   0.02   0.14    -0.58  -0.15  -0.02
  15   1     0.01   0.01  -0.02     0.26   0.10  -0.14     0.14   0.04  -0.02
  16   1     0.27   0.08   0.34     0.04  -0.02  -0.01    -0.10   0.05  -0.00
  17   1    -0.31  -0.23  -0.16     0.05   0.02   0.02    -0.00  -0.03  -0.01
  18   1    -0.16   0.32   0.04     0.03  -0.04  -0.01    -0.02   0.05   0.01
  19   1     0.06   0.07  -0.12    -0.03   0.04   0.03     0.02  -0.01  -0.03
  20   1     0.19  -0.20  -0.18    -0.00   0.01   0.02     0.03  -0.03  -0.02
                     28                     29                     30
                        a                      a                      a 
 Frequencies --  1234.0008              1245.4478              1305.9162
 Red. masses --     2.3349                 3.4616                 4.4506
 Frc consts  --     0.0000                 0.0000                 0.0000
 IR Inten    --     7.1069                13.0358                71.6419
 Raman Activ --     0.0000                 0.0000                 0.0000
 Depolar     --     0.0000                 0.0000                 0.0000
 Atom AN      X      Y      Z        X      Y      Z        X      Y      Z
   1   6     0.00   0.02   0.02    -0.17  -0.16  -0.24     0.04   0.01   0.03
   2   6     0.00  -0.02  -0.01     0.17   0.11   0.16     0.04  -0.00   0.11
   3   6    -0.00  -0.01   0.01    -0.18   0.02   0.07    -0.43  -0.11  -0.07
   4   6    -0.06   0.03  -0.01     0.07   0.00  -0.02     0.18  -0.05  -0.01
   5   8     0.00   0.01   0.01    -0.01  -0.02  -0.02    -0.02   0.00  -0.00
   6   8     0.08   0.04  -0.10    -0.00   0.02   0.01    -0.01   0.08   0.07
   7   6     0.02   0.05  -0.06    -0.00  -0.01  -0.01     0.17  -0.11  -0.00
   8   6    -0.10  -0.16   0.21    -0.00  -0.01   0.01    -0.03  -0.03  -0.04
   9   1    -0.00  -0.01  -0.01     0.06   0.04   0.11    -0.02   0.04  -0.02
  10   1    -0.01   0.02  -0.02     0.12  -0.18   0.17    -0.01   0.04  -0.04
  11   1     0.01  -0.02   0.00    -0.04   0.29  -0.11     0.01  -0.01   0.01
  12   1     0.00  -0.03   0.02     0.08   0.34  -0.34    -0.11  -0.08   0.10
  13   1     0.01   0.02  -0.02    -0.09  -0.42   0.29     0.19   0.18  -0.26
  14   1     0.05   0.02   0.01     0.20   0.05  -0.01     0.26   0.04  -0.06
  15   1    -0.02  -0.01  -0.00     0.19   0.05   0.04     0.48   0.15  -0.06
  16   1    -0.54   0.23  -0.10    -0.05   0.02  -0.01    -0.28   0.10  -0.04
  17   1     0.56  -0.23   0.09     0.02  -0.01   0.00    -0.27   0.11  -0.06
  18   1    -0.11   0.23   0.04    -0.01   0.01   0.00     0.00   0.04  -0.00
  19   1     0.03   0.06  -0.07     0.00   0.00  -0.01    -0.04   0.07   0.03
  20   1     0.15  -0.17  -0.13     0.01  -0.01  -0.01    -0.02   0.01   0.03
                     31                     32                     33
                        a                      a                      a 
 Frequencies --  1322.8168              1333.8482              1395.6109
 Red. masses --     4.3665                 4.5719                 3.3492
 Frc consts  --     0.0000                 0.0000                 0.0000
 IR Inten    --    19.4417                 9.8519                 7.7693
 Raman Activ --     0.0000                 0.0000                 0.0000
 Depolar     --     0.0000                 0.0000                 0.0000
 Atom AN      X      Y      Z        X      Y      Z        X      Y      Z
   1   6    -0.02   0.00  -0.01     0.12  -0.03  -0.06     0.00  -0.01   0.00
   2   6    -0.01   0.02  -0.08    -0.23  -0.35   0.33     0.00   0.00   0.00
   3   6     0.24   0.05   0.04     0.07   0.13  -0.03    -0.01  -0.00   0.00
   4   6    -0.21   0.05  -0.03    -0.05  -0.01  -0.01     0.04  -0.01   0.01
   5   8     0.02  -0.00   0.00     0.01   0.02   0.02    -0.00  -0.00  -0.00
   6   8     0.10   0.04   0.07     0.01  -0.00  -0.00    -0.04  -0.01  -0.03
   7   6     0.34  -0.20   0.00     0.02  -0.01  -0.00    -0.09   0.05  -0.00
   8   6    -0.04  -0.07  -0.07    -0.00  -0.01  -0.00     0.31  -0.30  -0.08
   9   1     0.01  -0.03   0.01    -0.07   0.17  -0.09    -0.00   0.01  -0.00
  10   1     0.01  -0.02   0.02    -0.06   0.00  -0.04    -0.01   0.01  -0.01
  11   1     0.00  -0.01  -0.01    -0.02   0.08   0.03    -0.00   0.01   0.00
  12   1     0.05   0.01  -0.02     0.27   0.36  -0.40    -0.01  -0.00   0.01
  13   1    -0.10  -0.10   0.15     0.17   0.28  -0.30     0.00   0.00  -0.00
  14   1    -0.13  -0.01   0.06     0.09   0.00  -0.07     0.00  -0.01  -0.02
  15   1    -0.25  -0.09   0.05    -0.19  -0.06   0.04     0.01   0.01  -0.02
  16   1    -0.46   0.17  -0.06    -0.02   0.01   0.00     0.11  -0.02   0.08
  17   1    -0.45   0.20  -0.10    -0.02   0.01  -0.00     0.14   0.02   0.03
  18   1    -0.02   0.09  -0.01    -0.00   0.01  -0.00    -0.36   0.32  -0.07
  19   1    -0.09   0.16   0.08    -0.01   0.01   0.01    -0.16   0.43   0.25
  20   1    -0.06   0.03   0.07    -0.01   0.00   0.00    -0.43   0.21   0.09
                     34                     35                     36
                        a                      a                      a 
 Frequencies --  1411.5496              1430.9671              1462.8371
 Red. masses --     3.1717                 2.0907                 1.5167
 Frc consts  --     0.0000                 0.0000                 0.0000
 IR Inten    --     1.6871                 5.2385                 4.9087
 Raman Activ --     0.0000                 0.0000                 0.0000
 Depolar     --     0.0000                 0.0000                 0.0000
 Atom AN      X      Y      Z        X      Y      Z        X      Y      Z
   1   6     0.02  -0.36   0.23    -0.02   0.05  -0.04     0.00  -0.00  -0.00
   2   6     0.05   0.05  -0.06    -0.01   0.00   0.01     0.00  -0.00  -0.00
   3   6     0.04  -0.01   0.05     0.05   0.00   0.30    -0.00   0.00  -0.00
   4   6    -0.02   0.00   0.00    -0.05   0.01   0.01     0.00  -0.00   0.00
   5   8     0.00  -0.00  -0.00     0.00  -0.01  -0.01    -0.00   0.00   0.00
   6   8     0.00  -0.00   0.00     0.01  -0.00   0.00    -0.00   0.00  -0.00
   7   6     0.00  -0.00  -0.00     0.01  -0.01  -0.00    -0.02  -0.03   0.03
   8   6    -0.01   0.01   0.00    -0.01   0.00   0.00    -0.07  -0.12   0.16
   9   1    -0.22   0.42  -0.14     0.04  -0.03   0.05     0.00  -0.01   0.00
  10   1     0.01   0.31  -0.41     0.05  -0.04   0.06    -0.01   0.00  -0.00
  11   1     0.10   0.45  -0.18    -0.01  -0.09   0.02    -0.01   0.01   0.01
  12   1    -0.11  -0.04   0.03     0.05  -0.00   0.02    -0.00  -0.00  -0.00
  13   1    -0.07  -0.00   0.11     0.02  -0.05  -0.01    -0.00   0.00   0.00
  14   1    -0.03  -0.06  -0.07     0.06  -0.37  -0.53    -0.00   0.00   0.01
  15   1    -0.03   0.06  -0.09    -0.13   0.40  -0.53     0.00  -0.00   0.01
  16   1    -0.00   0.00   0.00    -0.01   0.01   0.00     0.01  -0.01   0.02
  17   1    -0.01   0.00  -0.00    -0.01   0.01  -0.00     0.00   0.04   0.01
  18   1     0.01  -0.01   0.00     0.01  -0.01   0.00     0.45  -0.03   0.09
  19   1     0.00  -0.01  -0.01     0.00   0.00  -0.01     0.25   0.40  -0.54
  20   1     0.01  -0.00   0.00     0.00  -0.00  -0.01    -0.41   0.12  -0.21
                     37                     38                     39
                        a                      a                      a 
 Frequencies --  1466.6569              1476.4687              1481.0883
 Red. masses --     1.8809                 1.9363                 1.5747
 Frc consts  --     0.0000                 0.0000                 0.0000
 IR Inten    --     0.5922                 1.4179                 4.0301
 Raman Activ --     0.0000                 0.0000                 0.0000
 Depolar     --     0.0000                 0.0000                 0.0000
 Atom AN      X      Y      Z        X      Y      Z        X      Y      Z
   1   6    -0.00   0.00   0.00    -0.01   0.04  -0.04    -0.00   0.00   0.00
   2   6     0.01  -0.00   0.00     0.22  -0.18   0.01     0.00  -0.00   0.00
   3   6    -0.00  -0.00  -0.00     0.02  -0.01   0.01     0.00  -0.00  -0.00
   4   6     0.01  -0.01  -0.01    -0.01   0.02   0.01    -0.00   0.00   0.00
   5   8    -0.01   0.01   0.01    -0.00  -0.02  -0.01    -0.00  -0.00  -0.00
   6   8    -0.05  -0.02  -0.04     0.00  -0.00  -0.00    -0.00   0.00  -0.00
   7   6    -0.01  -0.21  -0.16     0.00   0.00   0.00     0.06   0.01   0.03
   8   6    -0.03   0.04   0.00    -0.00  -0.00  -0.00     0.11   0.12   0.14
   9   1    -0.00  -0.01  -0.01     0.03  -0.02   0.02    -0.01  -0.00  -0.01
  10   1    -0.00  -0.01   0.01     0.05  -0.04   0.06    -0.00  -0.00   0.00
  11   1     0.00  -0.00  -0.01     0.00  -0.08   0.01     0.01   0.00  -0.01
  12   1    -0.02   0.00  -0.01    -0.60   0.12  -0.28    -0.01   0.00  -0.00
  13   1    -0.01   0.01   0.01    -0.25   0.53   0.31    -0.00   0.00   0.00
  14   1     0.00   0.00   0.00     0.01  -0.02  -0.02    -0.00   0.00   0.00
  15   1     0.01  -0.00   0.00    -0.00   0.02  -0.03     0.00  -0.00   0.00
  16   1    -0.01   0.18   0.65    -0.00  -0.00  -0.02    -0.04   0.02  -0.02
  17   1     0.28   0.62   0.05    -0.01  -0.01  -0.00    -0.04   0.01  -0.00
  18   1     0.01  -0.04   0.00     0.00   0.01   0.00    -0.34  -0.56  -0.05
  19   1    -0.00  -0.05   0.00     0.00   0.00  -0.00    -0.08   0.22   0.13
  20   1     0.05  -0.03  -0.02    -0.00   0.00   0.01    -0.06  -0.14  -0.64
                     40                     41                     42
                        a                      a                      a 
 Frequencies --  1495.1078              1502.2236              1694.6811
 Red. masses --     1.5430                 1.5604                13.3288
 Frc consts  --     0.0000                 0.0000                 0.0000
 IR Inten    --     2.9225                 0.5226               618.6302
 Raman Activ --     0.0000                 0.0000                 0.0000
 Depolar     --     0.0000                 0.0000                 0.0000
 Atom AN      X      Y      Z        X      Y      Z        X      Y      Z
   1   6    -0.19  -0.06  -0.08     0.10  -0.09  -0.17     0.01  -0.00  -0.00
   2   6    -0.06  -0.02  -0.00     0.03  -0.01  -0.05    -0.01   0.00   0.01
   3   6     0.01   0.00  -0.02    -0.00   0.00   0.01    -0.04  -0.04  -0.06
   4   6     0.01   0.00   0.00    -0.01   0.00  -0.01     0.10   0.56   0.55
   5   8    -0.00  -0.00  -0.00     0.00   0.00   0.00    -0.05  -0.42  -0.41
   6   8    -0.00   0.00  -0.00     0.00  -0.00  -0.00     0.02  -0.04  -0.03
   7   6    -0.00  -0.00  -0.00     0.00  -0.00  -0.00     0.01   0.00   0.01
   8   6     0.00  -0.00   0.00    -0.00   0.01  -0.00    -0.01  -0.00  -0.01
   9   1     0.13   0.46   0.35     0.30   0.02   0.42    -0.00   0.00  -0.00
  10   1     0.64   0.18  -0.08    -0.29   0.14  -0.27    -0.01   0.00  -0.00
  11   1    -0.01  -0.38   0.05    -0.42   0.21   0.53    -0.00   0.01   0.00
  12   1     0.04  -0.01   0.01    -0.02  -0.03   0.01     0.02   0.00   0.01
  13   1     0.01   0.01  -0.04    -0.02   0.01   0.02     0.02  -0.01  -0.03
  14   1    -0.01   0.02   0.03     0.00  -0.00  -0.00     0.00   0.01   0.01
  15   1    -0.00  -0.03   0.04    -0.01   0.00  -0.00    -0.06  -0.01  -0.02
  16   1     0.00   0.00   0.01    -0.00   0.00   0.01    -0.02   0.02   0.01
  17   1     0.01   0.01   0.00     0.00   0.01  -0.00    -0.01   0.02   0.00
  18   1     0.00  -0.00   0.00    -0.01  -0.01  -0.00     0.01  -0.00  -0.00
  19   1     0.00   0.01  -0.00    -0.00  -0.01   0.01    -0.00   0.00   0.00
  20   1    -0.01   0.00  -0.01     0.01  -0.01  -0.01     0.01  -0.00   0.00
                     43                     44                     45
                        a                      a                      a 
 Frequencies --  2925.1750              2947.2896              2982.3880
 Red. masses --     1.9851                 1.4578                 1.9182
 Frc consts  --     0.0000                 0.0000                 0.0000
 IR Inten    --    41.0304                39.0887                31.8020
 Raman Activ --     0.0000                 0.0000                 0.0000
 Depolar     --     0.0000                 0.0000                 0.0000
 Atom AN      X      Y      Z        X      Y      Z        X      Y      Z
   1   6     0.00   0.00   0.00    -0.00  -0.00  -0.00    -0.01  -0.02  -0.03
   2   6    -0.00  -0.00  -0.00    -0.00   0.00   0.00     0.06   0.18   0.20
   3   6    -0.00   0.00  -0.00    -0.00   0.00   0.00     0.01  -0.05   0.00
   4   6     0.00   0.00  -0.00     0.00  -0.00  -0.00     0.00  -0.00  -0.00
   5   8    -0.00  -0.00   0.00     0.00   0.00   0.00    -0.00  -0.00  -0.00
   6   8    -0.00  -0.00   0.00    -0.02  -0.00  -0.01    -0.00   0.00   0.00
   7   6    -0.11  -0.16   0.23    -0.03  -0.16  -0.12     0.00   0.00   0.00
   8   6     0.00   0.01  -0.01     0.01   0.00   0.01     0.00   0.00  -0.00
   9   1     0.00   0.00  -0.00     0.00   0.00  -0.00    -0.01  -0.00  -0.00
  10   1     0.00  -0.00  -0.00    -0.00   0.00   0.00    -0.02   0.07   0.05
  11   1    -0.00  -0.00  -0.00     0.00   0.00   0.00     0.08   0.01   0.06
  12   1    -0.00   0.00   0.00     0.00  -0.00  -0.00     0.11  -0.65  -0.53
  13   1     0.00   0.00   0.00     0.00   0.00   0.00    -0.33  -0.01  -0.21
  14   1     0.00  -0.00   0.00     0.00   0.00  -0.00    -0.02   0.09  -0.07
  15   1    -0.00   0.00   0.00     0.00  -0.00  -0.00    -0.03   0.10   0.08
  16   1     0.25   0.59  -0.14     0.28   0.61  -0.20    -0.00  -0.00   0.00
  17   1     0.13  -0.01  -0.67    -0.14  -0.04   0.66     0.00   0.00  -0.00
  18   1    -0.01   0.00   0.04     0.01   0.00  -0.03     0.00   0.00  -0.00
  19   1     0.00   0.00  -0.00    -0.02  -0.00  -0.01     0.00   0.00   0.00
  20   1    -0.01  -0.03   0.01    -0.01  -0.03   0.01    -0.00  -0.00   0.00
                     46                     47                     48
                        a                      a                      a 
 Frequencies --  2984.5877              2996.9141              3013.5150
 Red. masses --     1.7267                 1.5428                 1.7638
 Frc consts  --     0.0000                 0.0000                 0.0000
 IR Inten    --    10.3098                42.9806                25.6967
 Raman Activ --     0.0000                 0.0000                 0.0000
 Depolar     --     0.0000                 0.0000                 0.0000
 Atom AN      X      Y      Z        X      Y      Z        X      Y      Z
   1   6     0.00   0.01   0.00    -0.04  -0.01  -0.00     0.01  -0.01  -0.02
   2   6    -0.05  -0.01  -0.03     0.19  -0.07   0.06     0.00   0.03   0.03
   3   6     0.05  -0.20   0.14     0.02  -0.04   0.04    -0.05   0.20   0.15
   4   6     0.00  -0.00   0.00    -0.00  -0.00  -0.00    -0.00   0.01   0.01
   5   8    -0.00  -0.00  -0.00    -0.00   0.00   0.00     0.00  -0.00  -0.00
   6   8    -0.00   0.00   0.00     0.00  -0.00   0.00     0.00  -0.00   0.00
   7   6    -0.00  -0.00   0.00    -0.00  -0.00  -0.00    -0.00   0.00   0.00
   8   6     0.00   0.00  -0.00     0.00  -0.00  -0.00    -0.00  -0.00  -0.00
   9   1    -0.00  -0.00   0.00     0.06   0.01  -0.04    -0.03  -0.01   0.02
  10   1     0.00  -0.01  -0.01    -0.00  -0.01  -0.01    -0.01   0.05   0.04
  11   1    -0.01   0.00  -0.01     0.10   0.01   0.08    -0.00  -0.00  -0.00
  12   1    -0.01   0.01  -0.00    -0.02   0.33   0.29     0.01  -0.10  -0.08
  13   1     0.20   0.02   0.14    -0.67  -0.09  -0.48    -0.02   0.00  -0.01
  14   1    -0.19   0.76  -0.51    -0.04   0.17  -0.12    -0.00   0.02   0.02
  15   1     0.01  -0.04   0.00     0.01  -0.04  -0.02     0.18  -0.75  -0.56
  16   1     0.00   0.00  -0.00     0.00   0.00  -0.00    -0.00  -0.00   0.00
  17   1     0.00  -0.00  -0.00    -0.00  -0.00   0.00     0.00   0.00  -0.00
  18   1    -0.00  -0.00   0.00    -0.00  -0.00   0.00    -0.00  -0.00   0.00
  19   1     0.00   0.00   0.00    -0.00  -0.00  -0.00     0.00   0.00   0.00
  20   1    -0.00  -0.00   0.00     0.00   0.00  -0.00     0.00   0.00  -0.00
                     49                     50                     51
                        a                      a                      a 
 Frequencies --  3021.9128              3036.0041              3045.5817
 Red. masses --     1.8694                 1.8056                 1.4771
 Frc consts  --     0.0000                 0.0000                 0.0000
 IR Inten    --    95.4909                64.5386                39.5279
 Raman Activ --     0.0000                 0.0000                 0.0000
 Depolar     --     0.0000                 0.0000                 0.0000
 Atom AN      X      Y      Z        X      Y      Z        X      Y      Z
   1   6     0.21   0.07   0.16     0.13  -0.16  -0.17    -0.14  -0.09   0.12
   2   6     0.04   0.01   0.04     0.01  -0.02  -0.02    -0.01   0.00   0.00
   3   6     0.00  -0.01   0.00     0.00  -0.02  -0.01    -0.00   0.00   0.00
   4   6    -0.00  -0.00   0.00     0.00  -0.00  -0.00     0.00   0.00   0.00
   5   8     0.00   0.00  -0.00    -0.00   0.00   0.00    -0.00  -0.00  -0.00
   6   8     0.00   0.00  -0.00    -0.00   0.00  -0.00    -0.00   0.00  -0.00
   7   6     0.00  -0.00  -0.00    -0.00  -0.00   0.00     0.00   0.00  -0.00
   8   6     0.00  -0.00   0.00     0.00   0.00   0.00    -0.00  -0.00   0.00
   9   1    -0.08  -0.01   0.10    -0.23  -0.08   0.15     0.74   0.15  -0.51
  10   1     0.06  -0.15  -0.11    -0.11   0.69   0.56    -0.06   0.20   0.19
  11   1    -0.73  -0.08  -0.54    -0.11  -0.04  -0.12    -0.18  -0.03  -0.10
  12   1     0.01  -0.03  -0.02    -0.01   0.07   0.06     0.00  -0.02  -0.01
  13   1    -0.14  -0.02  -0.09    -0.01  -0.00  -0.01     0.03   0.00   0.02
  14   1    -0.00   0.02  -0.01    -0.00   0.01  -0.01    -0.00  -0.00   0.00
  15   1     0.00   0.00   0.00    -0.01   0.05   0.04     0.00  -0.01  -0.01
  16   1     0.00   0.00  -0.00     0.00   0.00  -0.00    -0.00  -0.00   0.00
  17   1    -0.00   0.00   0.00     0.00  -0.00  -0.00     0.00   0.00   0.00
  18   1     0.00   0.00  -0.00     0.00   0.00  -0.00     0.00  -0.00  -0.00
  19   1    -0.00  -0.00  -0.00    -0.00  -0.00  -0.00    -0.00  -0.00   0.00
  20   1     0.00   0.00  -0.00    -0.00  -0.00   0.00     0.00   0.00  -0.00
                     52                     53                     54
                        a                      a                      a 
 Frequencies --  3055.6627              3058.7185              3064.9283
 Red. masses --     1.9381                 1.4046                 1.8338
 Frc consts  --     0.0000                 0.0000                 0.0000
 IR Inten    --    29.7376                19.3347                23.6368
 Raman Activ --     0.0000                 0.0000                 0.0000
 Depolar     --     0.0000                 0.0000                 0.0000
 Atom AN      X      Y      Z        X      Y      Z        X      Y      Z
   1   6    -0.00   0.00  -0.00    -0.00   0.00   0.00    -0.00   0.00   0.00
   2   6     0.00   0.00  -0.00     0.00  -0.00  -0.00    -0.00   0.00   0.00
   3   6     0.00  -0.00  -0.00    -0.00   0.00   0.00     0.00   0.00   0.00
   4   6    -0.00  -0.00   0.00     0.00  -0.00  -0.00    -0.00   0.00   0.00
   5   8    -0.00   0.00  -0.00     0.00  -0.00  -0.00    -0.00  -0.00  -0.00
   6   8     0.00   0.00  -0.00    -0.00   0.00   0.00    -0.00  -0.00  -0.00
   7   6    -0.01  -0.01   0.01    -0.00   0.01   0.01     0.01   0.01   0.01
   8   6    -0.11  -0.19   0.19    -0.02   0.10   0.16     0.22   0.05   0.15
   9   1    -0.00  -0.00   0.00     0.00   0.00  -0.00     0.00   0.00  -0.00
  10   1     0.00  -0.00  -0.00     0.00  -0.00  -0.00     0.00  -0.00  -0.00
  11   1     0.00   0.00   0.00     0.00   0.00   0.00     0.00   0.00   0.00
  12   1     0.00  -0.00  -0.00     0.00   0.00   0.00     0.00  -0.00  -0.00
  13   1     0.00   0.00   0.00    -0.00  -0.00  -0.00     0.00   0.00   0.00
  14   1    -0.00   0.00  -0.00     0.00  -0.00   0.00    -0.00   0.00  -0.00
  15   1    -0.00   0.00   0.00     0.00  -0.00  -0.00     0.00  -0.00  -0.00
  16   1     0.02   0.03  -0.01    -0.01  -0.01   0.01    -0.01  -0.01   0.01
  17   1     0.00   0.00  -0.03     0.01   0.00  -0.03     0.00   0.00  -0.02
  18   1     0.07  -0.01  -0.49     0.13   0.03  -0.81     0.05   0.01  -0.11
  19   1    -0.03  -0.03   0.02     0.15   0.03   0.10    -0.82  -0.10  -0.46
  20   1     0.34   0.71  -0.19    -0.22  -0.44   0.15    -0.02  -0.08   0.05
