      -----------------------------------------------------------      
     |                   =====================                   |     
     |                           x T B                           |     
     |                   =====================                   |     
     |                         S. Grimme                         |     
     |          Mulliken Center for Theoretical Chemistry        |     
     |                    University of Bonn                     |     
      -----------------------------------------------------------      

   * xtb version 6.7.1 (edcfbbe) compiled by 'albert@albert-system' on 2024-07-22

   xtb is free software: you can redistribute it and/or modify it under
   the terms of the GNU Lesser General Public License as published by
   the Free Software Foundation, either version 3 of the License, or
   (at your option) any later version.
   
   xtb is distributed in the hope that it will be useful,
   but WITHOUT ANY WARRANTY; without even the implied warranty of
   MERCHANTABILITY or FITNESS FOR A PARTICULAR PURPOSE.  See the
   GNU Lesser General Public License for more details.
   
   Cite this work as:
   * C. Bannwarth, E. Caldeweyher, S. Ehlert, A. Hansen, P. Pracht,
     J. Seibert, S. Spicher, S. Grimme, WIREs Comput. Mol. Sci., 2020, 11,
     e01493. DOI: 10.1002/wcms.1493
   
   for GFN2-xTB:
   * C. Bannwarth, S. Ehlert and S. Grimme., J. Chem. Theory Comput., 2019,
     15, 1652-1671. DOI: 10.1021/acs.jctc.8b01176
   for GFN1-xTB:
   * S. Grimme, C. Bannwarth, P. Shushkov, J. Chem. Theory Comput., 2017,
     13, 1989-2009. DOI: 10.1021/acs.jctc.7b00118
   for GFN0-xTB:
   * P. Pracht, E. Caldeweyher, S. Ehlert, S. Grimme, ChemRxiv, 2019, preprint.
     DOI: 10.26434/chemrxiv.8326202.v1
   for GFN-FF:
   * S. Spicher and S. Grimme, Angew. Chem. Int. Ed., 2020, 59, 15665-15673.
     DOI: 10.1002/anie.202004239
   
   for ALPB and GBSA implicit solvation:
   * S. Ehlert, M. Stahn, S. Spicher, S. Grimme, J. Chem. Theory Comput.,
     2021, 17, 4250-4261. DOI: 10.1021/acs.jctc.1c00471
   
   for ddCOSMO and CPCM-X implicit solvation:
   * M. Stahn, S. Ehlert, S. Grimme, J. Phys. Chem. A,
     2023, XX, XXXX-XXXX. DOI: 10.1021/acs.jpca.3c04382
   
   for DFT-D4:
   * E. Caldeweyher, C. Bannwarth and S. Grimme, J. Chem. Phys., 2017,
     147, 034112. DOI: 10.1063/1.4993215
   * E. Caldeweyher, S. Ehlert, A. Hansen, H. Neugebauer, S. Spicher,
     C. Bannwarth and S. Grimme, J. Chem. Phys., 2019, 150, 154122.
     DOI: 10.1063/1.5090222
   * E. Caldeweyher, J.-M. Mewes, S. Ehlert and S. Grimme, Phys. Chem. Chem. Phys.
     2020, 22, 8499-8512. DOI: 10.1039/D0CP00502A
   
   for sTDA-xTB:
   * S. Grimme and C. Bannwarth, J. Chem. Phys., 2016, 145, 054103.
     DOI: 10.1063/1.4959605
   
   in the mass-spec context:
   * V. Asgeirsson, C. Bauer and S. Grimme, Chem. Sci., 2017, 8, 4879.
     DOI: 10.1039/c7sc00601b
   * J. Koopman and S. Grimme, ACS Omega 2019, 4, 12, 15120-15133.
     DOI: 10.1021/acsomega.9b02011
   
   for metadynamics refer to:
   * S. Grimme, J. Chem. Theory Comput., 2019, 155, 2847-2862
     DOI: 10.1021/acs.jctc.9b00143
   
   for SPH calculations refer to:
   * S. Spicher and S. Grimme, J. Chem. Theory Comput., 2021, 17, 1701-1714
     DOI: 10.1021/acs.jctc.0c01306
   
   for ONIOM refer to:
   * C. Plett, A. Katbashev, S. Ehlert, S. Grimme, M. Bursch,
     Phys. Chem. Chem. Phys., 2023, 25, 17860-17868. DOI: 10.1039/D3CP02178E
   
   for DIPRO refer to:
   * J. Kohn, N. Gildemeister, S. Grimme, D. Fazzi, A. Hansen,
     J. Chem. Phys., 2023, just accepted.
   
   for PTB refer to:
   * S. Grimme, M. Mueller, A. Hansen, J. Chem. Phys., 2023, 158, 124111.
     DOI: 10.1063/5.0137838
   
   with help from (in alphabetical order)
   P. Atkinson, C. Bannwarth, F. Bohle, G. Brandenburg, E. Caldeweyher
   M. Checinski, S. Dohm, S. Ehlert, S. Ehrlich, I. Gerasimov, C. Hölzer
   A. Katbashev, J. Kohn, J. Koopman, C. Lavigne, S. Lehtola, F. März, M. Müller,
   F. Musil, H. Neugebauer, J. Pisarek, C. Plett, P. Pracht, F. Pultar,
   J. Seibert, P. Shushkov, S. Spicher, M. Stahn, M. Steiner, T. Strunk,
   J. Stückrath, T. Rose, and J. Unsleber
   
 * started run on 2025/04/11 at 12:29:47.960     
   ID    Z sym.   atoms
    1    6 C      1-3, 5-7
    2   16 S      4
    3    1 H      8-21

           -------------------------------------------------
          |                Calculation Setup                |
           -------------------------------------------------

          program call               : /srv/scratch/z5358697/.xtb/bin/xtb gas.coord --gfn2 --sp --chrg 0 --norestart --parallel 1
          hostname                   : k075
          coordinate file            : gas.coord
          omp threads                :                     1


           -------------------------------------------------
          |                 G F N 2 - x T B                 |
           -------------------------------------------------

        Reference                      10.1021/acs.jctc.8b01176
      * Hamiltonian:
        H0-scaling (s, p, d)           1.850000    2.230000    2.230000
        zeta-weighting                 0.500000
      * Dispersion:
        s8                             2.700000
        a1                             0.520000
        a2                             5.000000
        s9                             5.000000
      * Repulsion:
        kExp                           1.500000    1.000000
        rExp                           1.000000
      * Coulomb:
        alpha                          2.000000
        third order                    shell-resolved
        anisotropic                    true
        a3                             3.000000
        a5                             4.000000
        cn-shift                       1.200000
        cn-exp                         4.000000
        max-rad                        5.000000


          ...................................................
          :                      SETUP                      :
          :.................................................:
          :  # basis functions                  48          :
          :  # atomic orbitals                  47          :
          :  # shells                           29          :
          :  # electrons                        44          :
          :  max. iterations                   250          :
          :  Hamiltonian                  GFN2-xTB          :
          :  restarted?                      false          :
          :  GBSA solvation                  false          :
          :  PC potential                    false          :
          :  electronic temp.          300.0000000     K    :
          :  accuracy                    1.0000000          :
          :  -> integral cutoff          0.2500000E+02      :
          :  -> integral neglect         0.1000000E-07      :
          :  -> SCF convergence          0.1000000E-05 Eh   :
          :  -> wf. convergence          0.1000000E-03 e    :
          :  Broyden damping             0.4000000          :
          :  net charge                          0          :
          :  unpaired electrons                  0          :
          ...................................................

 iter      E             dE          RMSdq      gap      omega  full diag
   1    -23.4719222 -0.234719E+02  0.342E+00    5.20       0.0  T
   2    -23.5388804 -0.669582E-01  0.197E+00    4.49       1.0  T
   3    -23.5417788 -0.289844E-02  0.857E-01    4.41       1.0  T
   4    -23.5428295 -0.105064E-02  0.317E-01    4.24       1.0  T
   5    -23.5430154 -0.185916E-03  0.136E-01    4.25       1.0  T
   6    -23.5430350 -0.196114E-04  0.294E-02    4.24       1.0  T
   7    -23.5430357 -0.743819E-06  0.518E-03    4.25       4.2  T
   8    -23.5430358 -0.290290E-07  0.172E-03    4.25      12.7  T
   9    -23.5430358 -0.364880E-08  0.703E-04    4.25      31.1  T
  10    -23.5430358 -0.114026E-08  0.339E-04    4.25      64.5  T

   *** convergence criteria satisfied after 10 iterations ***

         #    Occupation            Energy/Eh            Energy/eV
      -------------------------------------------------------------
         1        2.0000           -0.6948779             -18.9086
       ...           ...                  ...                  ...
        16        2.0000           -0.4537524             -12.3472
        17        2.0000           -0.4510626             -12.2740
        18        2.0000           -0.4479817             -12.1902
        19        2.0000           -0.4416456             -12.0178
        20        2.0000           -0.4293920             -11.6844
        21        2.0000           -0.4164028             -11.3309
        22        2.0000           -0.3459754              -9.4145 (HOMO)
        23                         -0.1899243              -5.1681 (LUMO)
        24                         -0.1446222              -3.9354
        25                          0.0047751               0.1299
        26                          0.0112880               0.3072
        27                          0.0173681               0.4726
       ...                                ...                  ...
        47                          0.3995834              10.8732
      -------------------------------------------------------------
                  HL-Gap            0.1560511 Eh            4.2464 eV
             Fermi-level           -0.2679498 Eh           -7.2913 eV

 SCC (total)                   0 d,  0 h,  0 min,  0.015 sec
 SCC setup                      ...        0 min,  0.000 sec (  1.196%)
 Dispersion                     ...        0 min,  0.000 sec (  0.775%)
 classical contributions        ...        0 min,  0.000 sec (  0.168%)
 integral evaluation            ...        0 min,  0.003 sec ( 17.715%)
 iterations                     ...        0 min,  0.006 sec ( 41.558%)
 molecular gradient             ...        0 min,  0.006 sec ( 37.376%)
 printout                       ...        0 min,  0.000 sec (  1.105%)

         :::::::::::::::::::::::::::::::::::::::::::::::::::::
         ::                     SUMMARY                     ::
         :::::::::::::::::::::::::::::::::::::::::::::::::::::
         :: total energy             -23.234347468420 Eh    ::
         :: gradient norm              0.003700895669 Eh/a0 ::
         :: HOMO-LUMO gap              4.246365589598 eV    ::
         ::.................................................::
         :: SCC energy               -23.542969941449 Eh    ::
         :: -> isotropic ES            0.007202692382 Eh    ::
         :: -> anisotropic ES          0.005204171029 Eh    ::
         :: -> anisotropic XC          0.016362758466 Eh    ::
         :: -> dispersion             -0.014347318986 Eh    ::
         :: repulsion energy           0.308622473029 Eh    ::
         :: add. restraining           0.000000000000 Eh    ::
         :: total charge              -0.000000000000 e     ::
         :::::::::::::::::::::::::::::::::::::::::::::::::::::

           -------------------------------------------------
          |                Property Printout                |
           -------------------------------------------------

    * Orbital Energies and Occupations

         #    Occupation            Energy/Eh            Energy/eV
      -------------------------------------------------------------
         1        2.0000           -0.6948779             -18.9086
       ...           ...                  ...                  ...
        10        2.0000           -0.5027670             -13.6810
        11        2.0000           -0.4980410             -13.5524
        12        2.0000           -0.4904346             -13.3454
        13        2.0000           -0.4862418             -13.2313
        14        2.0000           -0.4696644             -12.7802
        15        2.0000           -0.4682090             -12.7406
        16        2.0000           -0.4537524             -12.3472
        17        2.0000           -0.4510626             -12.2740
        18        2.0000           -0.4479817             -12.1902
        19        2.0000           -0.4416456             -12.0178
        20        2.0000           -0.4293920             -11.6844
        21        2.0000           -0.4164028             -11.3309
        22        2.0000           -0.3459754              -9.4145 (HOMO)
        23                         -0.1899243              -5.1681 (LUMO)
        24                         -0.1446222              -3.9354
        25                          0.0047751               0.1299
        26                          0.0112880               0.3072
        27                          0.0173681               0.4726
        28                          0.0853134               2.3215
        29                          0.0981331               2.6703
        30                          0.1139332               3.1003
        31                          0.1465489               3.9878
        32                          0.1538426               4.1863
        33                          0.1552025               4.2233
       ...                                ...                  ...
        47                          0.3995834              10.8732
      -------------------------------------------------------------
                  HL-Gap            0.1560511 Eh            4.2464 eV
             Fermi-level           -0.2679498 Eh           -7.2913 eV

     #   Z          covCN         q      C6AA      α(0)
     1   6 C        3.790    -0.105    22.517     6.758
     2   6 C        3.841     0.043    19.823     6.334
     3   6 C        3.788    -0.104    22.507     6.757
     4  16 S        2.084    -0.242   151.411    20.710
     5   6 C        3.841     0.044    19.807     6.331
     6   6 C        3.783    -0.103    22.477     6.753
     7   6 C        3.802    -0.106    22.516     6.756
     8   1 H        0.925     0.043     2.408     2.427
     9   1 H        0.925     0.048     2.348     2.396
    10   1 H        0.925     0.038     2.482     2.464
    11   1 H        0.924     0.029     2.594     2.519
    12   1 H        0.925     0.043     2.408     2.427
    13   1 H        0.925     0.048     2.351     2.398
    14   1 H        0.925     0.037     2.493     2.469
    15   1 H        0.924     0.028     2.612     2.527
    16   1 H        0.925     0.037     2.489     2.467
    17   1 H        0.925     0.037     2.493     2.469
    18   1 H        0.925     0.048     2.347     2.396
    19   1 H        0.925     0.041     2.442     2.444
    20   1 H        0.925     0.048     2.349     2.397
    21   1 H        0.925     0.049     2.332     2.388

 Mol. C6AA /au·bohr⁶  :       3831.913291
 Mol. C8AA /au·bohr⁸  :      96878.892653
 Mol. α(0) /au        :         94.585509


Wiberg/Mayer (AO) data.
largest (>0.10) Wiberg bond orders for each atom

 ---------------------------------------------------------------------------
     #   Z sym  total        # sym  WBO       # sym  WBO       # sym  WBO
 ---------------------------------------------------------------------------
     1   6 C    3.995 --     2 C    1.017     8 H    0.986     9 H    0.986
                            10 H    0.980
     2   6 C    3.980 --     3 C    1.017     1 C    1.017    11 H    0.966
                             4 S    0.961
     3   6 C    3.995 --     2 C    1.017    12 H    0.986    13 H    0.986
                            14 H    0.981
     4  16 S    2.047 --     5 C    0.963     2 C    0.961
     5   6 C    3.980 --     6 C    1.018     7 C    1.015    15 H    0.968
                             4 S    0.963
     6   6 C    3.996 --     5 C    1.018    18 H    0.986    17 H    0.984
                            16 H    0.980
     7   6 C    3.995 --     5 C    1.015    20 H    0.986    21 H    0.985
                            19 H    0.980
     8   1 H    0.998 --     1 C    0.986
     9   1 H    0.998 --     1 C    0.986
    10   1 H    0.998 --     1 C    0.980
    11   1 H    0.999 --     2 C    0.966
    12   1 H    0.998 --     3 C    0.986
    13   1 H    0.998 --     3 C    0.986
    14   1 H    0.998 --     3 C    0.981
    15   1 H    0.999 --     5 C    0.968
    16   1 H    0.999 --     6 C    0.980
    17   1 H    0.999 --     6 C    0.984
    18   1 H    0.998 --     6 C    0.986
    19   1 H    0.998 --     7 C    0.980
    20   1 H    0.998 --     7 C    0.986
    21   1 H    0.998 --     7 C    0.985
 ---------------------------------------------------------------------------

Topologies differ in total number of bonds
Writing topology from bond orders to xtbtopo.mol

molecular dipole:
                 x           y           z       tot (Debye)
 q only:       -0.061       0.327      -0.350
   full:       -0.078       0.643      -0.630       2.296
molecular quadrupole (traceless):
                xx          xy          yy          xz          yz          zz
 q only:        3.297       0.363      -1.899      -0.332       0.942      -1.398
  q+dip:        3.303       0.184      -1.096      -0.037       1.203      -2.207
   full:        4.099       0.259      -1.779      -0.233       0.928      -2.321


           -------------------------------------------------
          | TOTAL ENERGY              -23.234347468420 Eh   |
          | GRADIENT NORM               0.003700895669 Eh/α |
          | HOMO-LUMO GAP               4.246365589598 eV   |
           -------------------------------------------------

------------------------------------------------------------------------
 * finished run on 2025/04/11 at 12:29:48.016     
------------------------------------------------------------------------
 total:
 * wall-time:     0 d,  0 h,  0 min,  0.055 sec
 *  cpu-time:     0 d,  0 h,  0 min,  0.024 sec
 * ratio c/w:     0.438 speedup
 SCF:
 * wall-time:     0 d,  0 h,  0 min,  0.016 sec
 *  cpu-time:     0 d,  0 h,  0 min,  0.016 sec
 * ratio c/w:     0.991 speedup

