      -----------------------------------------------------------      
     |                   =====================                   |     
     |                           x T B                           |     
     |                   =====================                   |     
     |                         S. Grimme                         |     
     |          Mulliken Center for Theoretical Chemistry        |     
     |                    University of Bonn                     |     
      -----------------------------------------------------------      

   * xtb version 6.7.1 (edcfbbe) compiled by 'albert@albert-system' on 2024-07-22

   xtb is free software: you can redistribute it and/or modify it under
   the terms of the GNU Lesser General Public License as published by
   the Free Software Foundation, either version 3 of the License, or
   (at your option) any later version.
   
   xtb is distributed in the hope that it will be useful,
   but WITHOUT ANY WARRANTY; without even the implied warranty of
   MERCHANTABILITY or FITNESS FOR A PARTICULAR PURPOSE.  See the
   GNU Lesser General Public License for more details.
   
   Cite this work as:
   * C. Bannwarth, E. Caldeweyher, S. Ehlert, A. Hansen, P. Pracht,
     J. Seibert, S. Spicher, S. Grimme, WIREs Comput. Mol. Sci., 2020, 11,
     e01493. DOI: 10.1002/wcms.1493
   
   for GFN2-xTB:
   * C. Bannwarth, S. Ehlert and S. Grimme., J. Chem. Theory Comput., 2019,
     15, 1652-1671. DOI: 10.1021/acs.jctc.8b01176
   for GFN1-xTB:
   * S. Grimme, C. Bannwarth, P. Shushkov, J. Chem. Theory Comput., 2017,
     13, 1989-2009. DOI: 10.1021/acs.jctc.7b00118
   for GFN0-xTB:
   * P. Pracht, E. Caldeweyher, S. Ehlert, S. Grimme, ChemRxiv, 2019, preprint.
     DOI: 10.26434/chemrxiv.8326202.v1
   for GFN-FF:
   * S. Spicher and S. Grimme, Angew. Chem. Int. Ed., 2020, 59, 15665-15673.
     DOI: 10.1002/anie.202004239
   
   for ALPB and GBSA implicit solvation:
   * S. Ehlert, M. Stahn, S. Spicher, S. Grimme, J. Chem. Theory Comput.,
     2021, 17, 4250-4261. DOI: 10.1021/acs.jctc.1c00471
   
   for ddCOSMO and CPCM-X implicit solvation:
   * M. Stahn, S. Ehlert, S. Grimme, J. Phys. Chem. A,
     2023, XX, XXXX-XXXX. DOI: 10.1021/acs.jpca.3c04382
   
   for DFT-D4:
   * E. Caldeweyher, C. Bannwarth and S. Grimme, J. Chem. Phys., 2017,
     147, 034112. DOI: 10.1063/1.4993215
   * E. Caldeweyher, S. Ehlert, A. Hansen, H. Neugebauer, S. Spicher,
     C. Bannwarth and S. Grimme, J. Chem. Phys., 2019, 150, 154122.
     DOI: 10.1063/1.5090222
   * E. Caldeweyher, J.-M. Mewes, S. Ehlert and S. Grimme, Phys. Chem. Chem. Phys.
     2020, 22, 8499-8512. DOI: 10.1039/D0CP00502A
   
   for sTDA-xTB:
   * S. Grimme and C. Bannwarth, J. Chem. Phys., 2016, 145, 054103.
     DOI: 10.1063/1.4959605
   
   in the mass-spec context:
   * V. Asgeirsson, C. Bauer and S. Grimme, Chem. Sci., 2017, 8, 4879.
     DOI: 10.1039/c7sc00601b
   * J. Koopman and S. Grimme, ACS Omega 2019, 4, 12, 15120-15133.
     DOI: 10.1021/acsomega.9b02011
   
   for metadynamics refer to:
   * S. Grimme, J. Chem. Theory Comput., 2019, 155, 2847-2862
     DOI: 10.1021/acs.jctc.9b00143
   
   for SPH calculations refer to:
   * S. Spicher and S. Grimme, J. Chem. Theory Comput., 2021, 17, 1701-1714
     DOI: 10.1021/acs.jctc.0c01306
   
   for ONIOM refer to:
   * C. Plett, A. Katbashev, S. Ehlert, S. Grimme, M. Bursch,
     Phys. Chem. Chem. Phys., 2023, 25, 17860-17868. DOI: 10.1039/D3CP02178E
   
   for DIPRO refer to:
   * J. Kohn, N. Gildemeister, S. Grimme, D. Fazzi, A. Hansen,
     J. Chem. Phys., 2023, just accepted.
   
   for PTB refer to:
   * S. Grimme, M. Mueller, A. Hansen, J. Chem. Phys., 2023, 158, 124111.
     DOI: 10.1063/5.0137838
   
   with help from (in alphabetical order)
   P. Atkinson, C. Bannwarth, F. Bohle, G. Brandenburg, E. Caldeweyher
   M. Checinski, S. Dohm, S. Ehlert, S. Ehrlich, I. Gerasimov, C. Hölzer
   A. Katbashev, J. Kohn, J. Koopman, C. Lavigne, S. Lehtola, F. März, M. Müller,
   F. Musil, H. Neugebauer, J. Pisarek, C. Plett, P. Pracht, F. Pultar,
   J. Seibert, P. Shushkov, S. Spicher, M. Stahn, M. Steiner, T. Strunk,
   J. Stückrath, T. Rose, and J. Unsleber
   
 * started run on 2025/04/11 at 16:44:05.171     
   ID    Z sym.   atoms
    1    6 C      1-4, 7, 8
    2    8 O      5, 6
    3    1 H      9-20

           -------------------------------------------------
          |                Calculation Setup                |
           -------------------------------------------------

          program call               : /srv/scratch/z5358697/.xtb/bin/xtb xtb_rrho.coord --gfn2 --bhess vtight --chrg 0 --enso --norestart -I rrho-xcontrol-inp --parallel 1 --alpb water
          hostname                   : k061
          coordinate file            : xtb_rrho.coord
          omp threads                :                     1


           -------------------------------------------------
          |                 G F N 2 - x T B                 |
           -------------------------------------------------

        Reference                      10.1021/acs.jctc.8b01176
      * Hamiltonian:
        H0-scaling (s, p, d)           1.850000    2.230000    2.230000
        zeta-weighting                 0.500000
      * Dispersion:
        s8                             2.700000
        a1                             0.520000
        a2                             5.000000
        s9                             5.000000
      * Repulsion:
        kExp                           1.500000    1.000000
        rExp                           1.000000
      * Coulomb:
        alpha                          2.000000
        third order                    shell-resolved
        anisotropic                    true
        a3                             3.000000
        a5                             4.000000
        cn-shift                       1.200000
        cn-exp                         4.000000
        max-rad                        5.000000

      * Solvation model:               ALPB
        Solvent                        water
        Parameter file                 internal GFN2-xTB/ALPB
        Dielectric constant                8.0200E+01
        Reference state                gsolv [1 M gas/solution]
        Free energy shift                  1.0808E-03 Eh       6.7819E-01 kcal/mol
        Temperature                        2.9815E+02 K
        Density                            1.0000E+00 kg/L
        Solvent mass                       1.8000E+01 g/mol
        Interaction kernel             P16
        Born radius scaling (c1)           1.4744E+00
        Born radii integrator          GBOBC
        Born offset                        0.0000E+00 a0       0.0000E+00 AA
        H-bond correction              true
        Ion screening                  false
        Surface tension                    1.0000E-05 Eh       1.5569E+01 dyn/cm
        Grid points                               974 per atom

          ...................................................
          :                      SETUP                      :
          :.................................................:
          :  # basis functions                  44          :
          :  # atomic orbitals                  44          :
          :  # shells                           28          :
          :  # electrons                        48          :
          :  max. iterations                   250          :
          :  Hamiltonian                  GFN2-xTB          :
          :  restarted?                      false          :
          :  GBSA solvation                   true          :
          :  PC potential                    false          :
          :  electronic temp.          300.0000000     K    :
          :  accuracy                    1.0000000          :
          :  -> integral cutoff          0.2500000E+02      :
          :  -> integral neglect         0.1000000E-07      :
          :  -> SCF convergence          0.1000000E-05 Eh   :
          :  -> wf. convergence          0.1000000E-03 e    :
          :  Broyden damping             0.4000000          :
          :  net charge                          0          :
          :  unpaired electrons                  0          :
          ...................................................

 iter      E             dE          RMSdq      gap      omega  full diag
   1    -27.3575696 -0.273576E+02  0.407E+00    5.63       0.0  T
   2    -27.4214035 -0.638339E-01  0.201E+00    4.68       1.0  T
   3    -27.4232961 -0.189262E-02  0.105E+00    5.02       1.0  T
   4    -27.4248977 -0.160162E-02  0.170E-01    4.77       1.0  T
   5    -27.4251311 -0.233440E-03  0.706E-02    4.83       1.0  T
   6    -27.4251331 -0.193658E-05  0.226E-02    4.83       1.0  T
   7    -27.4251341 -0.104906E-05  0.409E-03    4.83       5.5  T
   8    -27.4251341 -0.235105E-07  0.228E-03    4.83       9.8  T
   9    -27.4251341 -0.821263E-08  0.355E-04    4.83      62.9  T
  10    -27.4251341 -0.289639E-09  0.196E-04    4.83     114.0  T

   *** convergence criteria satisfied after 10 iterations ***

         #    Occupation            Energy/Eh            Energy/eV
      -------------------------------------------------------------
         1        2.0000           -0.7454767             -20.2855
       ...           ...                  ...                  ...
        18        2.0000           -0.4675299             -12.7221
        19        2.0000           -0.4659356             -12.6788
        20        2.0000           -0.4627248             -12.5914
        21        2.0000           -0.4452323             -12.1154
        22        2.0000           -0.4397150             -11.9653
        23        2.0000           -0.4320180             -11.7558
        24        2.0000           -0.4232500             -11.5172 (HOMO)
        25                         -0.2458294              -6.6894 (LUMO)
        26                         -0.0251402              -0.6841
        27                          0.0911586               2.4806
        28                          0.1052718               2.8646
        29                          0.1155257               3.1436
       ...                                ...                  ...
        44                          0.5809550              15.8086
      -------------------------------------------------------------
                  HL-Gap            0.1774206 Eh            4.8279 eV
             Fermi-level           -0.3345397 Eh           -9.1033 eV

 SCC (total)                   0 d,  0 h,  0 min,  0.087 sec
 SCC setup                      ...        0 min,  0.002 sec (  2.028%)
 Dispersion                     ...        0 min,  0.000 sec (  0.168%)
 classical contributions        ...        0 min,  0.000 sec (  0.034%)
 integral evaluation            ...        0 min,  0.002 sec (  2.624%)
 iterations                     ...        0 min,  0.078 sec ( 89.740%)
 molecular gradient             ...        0 min,  0.005 sec (  5.230%)
 printout                       ...        0 min,  0.000 sec (  0.155%)

         :::::::::::::::::::::::::::::::::::::::::::::::::::::
         ::                     SUMMARY                     ::
         :::::::::::::::::::::::::::::::::::::::::::::::::::::
         :: total energy             -27.120913322005 Eh    ::
         :: total w/o Gsasa/hb       -27.120993266965 Eh    ::
         :: gradient norm              0.035384948990 Eh/a0 ::
         :: HOMO-LUMO gap              4.827860490857 eV    ::
         ::.................................................::
         :: SCC energy               -27.425134403958 Eh    ::
         :: -> isotropic ES            0.059386859623 Eh    ::
         :: -> anisotropic ES          0.001025202987 Eh    ::
         :: -> anisotropic XC          0.008934959981 Eh    ::
         :: -> dispersion             -0.011016953461 Eh    ::
         :: -> Gsolv                  -0.009183783599 Eh    ::
         ::    -> Gelec               -0.009263728558 Eh    ::
         ::    -> Gsasa                0.001282485669 Eh    ::
         ::    -> Ghb                 -0.002283300407 Eh    ::
         ::    -> Gshift               0.001080759698 Eh    ::
         :: repulsion energy           0.304221081953 Eh    ::
         :: add. restraining           0.000000000000 Eh    ::
         :: total charge              -0.000000000000 e     ::
         :::::::::::::::::::::::::::::::::::::::::::::::::::::

metadynamics with 1 initial structures loaded
           -------------------------------------------------
          |           Optimal kpush determination           |
           -------------------------------------------------
      ----------------------------------------------------------- 
     |                   =====================                   |
     |                        A N C O P T                        |
     |                   =====================                   |
     |               Approximate Normal Coordinate               |
     |                Rational Function Optimizer                |
      ----------------------------------------------------------- 
target rmsd / Å         0.100000
unbiased initial rmsd   0.075948
 
iter. min.        max.        rmsd       kpush
final kpush:  0.000000
           -------------------------------------------------
          |            Biased Numerical Hessian             |
           -------------------------------------------------
kpush                :   0.00000
alpha                :   1.00000
step length          :   0.00500
SCC accuracy         :   0.30000
Hessian scale factor :   1.00000
frozen atoms in %    :   0.00000    0
RMS gradient         :   0.00015
estimated CPU  time      0.02 min
estimated wall time      0.02 min

writing file <hessian>.

 projected vibrational frequencies (cm⁻¹)
eigval :       -0.00    -0.00    -0.00     0.00     0.00     0.00
eigval :       15.10    27.21    75.10   106.42   173.36   188.15
eigval :      233.60   252.63   317.62   353.74   408.98   627.11
eigval :      719.58   788.97   819.84   877.30   914.42   929.83
eigval :      987.35  1056.60  1074.52  1088.26  1105.17  1120.00
eigval :     1137.33  1200.28  1228.30  1233.62  1256.58  1266.38
eigval :     1319.43  1337.39  1395.42  1408.59  1437.74  1462.91
eigval :     1465.62  1480.87  1486.38  1492.30  1495.16  1695.61
eigval :     2926.34  2948.04  2972.33  2987.38  3006.05  3011.78
eigval :     3039.31  3042.05  3048.69  3055.86  3058.87  3065.23
           -------------------------------------------------
          |                Property Printout                |
           -------------------------------------------------

    * Orbital Energies and Occupations

         #    Occupation            Energy/Eh            Energy/eV
      -------------------------------------------------------------
         1        2.0000           -0.7505903             -20.4246
       ...           ...                  ...                  ...
        12        2.0000           -0.5257261             -14.3057
        13        2.0000           -0.5172006             -14.0737
        14        2.0000           -0.5052255             -13.7479
        15        2.0000           -0.4866032             -13.2411
        16        2.0000           -0.4815195             -13.1028
        17        2.0000           -0.4736281             -12.8881
        18        2.0000           -0.4675064             -12.7215
        19        2.0000           -0.4658484             -12.6764
        20        2.0000           -0.4629510             -12.5975
        21        2.0000           -0.4449671             -12.1082
        22        2.0000           -0.4392706             -11.9532
        23        2.0000           -0.4324216             -11.7668
        24        2.0000           -0.4214317             -11.4677 (HOMO)
        25                         -0.2399091              -6.5283 (LUMO)
        26                         -0.0047292              -0.1287
        27                          0.0996732               2.7122
        28                          0.1075157               2.9257
        29                          0.1145728               3.1177
        30                          0.1351496               3.6776
        31                          0.1462131               3.9787
        32                          0.1498844               4.0786
        33                          0.1540638               4.1923
        34                          0.1649199               4.4877
        35                          0.1807621               4.9188
       ...                                ...                  ...
        44                          0.6111623              16.6306
      -------------------------------------------------------------
                  HL-Gap            0.1815226 Eh            4.9395 eV
             Fermi-level           -0.3306704 Eh           -8.9980 eV

     #   Z          covCN         q      C6AA      α(0)
     1   6 C        3.753    -0.119    22.838     6.815
     2   6 C        3.803    -0.049    21.451     6.594
     3   6 C        3.805    -0.100    22.406     6.739
     4   6 C        2.717     0.363    20.837     7.472
     5   8 O        0.856    -0.494    23.645     6.519
     6   8 O        1.704    -0.267    18.430     5.796
     7   6 C        3.696     0.077    19.452     6.309
     8   6 C        3.752    -0.134    23.138     6.860
     9   1 H        0.925     0.052     2.301     2.372
    10   1 H        0.925     0.048     2.348     2.396
    11   1 H        0.925     0.051     2.307     2.375
    12   1 H        0.924     0.046     2.369     2.407
    13   1 H        0.924     0.040     2.453     2.449
    14   1 H        0.925     0.076     2.018     2.221
    15   1 H        0.925     0.082     1.959     2.189
    16   1 H        0.924     0.056     2.250     2.346
    17   1 H        0.924     0.056     2.241     2.341
    18   1 H        0.925     0.070     2.084     2.258
    19   1 H        0.925     0.073     2.048     2.238
    20   1 H        0.925     0.072     2.064     2.247

 Mol. C6AA /au·bohr⁶  :       2997.335219
 Mol. C8AA /au·bohr⁸  :      63830.604580
 Mol. α(0) /au        :         80.942720


Wiberg/Mayer (AO) data.
largest (>0.10) Wiberg bond orders for each atom

 ---------------------------------------------------------------------------
     #   Z sym  total        # sym  WBO       # sym  WBO       # sym  WBO
 ---------------------------------------------------------------------------
     1   6 C    3.993 --     2 C    1.017    10 H    0.987    11 H    0.987
                             9 H    0.984
     2   6 C    3.992 --     1 C    1.017    13 H    0.979    12 H    0.978
                             3 C    0.974
     3   6 C    3.987 --     4 C    0.979     2 C    0.974    14 H    0.968
                            15 H    0.966
     4   6 C    3.904 --     5 O    1.689     6 O    1.172     3 C    0.979
     5   8 O    1.965 --     4 C    1.689     6 O    0.171
     6   8 O    2.320 --     4 C    1.172     7 C    0.918     5 O    0.171
     7   6 C    3.913 --     8 C    1.020    16 H    0.969    17 H    0.969
                             6 O    0.918
     8   6 C    3.984 --     7 C    1.020    18 H    0.984    20 H    0.983
                            19 H    0.980
     9   1 H    0.996 --     1 C    0.984
    10   1 H    0.998 --     1 C    0.987
    11   1 H    0.997 --     1 C    0.987
    12   1 H    0.998 --     2 C    0.978
    13   1 H    0.998 --     2 C    0.979
    14   1 H    0.994 --     3 C    0.968
    15   1 H    0.993 --     3 C    0.966
    16   1 H    0.997 --     7 C    0.969
    17   1 H    0.997 --     7 C    0.969
    18   1 H    0.995 --     8 C    0.984
    19   1 H    0.994 --     8 C    0.980
    20   1 H    0.995 --     8 C    0.983
 ---------------------------------------------------------------------------

Topologies differ in total number of bonds
Writing topology from bond orders to xtbtopo.mol

molecular dipole:
                 x           y           z       tot (Debye)
 q only:        0.185      -1.361       0.122
   full:        0.185      -1.283       0.109       3.307
molecular quadrupole (traceless):
                xx          xy          yy          xz          yz          zz
 q only:       11.328      -0.387      -9.638       1.761       0.671      -1.690
  q+dip:        8.809      -0.375      -9.699       1.297       0.770       0.890
   full:        9.399      -0.160     -10.357       1.212       0.722       0.959

           -------------------------------------------------
          |                Geometry Summary                 |
           -------------------------------------------------

      molecular mass/u    :      116.1585142
   center of mass at/Å    :       -0.0005375       0.0084076       0.0006121
  moments of inertia/u·Å² :        0.1251039E+03   0.5369439E+03   0.6180513E+03
rotational constants/cm⁻¹ :        0.1347490E+00   0.3139552E-01   0.2727546E-01

 * 18 selected distances

     #   Z          #   Z                                           value/Å
     1   6 C        2   6 C                                       1.5232550
     2   6 C        3   6 C                                       1.5363502 (max)
     4   6 C        5   8 O                                       1.2148041
     4   6 C        6   8 O                                       1.3245993
     6   8 O        7   6 C                                       1.4378343
     7   6 C        8   6 C                                       1.5163045
     1   6 C        9   1 H                                       1.0865105
     1   6 C       10   1 H                                       1.0869044
     1   6 C       11   1 H                                       1.0867977
     2   6 C       12   1 H                                       1.0915406
     2   6 C       13   1 H                                       1.0921092
     3   6 C       14   1 H                                       1.0895775
     3   6 C       15   1 H                                       1.0891272
     7   6 C       16   1 H                                       1.0949929
     7   6 C       17   1 H                                       1.0949314
     8   6 C       18   1 H                                       1.0859562
     8   6 C       19   1 H                                       1.0849151 (min)
     8   6 C       20   1 H                                       1.0858605

 * 3 distinct bonds (by element types)

   Z      Z             #   av. dist./Å        max./Å        min./Å
   1 H    6 C          12     1.0891019     1.0949929     1.0849151
   6 C    6 C           3     1.5253033     1.5363502     1.5163045
   6 C    8 O           3     1.3257459     1.4378343     1.2148041

           -------------------------------------------------
          |               Frequency Printout                |
           -------------------------------------------------
 projected vibrational frequencies (cm⁻¹)
eigval :       -0.00    -0.00    -0.00     0.00     0.00     0.00
eigval :       15.10    27.21    75.10   106.42   173.36   188.15
eigval :      233.60   252.63   317.62   353.74   408.98   627.11
eigval :      719.58   788.97   819.84   877.30   914.42   929.83
eigval :      987.35  1056.60  1074.52  1088.26  1105.17  1120.00
eigval :     1137.33  1200.28  1228.30  1233.62  1256.58  1266.38
eigval :     1319.43  1337.39  1395.42  1408.59  1437.74  1462.91
eigval :     1465.62  1480.87  1486.38  1492.30  1495.16  1695.61
eigval :     2926.34  2948.04  2972.33  2987.38  3006.05  3011.78
eigval :     3039.31  3042.05  3048.69  3055.86  3058.87  3065.23
 reduced masses (amu)
   1: 11.57   2: 11.26   3: 11.35   4: 11.83   5: 11.21   6: 10.32   7:  8.27   8: 11.38
   9:  6.76  10:  8.46  11: 10.69  12:  4.54  13:  2.00  14:  9.61  15:  9.42  16: 11.11
  17:  9.93  18: 11.42  19: 12.03  20:  2.32  21:  2.20  22:  7.06  23:  5.62  24:  6.96
  25: 11.23  26:  5.69  27:  9.20  28:  8.88  29:  7.45  30:  8.25  31:  5.16  32:  8.30
  33:  6.48  34:  2.66  35:  4.44  36:  2.21  37:  3.90  38:  4.61  39:  3.34  40:  3.14
  41:  2.20  42:  1.52  43:  1.88  44:  1.57  45:  1.88  46:  1.53  47:  1.58  48: 13.32
  49:  1.99  50:  1.46  51:  1.95  52:  1.49  53:  1.48  54:  2.03  55:  1.96  56:  1.89
  57:  1.31  58:  1.94  59:  1.41  60:  1.83
 IR intensities (km·mol⁻¹)
   1:  0.41   2:  0.85   3:  0.01   4:  1.93   5:  0.95   6:  0.29   7:  0.29   8:  2.84
   9:  0.15  10:  0.26  11:  8.03  12:  2.07  13:  0.11  14:  6.36  15:  3.66  16: 12.80
  17:  1.21  18: 22.93  19: 20.29  20:  6.85  21:  3.44  22: 15.69  23:  3.39  24:  0.55
  25:  6.95  26: 17.38  27:132.34  28:  1.38  29: 43.87  30: 33.53  31: 13.90  32:245.49
  33:190.58  34: 19.04  35: 52.30  36: 15.42  37:  5.07  38: 19.75  39:  8.37  40:  1.31
  41:  6.47  42:  5.19  43:  0.68  44:  3.98  45:  1.14  46:  2.42  47:  1.22  48:674.50
  49: 39.46  50: 37.76  51: 48.26  52: 33.68  53: 19.05  54: 37.07  55: 70.03  56: 61.84
  57: 34.49  58: 30.29  59: 19.65  60: 23.21
 Raman intensities (Ä⁴*amu⁻¹)
   1:  0.00   2:  0.00   3:  0.00   4:  0.00   5:  0.00   6:  0.00   7:  0.00   8:  0.00
   9:  0.00  10:  0.00  11:  0.00  12:  0.00  13:  0.00  14:  0.00  15:  0.00  16:  0.00
  17:  0.00  18:  0.00  19:  0.00  20:  0.00  21:  0.00  22:  0.00  23:  0.00  24:  0.00
  25:  0.00  26:  0.00  27:  0.00  28:  0.00  29:  0.00  30:  0.00  31:  0.00  32:  0.00
  33:  0.00  34:  0.00  35:  0.00  36:  0.00  37:  0.00  38:  0.00  39:  0.00  40:  0.00
  41:  0.00  42:  0.00  43:  0.00  44:  0.00  45:  0.00  46:  0.00  47:  0.00  48:  0.00
  49:  0.00  50:  0.00  51:  0.00  52:  0.00  53:  0.00  54:  0.00  55:  0.00  56:  0.00
  57:  0.00  58:  0.00  59:  0.00  60:  0.00
 output can be read by thermo (or use thermo option).
 writing <g98.out> molden fake output.
 recommended (thermochemical) frequency scaling factor: 1.0
           -------------------------------------------------
          |             Thermodynamic Functions             |
           -------------------------------------------------

Molecule has no symmetry elements
It seems to be the C1 point group
c1  symmetry found (for desy threshold:  0.10E+00) used in thermo

          ...................................................
          :                      SETUP                      :
          :.................................................:
          :  # frequencies                          54      :
          :  # imaginary freq.                       0      :
          :  linear?                             false      :
          :  only rotor calc.                    false      :
          :  symmetry                               c1      :
          :  rotational number                       1      :
          :  scaling factor                  1.0000000      :
          :  rotor cutoff                    0.0000000 cm⁻¹ :
          :  imag. cutoff                 -100.0000000 cm⁻¹ :
          :.................................................:

    mode    ω/cm⁻¹     T·S(HO)/kcal·mol⁻¹    T·S(FR)/kcal·mol⁻¹   T·S(vib)
   ------------------------------------------------------------------------
       1     15.10    -2.14440 (100.00%)    -1.41048 (  0.00%)    -2.14440
       2     27.21    -1.79570 (100.00%)    -1.23632 (  0.00%)    -1.79570
       3     75.10    -1.19705 (100.00%)    -0.93587 (  0.00%)    -1.19705
       4    106.42    -0.99381 (100.00%)    -0.83268 (  0.00%)    -0.99381
       5    173.36    -0.71519 (100.00%)    -0.68815 (  0.00%)    -0.71519
       6    188.15    -0.66965 (100.00%)    -0.66391 (  0.00%)    -0.66965
       7    233.60    -0.55191 (100.00%)    -0.59982 (  0.00%)    -0.55191
       8    252.63    -0.51048 (100.00%)    -0.57662 (  0.00%)    -0.51048
   ------------------------------------------------------------------------

   temp. (K)  partition function   enthalpy   heat capacity  entropy
                                   cal/mol     cal/K/mol   cal/K/mol   J/K/mol
 298.15  VIB  0.133E+05             4665.079     28.444     34.519
         ROT  0.492E+06              888.752      2.981     29.027
         INT  0.656E+10             5553.831     31.425     63.547
         TR   0.121E+28             1481.254      4.968     40.146
         TOT                        7035.0851    36.3927   103.6930   433.8514

       T/K    H(0)-H(T)+PV         H(T)/Eh          T*S/Eh         G(T)/Eh
   ------------------------------------------------------------------------
    298.15    0.112111E-01    0.182581E+00    0.492679E-01    0.133313E+00
   ------------------------------------------------------------------------

         :::::::::::::::::::::::::::::::::::::::::::::::::::::
         ::                  THERMODYNAMIC                  ::
         :::::::::::::::::::::::::::::::::::::::::::::::::::::
         :: total free energy         -26.988974389609 Eh   ::
         ::.................................................::
         :: total energy              -27.122287532655 Eh   ::
         :: zero point energy           0.171369900511 Eh   ::
         :: G(RRHO) w/o ZPVE           -0.038056757465 Eh   ::
         :: G(RRHO) contrib.            0.133313143046 Eh   ::
         :::::::::::::::::::::::::::::::::::::::::::::::::::::

optimized geometry written to: xtbopt.coord


           -------------------------------------------------
          | TOTAL ENERGY              -27.122287532655 Eh   |
          | TOTAL ENTHALPY            -26.939706510381 Eh   |
          | TOTAL FREE ENERGY         -26.988974389609 Eh   |
          | GRADIENT NORM               0.000145942805 Eh/α |
          | HOMO-LUMO GAP               4.939480538443 eV   |
           -------------------------------------------------

------------------------------------------------------------------------
 * finished run on 2025/04/11 at 16:44:06.739     
------------------------------------------------------------------------
 total:
 * wall-time:     0 d,  0 h,  0 min,  1.568 sec
 *  cpu-time:     0 d,  0 h,  0 min,  1.384 sec
 * ratio c/w:     0.883 speedup
 SCF:
 * wall-time:     0 d,  0 h,  0 min,  0.087 sec
 *  cpu-time:     0 d,  0 h,  0 min,  0.015 sec
 * ratio c/w:     0.176 speedup
 analytical hessian:
 * wall-time:     0 d,  0 h,  0 min,  1.147 sec
 *  cpu-time:     0 d,  0 h,  0 min,  1.129 sec
 * ratio c/w:     0.984 speedup

