20
 energy: -386.243330171839 gnorm: 0.001211298545 xtb: 6.7.1 (edcfbbe)
C           -2.81596389665799        0.83650620972759        0.66971227347718
C           -2.51749216521936       -0.29589097156159       -0.30916508430623
C           -1.19928861487258       -1.00324432559443        0.00700786399107
C           -0.00440599662017       -0.10788478310776       -0.17772771330561
O            0.10897445515654        0.72069638149841       -1.06697490241672
O            0.94839153694739       -0.34188389597553        0.74588796339040
C            2.20589686836448        0.39369905713751        0.60767740395289
C            3.11466454968274       -0.28184205024680       -0.39405362120906
H           -3.76568231051552        1.32482663718654        0.42958488301182
H           -2.88079633924320        0.45892117452009        1.69624819651460
H           -2.03205548926569        1.60235405922506        0.64255251797642
H           -2.48637796981271        0.08820892631436       -1.33460460798456
H           -3.31946473590170       -1.04068036021270       -0.27351519194955
H           -1.04652586116130       -1.84881271525583       -0.67738706803551
H           -1.19893458910335       -1.40731953328114        1.02320421687876
H            1.98199158771159        1.42718144603941        0.33176795749885
H            2.63274016787179        0.37470103342639        1.61212645492656
H            2.67513743210249       -0.27956923534557       -1.39541354031354
H            4.06595532336590        0.25825936927421       -0.43529633086792
H            3.31862106500254       -1.31487110190401       -0.09700126012607
20
 energy: -386.243332759714 gnorm: 0.000617546279 xtb: 6.7.1 (edcfbbe)
C           -2.81631265387261        0.83649550722991        0.66934946530887
C           -2.51768437480177       -0.29521564512418       -0.30963980179960
C           -1.20008184227030       -1.00269531400512        0.00773146777064
C           -0.00496742934445       -0.10803799807461       -0.17643559050337
O            0.11003421106054        0.71901765419357       -1.06647544081845
O            0.94848319262252       -0.34330972615216        0.74662028005625
C            2.20623980249789        0.39297995080297        0.60699690090714
C            3.11539158387579       -0.28122513250628       -0.39456622992069
H           -3.76614494731156        1.32431093523672        0.43012088626617
H           -2.88011507965084        0.45796432388900        1.69528954398867
H           -2.03272393894027        1.60221709751515        0.64202729121540
H           -2.48627577526412        0.08912141005269       -1.33478124943304
H           -3.31981558761900       -1.03985944751051       -0.27387862596254
H           -1.04699220112285       -1.84909084662066       -0.67567752565171
H           -1.20144979759992       -1.40600611127005        1.02417499742207
H            1.98050405314741        1.42595557376338        0.33112171347569
H            2.63357778248395        0.37408427910118        1.61123407654029
H            2.67745733399510       -0.27862786534980       -1.39632075720110
H            4.06634269605462        0.25922620499265       -0.43426380433252
H            3.31991804224881       -1.31394963965429       -0.09799655888445
20
 energy: -386.243332759714 gnorm: 0.000617546279 xtb: 6.7.1 (edcfbbe)
C           -2.81631265387261        0.83649550722991        0.66934946530887
C           -2.51768437480177       -0.29521564512418       -0.30963980179960
C           -1.20008184227030       -1.00269531400512        0.00773146777064
C           -0.00496742934445       -0.10803799807461       -0.17643559050337
O            0.11003421106054        0.71901765419357       -1.06647544081845
O            0.94848319262252       -0.34330972615216        0.74662028005625
C            2.20623980249789        0.39297995080297        0.60699690090714
C            3.11539158387579       -0.28122513250628       -0.39456622992069
H           -3.76614494731156        1.32431093523672        0.43012088626617
H           -2.88011507965084        0.45796432388900        1.69528954398867
H           -2.03272393894027        1.60221709751515        0.64202729121540
H           -2.48627577526412        0.08912141005269       -1.33478124943304
H           -3.31981558761900       -1.03985944751051       -0.27387862596254
H           -1.04699220112285       -1.84909084662066       -0.67567752565171
H           -1.20144979759992       -1.40600611127005        1.02417499742207
H            1.98050405314741        1.42595557376338        0.33112171347569
H            2.63357778248395        0.37408427910118        1.61123407654029
H            2.67745733399510       -0.27862786534980       -1.39632075720110
H            4.06634269605462        0.25922620499265       -0.43426380433252
H            3.31991804224881       -1.31394963965429       -0.09799655888445
