20
 energy: -27.121357256232 gnorm: 0.033715258874 xtb: 6.7.1 (edcfbbe)
C           -2.84159630415920       -1.10391768220323       -0.13445807648544
C           -2.52230565340942        0.38661686944986       -0.06131568349838
C           -1.21775255146873        0.66626980543261        0.68268147407865
C           -0.00378031639128        0.15951691672528       -0.04720185776134
O            0.10784680579140        0.10891195914305       -1.26124941563263
O            0.97342541271215       -0.20936865520099        0.80516905359327
C            2.25279807307576       -0.61388275226541        0.21885306483078
C            3.09863438605756        0.59458416565999       -0.11038590110927
H           -2.94052541158075       -1.53068581514836        0.86960626665982
H           -3.77987610299646       -1.27997901106374       -0.66946863634177
H           -2.05189279959399       -1.65538271351752       -0.65711655536770
H           -3.32918294911688        0.91315263412758        0.45923777665652
H           -2.46457405292596        0.81205745086515       -1.06903716547293
H           -1.23658817823101        0.24415027654474        1.69171160245673
H           -1.06421190565115        1.74868029902978        0.79406962558066
H            2.71466552836335       -1.22621128665394        0.99552317650073
H            2.05762784737662       -1.23380554984346       -0.65957467613343
H            4.06975299192899        0.25861826430229       -0.48760640441619
H            2.62784106324013        1.21403862511318       -0.87846900708490
H            3.26968610182641        1.20264324680193        0.78263382135205
20
 energy: -27.122562212933 gnorm: 0.013862908494 xtb: 6.7.1 (edcfbbe)
C           -2.83568654987868       -1.10064952143076       -0.12949143892499
C           -2.52035440301722        0.38663060748527       -0.05877413105915
C           -1.21422561519302        0.66103559817761        0.68447854524344
C           -0.00214897677600        0.15955746427806       -0.05294107246184
O            0.10840205931465        0.10516651019708       -1.25946227864849
O            0.96935194336672       -0.20513045046187        0.79116234685120
C            2.24288463442177       -0.60939705266380        0.22356423984724
C            3.10147347706302        0.59305252963785       -0.10993078287526
H           -2.93232660918133       -1.52278984304659        0.87050700602170
H           -3.76905002412701       -1.26741393207703       -0.66458065122220
H           -2.04426315059005       -1.63608044194134       -0.65440781230401
H           -3.33111973477029        0.90547221320625        0.45806296608031
H           -2.44874307390695        0.79512368208338       -1.07003476362685
H           -1.22495011023413        0.22714979351606        1.68596424622896
H           -1.07187467116145        1.74174427383382        0.79292297558296
H            2.69757395741067       -1.22268976276345        1.00296151746562
H            2.04337754258058       -1.21503258944865       -0.66423466295435
H            4.06601312889559        0.25601143471820       -0.48518836533577
H            2.62437949184338        1.20289828680432       -0.87550638578898
H            3.26127866878728        1.20134824719438        0.77853098428571
20
 energy: -27.122820951759 gnorm: 0.004302156754 xtb: 6.7.1 (edcfbbe)
C           -2.83014866446176       -1.10206155425819       -0.12649658033827
C           -2.51651964265031        0.38662290725321       -0.05778180354866
C           -1.21164527161471        0.66174998681692        0.68862795500582
C           -0.00214854144954        0.16405067731342       -0.05852395843633
O            0.10515900090966        0.10718329582215       -1.26369749620916
O            0.96608254257177       -0.19536778538331        0.78037272494024
C            2.23069745190171       -0.60740910734785        0.22552488058402
C            3.10088820325330        0.59220472192581       -0.10842423995392
H           -2.92372832337725       -1.52133924217159        0.87179244184162
H           -3.76171356969605       -1.26668084239787       -0.66003419087256
H           -2.03786250542531       -1.62997084831177       -0.65215748671474
H           -3.32791928082121        0.90618468986663        0.45286724060168
H           -2.43269899650711        0.78592210591051       -1.07020025185834
H           -1.21553262091770        0.21442452019596        1.68262866163564
H           -1.07605296788986        1.74061326852963        0.80080182518732
H            2.67994773341384       -1.22222398810232        1.00570024512819
H            2.03427296475852       -1.20524506837833       -0.66931241749963
H            4.06093776709848        0.24920831357355       -0.47894531920193
H            2.62341376891488        1.19600546958792       -0.87632905744810
H            3.25456293683617        1.20213552685431        0.77718930956234
20
 energy: -27.122856711372 gnorm: 0.001669606534 xtb: 6.7.1 (edcfbbe)
C           -2.82747436235094       -1.10320168087670       -0.12486857987471
C           -2.51616624060037        0.38709093942486       -0.05854744036179
C           -1.21263923141797        0.66310274668490        0.69046740852326
C           -0.00293132612229        0.16890538564818       -0.06026500609821
O            0.10125094493576        0.11130015666120       -1.26656916385411
O            0.96524993468938       -0.18945649258175        0.77722746698092
C            2.22585116763437       -0.60672760359804        0.22518287202075
C            3.10202615406004        0.59100203694567       -0.10795212452038
H           -2.91875308673452       -1.52136147524082        0.87428006570201
H           -3.75949330905969       -1.26986125036193       -0.65718349120051
H           -2.03447661036539       -1.62984832131100       -0.65105278076502
H           -3.32921797741954        0.90786154199004        0.44758536116680
H           -2.42786993839262        0.78357652877468       -1.07148955371750
H           -1.21398697903882        0.20889695539812        1.68108544075628
H           -1.07952520584339        1.74117634160867        0.80877022608552
H            2.67340793858763       -1.22384834452358        1.00423479674608
H            2.03215089727649       -1.20291014405985       -0.67170475952031
H            4.06202398873915        0.24435952053300       -0.47479282212916
H            2.62715309048136        1.19414545263500       -0.87832217086634
H            3.25341213578887        1.20180475354815        0.77751673733167
20
 energy: -27.122875443936 gnorm: 0.002220211923 xtb: 6.7.1 (edcfbbe)
C           -2.82463259189848       -1.10468022934155       -0.12213362327267
C           -2.51652274540600        0.38734329521626       -0.06104787148698
C           -1.21613405288087        0.66509370580875        0.69274315465361
C           -0.00531846406286        0.17656725294602       -0.06169320315526
O            0.09477189787065        0.12128784271318       -1.26952607280082
O            0.96470057453993       -0.18037921385407        0.77384348406016
C            2.22047203567300       -0.60479618731181        0.22281499621713
C            3.10628028945586        0.58860150452734       -0.10738013733167
H           -2.91149680999870       -1.52016031482064        0.87930978302598
H           -3.75800941825624       -1.27717632039478       -0.65145512149914
H           -2.03090193617420       -1.63127645209805       -0.64858392187550
H           -3.33296097871829        0.91025024924586        0.43744391027748
H           -2.42277416364824        0.77974838483554       -1.07515446091231
H           -1.21602338393371        0.20055120388637        1.67856168589144
H           -1.08627318820278        1.74210705674760        0.82341528598255
H            2.66530851173952       -1.22721504580353        0.99938849304754
H            2.02815136549463       -1.19890231824916       -0.67607050330783
H            4.06731953305886        0.23581843860591       -0.46706583966994
H            2.63908071041455        1.19290428253013       -0.88225877111511
H            3.25495479978091        1.20031991210939        0.77845121567661
20
 energy: -27.122881429150 gnorm: 0.001428709486 xtb: 6.7.1 (edcfbbe)
C           -2.82484960700833       -1.10498973980698       -0.12149720743665
C           -2.51690824467874        0.38679555536031       -0.06175370322145
C           -1.21728324774678        0.66493687326890        0.69283644959565
C           -0.00549118393495        0.17880730734473       -0.06141657260195
O            0.09448599582487        0.12396084837917       -1.26902806534586
O            0.96496375889997       -0.17873421675777        0.77382947686420
C            2.22059320871786       -0.60397426177948        0.22160378009342
C            3.10809285279124        0.58794201755586       -0.10720300874541
H           -2.91119614522174       -1.51956533040184        0.88034922690699
H           -3.75844144065666       -1.27839655383947       -0.65006693036033
H           -2.03141619231730       -1.63219880099166       -0.64777655452959
H           -3.33387509723565        0.91008151349477        0.43561336945583
H           -2.42269115252689        0.77846395336377       -1.07616426237129
H           -1.21786433078609        0.19952770407027        1.67831488503303
H           -1.08837523649995        1.74187181888049        0.82521772854177
H            2.66449107608879       -1.22803838274534        0.99758053332529
H            2.02631079171300       -1.19695084720337       -0.67757821567962
H            4.06925404750376        0.23383174032039       -0.46534852884514
H            2.64351195159892        1.19327088969655       -0.88274593635257
H            3.25668018032220        1.19936495908948        0.77883601807894
20
 energy: -27.122888397009 gnorm: 0.001429579596 xtb: 6.7.1 (edcfbbe)
C           -2.82631218735933       -1.10666660451925       -0.11855306640932
C           -2.51817826620069        0.38434861964055       -0.06450790323751
C           -1.22153826966528        0.66426952014171        0.69373103448037
C           -0.00725889038388        0.18543194597672       -0.06045957303913
O            0.09389275035784        0.13570053875653       -1.26734224599395
O            0.96565241814961       -0.17141225010168        0.77340824346385
C            2.22043891644753       -0.59978523624549        0.21656373581751
C            3.11607525049043        0.58555747223954       -0.10628092813321
H           -2.91109420314115       -1.51724278349872        0.88485691717339
H           -3.76057076841812       -1.28270174111591       -0.64460396258392
H           -2.03398472452258       -1.63624075120992       -0.64380712558573
H           -3.33699569612200        0.90977491190358        0.42781108593758
H           -2.42079748673229        0.77198876554939       -1.08034172207840
H           -1.22426869905242        0.19462935483794        1.67739859668137
H           -1.09655159890889        1.74089662328544        0.83232816207773
H            2.65984651902851       -1.23105944243590        0.98971721282478
H            2.01808071929335       -1.18699578487038       -0.68455839566100
H            4.07746161514729        0.22496050073554       -0.45741573053872
H            2.66250421931075        1.19475625645906       -0.88496521149456
H            3.26359036712883        1.19579713177003        0.78062335870415
20
 energy: -27.122890724132 gnorm: 0.000485673390 xtb: 6.7.1 (edcfbbe)
C           -2.82644869745071       -1.10725681311572       -0.11820144008250
C           -2.51821198312784        0.38417161885349       -0.06401658387302
C           -1.22102778270985        0.66469582867112        0.69367628200022
C           -0.00670251189756        0.18675575700970       -0.06119819643634
O            0.09370817404177        0.13542214148449       -1.26842384937909
O            0.96557063387106       -0.17079452132239        0.77251821389279
C            2.21976659883874       -0.60017371392221        0.21639184414952
C            3.11604712582834        0.58559068120712       -0.10551796836248
H           -2.91182099083669       -1.51788506857232        0.88514732993274
H           -3.76052091689629       -1.28261986631474       -0.64488622045780
H           -2.03380956484935       -1.63664260896305       -0.64319642568115
H           -3.33686211683034        0.90969100052672        0.42825228962634
H           -2.42049640285122        0.77151556954122       -1.07980264266855
H           -1.22226391828665        0.19518257671782        1.67730900584060
H           -1.09673017482006        1.74144277960327        0.83112691724509
H            2.65870290664534       -1.23207487834394        0.98901660317877
H            2.01836966918310       -1.18621906040445       -0.68568510059094
H            4.07726040228587        0.22478893610551       -0.45663296803325
H            2.66232633192475        1.19495960717303       -0.88400324904856
H            3.26313520278512        1.19545708136409        0.78172864115288
20
 energy: -27.122891866147 gnorm: 0.000336724211 xtb: 6.7.1 (edcfbbe)
C           -2.82694357806598       -1.10769263513748       -0.11748788610374
C           -2.51836735803069        0.38399568713661       -0.06367321064921
C           -1.22057113117813        0.66507566866331        0.69319903170771
C           -0.00697224746235        0.18601172007567       -0.06210869511043
O            0.09365392518185        0.13567413517509       -1.26959012934474
O            0.96537014688398       -0.17104222646086        0.77141114823737
C            2.21947015882282       -0.60030514151186        0.21561783555520
C            3.11650529327283        0.58582651493658       -0.10434617981741
H           -2.91335130751097       -1.51810433119218        0.88588908009251
H           -3.76070814263311       -1.28253328433744       -0.64498409975767
H           -2.03406143158956       -1.63743042943401       -0.64179711721038
H           -3.33660574612518        0.90973919147686        0.42885949266488
H           -2.42084600339106        0.77089316213337       -1.07956245171002
H           -1.22060485534212        0.19632917240534        1.67706415381955
H           -1.09650597616333        1.74200372811193        0.82923792247516
H            2.65777454177932       -1.23335995972263        0.98743111959341
H            2.01887408502119       -1.18480810562763       -0.68756575153211
H            4.07776227577753        0.22508389923970       -0.45530394603164
H            2.66307681841961        1.19598772873142       -0.88241274516455
H            3.26304251718086        1.19466255263698        0.78372491069141
20
 energy: -27.122892921942 gnorm: 0.000401745921 xtb: 6.7.1 (edcfbbe)
C           -2.82758740669460       -1.10814551594823       -0.11650147264686
C           -2.51867072958431        0.38352494938643       -0.06354591125286
C           -1.22049737574763        0.66537616711640        0.69253415104595
C           -0.00702276108100        0.18648657428566       -0.06303464770274
O            0.09349048315411        0.13659099333384       -1.27058173182320
O            0.96535047981953       -0.17104950676989        0.77021642728891
C            2.21943625356986       -0.60031386351155        0.21421283053686
C            3.11753131536424        0.58582040072997       -0.10292942987181
H           -2.91502425118440       -1.51784561375356        0.88708410225028
H           -3.76100309202122       -1.28294847554808       -0.64468323289696
H           -2.03447271540283       -1.63853178819439       -0.63981593712731
H           -3.33667039216640        0.90953752515685        0.42908178195597
H           -2.42158388100167        0.76982589514476       -1.07968803587092
H           -1.21978045960046        0.19748410466999        1.67678969523601
H           -1.09692769150284        1.74252165579528        0.82746764160471
H            2.65683571534100       -1.23526322133365        0.98496094420350
H            2.01881529726178       -1.18274156300940       -0.69026905973106
H            4.07897730190442        0.22499882377566       -0.45334073013192
H            2.66533140570178        1.19745680712651       -0.88058910455411
H            3.26346448871817        1.19322269884616        0.78623420189285
20
 energy: -27.122894055523 gnorm: 0.000167090597 xtb: 6.7.1 (edcfbbe)
C           -2.82805750669335       -1.10831899445882       -0.11540031040900
C           -2.51893060265232        0.38321187730633       -0.06352684294268
C           -1.22040327665785        0.66556302695583        0.69164502447664
C           -0.00711586034642        0.18650273642024       -0.06411237320474
O            0.09322095177987        0.13714160091892       -1.27161132376947
O            0.96527281315065       -0.17174586088041        0.76890099845103
C            2.21950914354137       -0.60044200594388        0.21265583896840
C            3.11825828057224        0.58589466860408       -0.10139592717497
H           -2.91669150234691       -1.51709243548409        0.88844175057271
H           -3.76095951496604       -1.28342612008086       -0.64437633801715
H           -2.03460588474493       -1.63947969691306       -0.63740467354277
H           -3.33664168533625        0.90954069913945        0.42933201240348
H           -2.42254212294291        0.76901100506875       -1.07996827939497
H           -1.21932754243249        0.19863596524724        1.67641444392707
H           -1.09687723502184        1.74287482083781        0.82557362006998
H            2.65622504182331       -1.23721385544233        0.98235713220440
H            2.01900400689001       -1.18093668292121       -0.69307658601652
H            4.08000492849649        0.22549524725843       -0.45145024050704
H            2.66718206509206        1.19917038498391       -0.87840873246350
H            3.26346748764284        1.19162066668246        0.78901328877441
20
 energy: -27.122895107698 gnorm: 0.000092252215 xtb: 6.7.1 (edcfbbe)
C           -2.82833059372536       -1.10841110237545       -0.11416068905566
C           -2.51910720906754        0.38304802797695       -0.06364209017445
C           -1.22026612359922        0.66582860462990        0.69070456470790
C           -0.00724967900619        0.18646827222076       -0.06532834225291
O            0.09284815869658        0.13759528808994       -1.27281018961847
O            0.96506002510634       -0.17267756796034        0.76745401323427
C            2.21943584544627       -0.60070678432344        0.21099206131051
C            3.11871330946683        0.58601736687698       -0.09975128096870
H           -2.91793437054330       -1.51601913546731        0.89006799990283
H           -3.76072431152756       -1.28415624935045       -0.64381685550113
H           -2.03441038843143       -1.64024353137577       -0.63477408882814
H           -3.33658659567577        0.90978108078352        0.42924292804788
H           -2.42330235607181        0.76816999175100       -1.08043392893956
H           -1.21889182650228        0.19954746958564        1.67581449976059
H           -1.09653334471496        1.74322406534984        0.82395667338067
H            2.65551671967953       -1.23935178809769        0.97957643970073
H            2.01919406871315       -1.17922544544966       -0.69608617239567
H            4.08078867061730        0.22620168391384       -0.44952067674829
H            2.66865770151240        1.20106574923664       -0.87594954786962
H            3.26311428447458        1.18985105128387        0.79206716471253
20
 energy: -27.122895986846 gnorm: 0.000133904969 xtb: 6.7.1 (edcfbbe)
C           -2.82839264374419       -1.10847633973454       -0.11298548217535
C           -2.51921756011349        0.38301604000860       -0.06385055468623
C           -1.22014057836705        0.66609050520397        0.68990043416568
C           -0.00740176034973        0.18643164341739       -0.06642349344855
O            0.09254620817528        0.13804623723750       -1.27391859490345
O            0.96477139801840       -0.17356328469545        0.76615873494697
C            2.21925737684138       -0.60101001558669        0.20953016524288
C            3.11896949688049        0.58612406435567       -0.09826781770060
H           -2.91860713919862       -1.51499514123740        0.89162666970393
H           -3.76043593097217       -1.28485389916084       -0.64301841880419
H           -2.03413734091170       -1.64087344237522       -0.63251525971254
H           -3.33652619035341        0.91021181322254        0.42884799004707
H           -2.42369467666995        0.76736310259594       -1.08097826132581
H           -1.21848022824224        0.20014747351164        1.67517914457595
H           -1.09623453811032        1.74352000085063        0.82272155240225
H            2.65478651701671       -1.24130314684202        0.97707766116934
H            2.01930751026285       -1.17772584505614       -0.69877132491318
H            4.08128747101736        0.22689834342703       -0.44796020809821
H            2.66962598051177        1.20276816260857       -0.87360118290610
H            3.26270861315615        1.18819077554759        0.79485072882545
20
 energy: -27.122896748419 gnorm: 0.000127864187 xtb: 6.7.1 (edcfbbe)
C           -2.82846703013120       -1.10858090716363       -0.11196263263541
C           -2.51922167086014        0.38293820522245       -0.06411111668575
C           -1.22001504490295        0.66640271032731        0.68925912607121
C           -0.00751186522399        0.18654756662600       -0.06732625938235
O            0.09237615508369        0.13869241443818       -1.27485182936599
O            0.96449159354811       -0.17425962907586        0.76507815197313
C            2.21903491734484       -0.60129496795695        0.20829615323430
C            3.11915144958187        0.58619011623594       -0.09698093552329
H           -2.91885464246369       -1.51410850770449        0.89303230633164
H           -3.76036689745298       -1.28555028584453       -0.64204762217263
H           -2.03401550311145       -1.64139213420327       -0.63076386337216
H           -3.33644954199639        0.91057555433532        0.42822789936466
H           -2.42376568824831        0.76645564819097       -1.08155426962200
H           -1.21808094706887        0.20061282565855        1.67459806185875
H           -1.09604580420305        1.74385058703510        0.82181816064344
H            2.65404261978406       -1.24304510515055        0.97491851597227
H            2.01930671319546       -1.17639075109313       -0.70108026218560
H            4.08159044505523        0.22743638019422       -0.44680895881425
H            2.67029389655949        1.20429683748927       -0.87142920024213
H            3.26249883035779        1.18663048973785        0.79729105695748
20
 energy: -27.122897456424 gnorm: 0.000092757913 xtb: 6.7.1 (edcfbbe)
C           -2.82845615260058       -1.10873793574096       -0.11099461247113
C           -2.51925769205489        0.38286115055496       -0.06442091756374
C           -1.21997482992600        0.66666059644515        0.68870189450304
C           -0.00759612477452        0.18679999857698       -0.06808734160091
O            0.09233517547125        0.13961781653518       -1.27565206697459
O            0.96422451030745       -0.17480896471970        0.76415406049237
C            2.21880103983454       -0.60152880425223        0.20721341025249
C            3.11937807746465        0.58619790169355       -0.09582185721677
H           -2.91879284229507       -1.51342179699524        0.89434471494479
H           -3.76039365389408       -1.28611937299444       -0.64085343599874
H           -2.03405375093098       -1.64201274239963       -0.62940568160581
H           -3.33643841407392        0.91098800488677        0.42745509230635
H           -2.42369081699655        0.76553339443324       -1.08216629007194
H           -1.21776481432351        0.20098631143815        1.67408227119107
H           -1.09614176236305        1.74413999164793        0.82103586768760
H            2.65330239186722       -1.24462452540082        0.97297983315910
H            2.01921655801656       -1.17511431553244       -0.70314323875792
H            4.08182316431104        0.22778311148380       -0.44597127351614
H            2.67087944325970        1.20571361067741       -0.86935528126408
H            3.26259247854827        1.18509361696112        0.79950733491030
20
 energy: -27.122898158826 gnorm: 0.000069292099 xtb: 6.7.1 (edcfbbe)
C           -2.82854002793519       -1.10897064905892       -0.11010588069194
C           -2.51923570603043        0.38265641588749       -0.06475074738072
C           -1.21995031661022        0.66700390601392        0.68819968406149
C           -0.00764629635802        0.18725106334102       -0.06876058124846
O            0.09240297462626        0.14090718054632       -1.27636479103156
O            0.96395888453931       -0.17522953739152        0.76332167078632
C            2.21854050055040       -0.60171807834979        0.20621408915499
C            3.11966541815369        0.58614115903657       -0.09471968907694
H           -2.91849000703028       -1.51285432003357        0.89558870956399
H           -3.76066905335561       -1.28677924124201       -0.63949479142486
H           -2.03428712508239       -1.64262058402999       -0.62835699066905
H           -3.33642213950816        0.91122529634618        0.42660588294546
H           -2.42354748857023        0.76446908787506       -1.08279585416523
H           -1.21746483466431        0.20143667602882        1.67361656242546
H           -1.09635918432112        1.74453162377819        0.82031116091603
H            2.65251270920902       -1.24612656105637        0.97115965636789
H            2.01904239140087       -1.17384527103398       -0.70507174700957
H            4.08200278688127        0.22792991828246       -0.44536423659301
H            2.67148318442284        1.20712234328883       -0.86726112154266
H            3.26299531452982        1.18347661907003        0.80163149701770
20
 energy: -27.122898852982 gnorm: 0.000062420336 xtb: 6.7.1 (edcfbbe)
C           -2.82855150059636       -1.10926677651170       -0.10923945053586
C           -2.51928392396588        0.38241775359704       -0.06506315041137
C           -1.21999018014574        0.66735740227617        0.68769216217073
C           -0.00767271395260        0.18785908377414       -0.06940195828808
O            0.09256351452120        0.14249966924323       -1.27704419196827
O            0.96369028723262       -0.17555665342595        0.76253022495278
C            2.21826491569154       -0.60188725109320        0.20528162003250
C            3.12001320781090        0.58601781071729       -0.09365555175887
H           -2.91800662809546       -1.51245704898004        0.89677931042093
H           -3.76095578218332       -1.28741846838310       -0.63802993238661
H           -2.03455667852462       -1.64328479419367       -0.62751907022199
H           -3.33649884896838        0.91137591609864        0.42581115578529
H           -2.42349390023233        0.76341347761826       -1.08339849633959
H           -1.21718523036968        0.20197904337601        1.67318586760954
H           -1.09679493432719        1.74496149470030        0.81950476627510
H            2.65167707333712       -1.24758590825820        0.96944532169300
H            2.01881690385373       -1.17260116940576       -0.70689378642267
H            4.08215863006431        0.22788108957526       -0.44490884152976
H            2.67213755891585        1.20851681290749       -0.86516235797329
H            3.26366021478181        1.18178556366655        0.80368884130181
20
 energy: -27.122899541909 gnorm: 0.000067652888 xtb: 6.7.1 (edcfbbe)
C           -2.82849495916827       -1.10962516225512       -0.10842714438196
C           -2.51935954319530        0.38212542441509       -0.06533094226016
C           -1.22006575471138        0.66781177614447        0.68718453527241
C           -0.00771065072158        0.18862566218591       -0.07003578143756
O            0.09274409063891        0.14433159848353       -1.27771096304780
O            0.96337035078886       -0.17581781335755        0.76175348119309
C            2.21793256254291       -0.60204013108835        0.20438590946423
C            3.12040929877782        0.58580605058785       -0.09261219276761
H           -2.91733730152615       -1.51221183025016        0.89788667061912
H           -3.76119716316251       -1.28817726326825       -0.63656475007631
H           -2.03475140146267       -1.64390413258965       -0.62682488016557
H           -3.33662114056080        0.91134506660787        0.42516758420987
H           -2.42361023494177        0.76240303527136       -1.08393248129689
H           -1.21689164974664        0.20269764562539        1.67279553688110
H           -1.09734507993600        1.74551637296584        0.81860399264783
H            2.65075035009723       -1.24899985515483        0.96781368116764
H            2.01852597279557       -1.17138724490404       -0.70864992404851
H            4.08230629931694        0.22765598454469       -0.44453889495091
H            2.67285376989596        1.20984232255901       -0.86306217376114
H            3.26448416912640        1.18000954077568        0.80570121914447
20
 energy: -27.122900210733 gnorm: 0.000070893749 xtb: 6.7.1 (edcfbbe)
C           -2.82827334605361       -1.11001380837667       -0.10767914557608
C           -2.51949598060866        0.38183586485381       -0.06551597104277
C           -1.22017258923014        0.66835462918022        0.68666956133043
C           -0.00776770358275        0.18947992451221       -0.07066575312752
O            0.09293199755042        0.14628484444861       -1.27836706226742
O            0.96301247643867       -0.17602344188567        0.76099461506206
C            2.21754855046720       -0.60221815716828        0.20354628351831