      -----------------------------------------------------------      
     |                   =====================                   |     
     |                           x T B                           |     
     |                   =====================                   |     
     |                         S. Grimme                         |     
     |          Mulliken Center for Theoretical Chemistry        |     
     |                    University of Bonn                     |     
      -----------------------------------------------------------      

   * xtb version 6.7.1 (edcfbbe) compiled by 'albert@albert-system' on 2024-07-22

   xtb is free software: you can redistribute it and/or modify it under
   the terms of the GNU Lesser General Public License as published by
   the Free Software Foundation, either version 3 of the License, or
   (at your option) any later version.
   
   xtb is distributed in the hope that it will be useful,
   but WITHOUT ANY WARRANTY; without even the implied warranty of
   MERCHANTABILITY or FITNESS FOR A PARTICULAR PURPOSE.  See the
   GNU Lesser General Public License for more details.
   
   Cite this work as:
   * C. Bannwarth, E. Caldeweyher, S. Ehlert, A. Hansen, P. Pracht,
     J. Seibert, S. Spicher, S. Grimme, WIREs Comput. Mol. Sci., 2020, 11,
     e01493. DOI: 10.1002/wcms.1493
   
   for GFN2-xTB:
   * C. Bannwarth, S. Ehlert and S. Grimme., J. Chem. Theory Comput., 2019,
     15, 1652-1671. DOI: 10.1021/acs.jctc.8b01176
   for GFN1-xTB:
   * S. Grimme, C. Bannwarth, P. Shushkov, J. Chem. Theory Comput., 2017,
     13, 1989-2009. DOI: 10.1021/acs.jctc.7b00118
   for GFN0-xTB:
   * P. Pracht, E. Caldeweyher, S. Ehlert, S. Grimme, ChemRxiv, 2019, preprint.
     DOI: 10.26434/chemrxiv.8326202.v1
   for GFN-FF:
   * S. Spicher and S. Grimme, Angew. Chem. Int. Ed., 2020, 59, 15665-15673.
     DOI: 10.1002/anie.202004239
   
   for ALPB and GBSA implicit solvation:
   * S. Ehlert, M. Stahn, S. Spicher, S. Grimme, J. Chem. Theory Comput.,
     2021, 17, 4250-4261. DOI: 10.1021/acs.jctc.1c00471
   
   for ddCOSMO and CPCM-X implicit solvation:
   * M. Stahn, S. Ehlert, S. Grimme, J. Phys. Chem. A,
     2023, XX, XXXX-XXXX. DOI: 10.1021/acs.jpca.3c04382
   
   for DFT-D4:
   * E. Caldeweyher, C. Bannwarth and S. Grimme, J. Chem. Phys., 2017,
     147, 034112. DOI: 10.1063/1.4993215
   * E. Caldeweyher, S. Ehlert, A. Hansen, H. Neugebauer, S. Spicher,
     C. Bannwarth and S. Grimme, J. Chem. Phys., 2019, 150, 154122.
     DOI: 10.1063/1.5090222
   * E. Caldeweyher, J.-M. Mewes, S. Ehlert and S. Grimme, Phys. Chem. Chem. Phys.
     2020, 22, 8499-8512. DOI: 10.1039/D0CP00502A
   
   for sTDA-xTB:
   * S. Grimme and C. Bannwarth, J. Chem. Phys., 2016, 145, 054103.
     DOI: 10.1063/1.4959605
   
   in the mass-spec context:
   * V. Asgeirsson, C. Bauer and S. Grimme, Chem. Sci., 2017, 8, 4879.
     DOI: 10.1039/c7sc00601b
   * J. Koopman and S. Grimme, ACS Omega 2019, 4, 12, 15120-15133.
     DOI: 10.1021/acsomega.9b02011
   
   for metadynamics refer to:
   * S. Grimme, J. Chem. Theory Comput., 2019, 155, 2847-2862
     DOI: 10.1021/acs.jctc.9b00143
   
   for SPH calculations refer to:
   * S. Spicher and S. Grimme, J. Chem. Theory Comput., 2021, 17, 1701-1714
     DOI: 10.1021/acs.jctc.0c01306
   
   for ONIOM refer to:
   * C. Plett, A. Katbashev, S. Ehlert, S. Grimme, M. Bursch,
     Phys. Chem. Chem. Phys., 2023, 25, 17860-17868. DOI: 10.1039/D3CP02178E
   
   for DIPRO refer to:
   * J. Kohn, N. Gildemeister, S. Grimme, D. Fazzi, A. Hansen,
     J. Chem. Phys., 2023, just accepted.
   
   for PTB refer to:
   * S. Grimme, M. Mueller, A. Hansen, J. Chem. Phys., 2023, 158, 124111.
     DOI: 10.1063/5.0137838
   
   with help from (in alphabetical order)
   P. Atkinson, C. Bannwarth, F. Bohle, G. Brandenburg, E. Caldeweyher
   M. Checinski, S. Dohm, S. Ehlert, S. Ehrlich, I. Gerasimov, C. Hölzer
   A. Katbashev, J. Kohn, J. Koopman, C. Lavigne, S. Lehtola, F. März, M. Müller,
   F. Musil, H. Neugebauer, J. Pisarek, C. Plett, P. Pracht, F. Pultar,
   J. Seibert, P. Shushkov, S. Spicher, M. Stahn, M. Steiner, T. Strunk,
   J. Stückrath, T. Rose, and J. Unsleber
   
 * started run on 2025/04/11 at 15:53:54.760     
   ID    Z sym.   atoms
    1    6 C      1-4, 7, 8
    2    8 O      5, 6
    3    1 H      9-20

           -------------------------------------------------
          |                Calculation Setup                |
           -------------------------------------------------

          program call               : /srv/scratch/z5358697/.xtb/bin/xtb solv.coord --gfn2 --sp --chrg 0 --norestart --parallel 1 --alpb water reference -I xtb_sp-xcontrol-inp
          hostname                   : k061
          coordinate file            : solv.coord
          omp threads                :                     1


           -------------------------------------------------
          |                 G F N 2 - x T B                 |
           -------------------------------------------------

        Reference                      10.1021/acs.jctc.8b01176
      * Hamiltonian:
        H0-scaling (s, p, d)           1.850000    2.230000    2.230000
        zeta-weighting                 0.500000
      * Dispersion:
        s8                             2.700000
        a1                             0.520000
        a2                             5.000000
        s9                             5.000000
      * Repulsion:
        kExp                           1.500000    1.000000
        rExp                           1.000000
      * Coulomb:
        alpha                          2.000000
        third order                    shell-resolved
        anisotropic                    true
        a3                             3.000000
        a5                             4.000000
        cn-shift                       1.200000
        cn-exp                         4.000000
        max-rad                        5.000000

      * Solvation model:               ALPB
        Solvent                        water
        Parameter file                 internal GFN2-xTB/ALPB
        Dielectric constant                8.0200E+01
        Reference state                gsolv=reference [X=1]
        Free energy shift                  2.8945E-03 Eh       1.8164E+00 kcal/mol
        Temperature                        2.9815E+02 K
        Density                            1.0000E+00 kg/L
        Solvent mass                       1.8000E+01 g/mol
        Interaction kernel             P16
        Born radius scaling (c1)           1.4744E+00
        Born radii integrator          GBOBC
        Born offset                        0.0000E+00 a0       0.0000E+00 AA
        H-bond correction              true
        Ion screening                  false
        Surface tension                    1.0000E-05 Eh       1.5569E+01 dyn/cm
        Grid points                               974 per atom

          ...................................................
          :                      SETUP                      :
          :.................................................:
          :  # basis functions                  44          :
          :  # atomic orbitals                  44          :
          :  # shells                           28          :
          :  # electrons                        48          :
          :  max. iterations                   250          :
          :  Hamiltonian                  GFN2-xTB          :
          :  restarted?                      false          :
          :  GBSA solvation                   true          :
          :  PC potential                    false          :
          :  electronic temp.          300.0000000     K    :
          :  accuracy                    1.0000000          :
          :  -> integral cutoff          0.2500000E+02      :
          :  -> integral neglect         0.1000000E-07      :
          :  -> SCF convergence          0.1000000E-05 Eh   :
          :  -> wf. convergence          0.1000000E-03 e    :
          :  Broyden damping             0.4000000          :
          :  net charge                          0          :
          :  unpaired electrons                  0          :
          ...................................................

 iter      E             dE          RMSdq      gap      omega  full diag
   1    -27.3738417 -0.273738E+02  0.397E+00    5.82       0.0  T
   2    -27.4337774 -0.599357E-01  0.199E+00    4.89       1.0  T
   3    -27.4354871 -0.170967E-02  0.101E+00    5.20       1.0  T
   4    -27.4368843 -0.139724E-02  0.159E-01    4.96       1.0  T
   5    -27.4370812 -0.196919E-03  0.680E-02    5.01       1.0  T
   6    -27.4370831 -0.190058E-05  0.217E-02    5.01       1.0  T
   7    -27.4370840 -0.892533E-06  0.406E-03    5.01       5.5  T
   8    -27.4370841 -0.257880E-07  0.233E-03    5.01       9.6  T
   9    -27.4370841 -0.914631E-08  0.386E-04    5.01      57.9  T
  10    -27.4370841 -0.356252E-09  0.206E-04    5.01     108.4  T

   *** convergence criteria satisfied after 10 iterations ***

         #    Occupation            Energy/Eh            Energy/eV
      -------------------------------------------------------------
         1        2.0000           -0.7495009             -20.3950
       ...           ...                  ...                  ...
        18        2.0000           -0.4681725             -12.7396
        19        2.0000           -0.4586208             -12.4797
        20        2.0000           -0.4488013             -12.2125
        21        2.0000           -0.4454276             -12.1207
        22        2.0000           -0.4391385             -11.9496
        23        2.0000           -0.4356686             -11.8551
        24        2.0000           -0.4206888             -11.4475 (HOMO)
        25                         -0.2366562              -6.4397 (LUMO)
        26                         -0.0084301              -0.2294
        27                          0.0973270               2.6484
        28                          0.1066618               2.9024
        29                          0.1268190               3.4509
       ...                                ...                  ...
        44                          0.6175291              16.8038
      -------------------------------------------------------------
                  HL-Gap            0.1840327 Eh            5.0078 eV
             Fermi-level           -0.3286725 Eh           -8.9436 eV

 SCC (total)                   0 d,  0 h,  0 min,  0.024 sec
 SCC setup                      ...        0 min,  0.002 sec ( 10.397%)
 Dispersion                     ...        0 min,  0.000 sec (  0.534%)
 classical contributions        ...        0 min,  0.000 sec (  0.109%)
 integral evaluation            ...        0 min,  0.002 sec (  7.428%)
 iterations                     ...        0 min,  0.014 sec ( 58.342%)
 molecular gradient             ...        0 min,  0.005 sec ( 22.464%)
 printout                       ...        0 min,  0.000 sec (  0.651%)

         :::::::::::::::::::::::::::::::::::::::::::::::::::::
         ::                     SUMMARY                     ::
         :::::::::::::::::::::::::::::::::::::::::::::::::::::
         :: total energy             -27.120656572185 Eh    ::
         :: total w/o Gsasa/hb       -27.122391340080 Eh    ::
         :: gradient norm              0.000043094771 Eh/a0 ::
         :: HOMO-LUMO gap              5.007783554507 eV    ::
         ::.................................................::
         :: SCC energy               -27.437035816416 Eh    ::
         :: -> isotropic ES            0.059423464505 Eh    ::
         :: -> anisotropic ES          0.000523866693 Eh    ::
         :: -> anisotropic XC          0.008182035947 Eh    ::
         :: -> dispersion             -0.011493628517 Eh    ::
         :: -> Gsolv                  -0.007395469353 Eh    ::
         ::    -> Gelec               -0.009130237248 Eh    ::
         ::    -> Gsasa                0.001093295079 Eh    ::
         ::    -> Ghb                 -0.002253076344 Eh    ::
         ::    -> Gshift               0.002894549160 Eh    ::
         :: repulsion energy           0.316379244231 Eh    ::
         :: add. restraining           0.000000000000 Eh    ::
         :: total charge              -0.000000000000 e     ::
         :::::::::::::::::::::::::::::::::::::::::::::::::::::

           -------------------------------------------------
          |                Property Printout                |
           -------------------------------------------------

    * Orbital Energies and Occupations

         #    Occupation            Energy/Eh            Energy/eV
      -------------------------------------------------------------
         1        2.0000           -0.7495009             -20.3950
       ...           ...                  ...                  ...
        12        2.0000           -0.5250650             -14.2877
        13        2.0000           -0.5109522             -13.9037
        14        2.0000           -0.5019867             -13.6598
        15        2.0000           -0.4906651             -13.3517
        16        2.0000           -0.4878207             -13.2743
        17        2.0000           -0.4788963             -13.0314
        18        2.0000           -0.4681725             -12.7396
        19        2.0000           -0.4586208             -12.4797
        20        2.0000           -0.4488013             -12.2125
        21        2.0000           -0.4454276             -12.1207
        22        2.0000           -0.4391385             -11.9496
        23        2.0000           -0.4356686             -11.8551
        24        2.0000           -0.4206888             -11.4475 (HOMO)
        25                         -0.2366562              -6.4397 (LUMO)
        26                         -0.0084301              -0.2294
        27                          0.0973270               2.6484
        28                          0.1066618               2.9024
        29                          0.1268190               3.4509
        30                          0.1305706               3.5530
        31                          0.1505641               4.0971
        32                          0.1537687               4.1843
        33                          0.1572868               4.2800
        34                          0.1601321               4.3574
        35                          0.1809037               4.9226
       ...                                ...                  ...
        44                          0.6175291              16.8038
      -------------------------------------------------------------
                  HL-Gap            0.1840327 Eh            5.0078 eV
             Fermi-level           -0.3286725 Eh           -8.9436 eV

     #   Z          covCN         q      C6AA      α(0)
     1   6 C        3.752    -0.112    22.710     6.796
     2   6 C        3.802    -0.058    21.609     6.618
     3   6 C        3.805    -0.101    22.433     6.743
     4   6 C        2.709     0.366    20.785     7.463
     5   8 O        0.856    -0.490    23.576     6.510
     6   8 O        1.703    -0.273    18.526     5.811
     7   6 C        3.690     0.072    19.559     6.329
     8   6 C        3.751    -0.132    23.095     6.853
     9   1 H        0.925     0.048     2.345     2.395
    10   1 H        0.925     0.048     2.346     2.395
    11   1 H        0.925     0.029     2.607     2.525
    12   1 H        0.925     0.056     2.241     2.341
    13   1 H        0.924     0.048     2.349     2.397
    14   1 H        0.925     0.081     1.968     2.194
    15   1 H        0.924     0.089     1.894     2.152
    16   1 H        0.924     0.058     2.217     2.329
    17   1 H        0.924     0.065     2.146     2.291
    18   1 H        0.925     0.072     2.061     2.245
    19   1 H        0.925     0.063     2.168     2.302
    20   1 H        0.925     0.072     2.060     2.245

 Mol. C6AA /au·bohr⁶  :       2996.718925
 Mol. C8AA /au·bohr⁸  :      63830.921296
 Mol. α(0) /au        :         80.933101


Wiberg/Mayer (AO) data.
largest (>0.10) Wiberg bond orders for each atom

 ---------------------------------------------------------------------------
     #   Z sym  total        # sym  WBO       # sym  WBO       # sym  WBO
 ---------------------------------------------------------------------------
     1   6 C    3.996 --     2 C    1.021    11 H    0.988     9 H    0.986
                            10 H    0.986
     2   6 C    3.992 --     1 C    1.021     3 C    0.995    13 H    0.977
                            12 H    0.976
     3   6 C    3.988 --     2 C    0.995     4 C    0.978    14 H    0.969
                            15 H    0.941
     4   6 C    3.903 --     5 O    1.689     6 O    1.169     3 C    0.978
     5   8 O    1.974 --     4 C    1.689     6 O    0.171
     6   8 O    2.318 --     4 C    1.169     7 C    0.918     5 O    0.171
     7   6 C    3.912 --     8 C    1.017    16 H    0.969    17 H    0.967
                             6 O    0.918
     8   6 C    3.986 --     7 C    1.017    19 H    0.985    18 H    0.983
                            20 H    0.980
     9   1 H    0.998 --     1 C    0.986
    10   1 H    0.998 --     1 C    0.986
    11   1 H    0.999 --     1 C    0.988
    12   1 H    0.996 --     2 C    0.976
    13   1 H    0.998 --     2 C    0.977
    14   1 H    0.993 --     3 C    0.969
    15   1 H    0.992 --     3 C    0.941
    16   1 H    0.997 --     7 C    0.969
    17   1 H    0.996 --     7 C    0.967
    18   1 H    0.995 --     8 C    0.983
    19   1 H    0.996 --     8 C    0.985
    20   1 H    0.994 --     8 C    0.980
 ---------------------------------------------------------------------------

Topologies differ in total number of bonds
Writing topology from bond orders to xtbtopo.mol

molecular dipole:
                 x           y           z       tot (Debye)
 q only:        0.306      -0.615       1.015
   full:        0.332      -0.526       1.018       3.031
molecular quadrupole (traceless):
                xx          xy          yy          xz          yz          zz
 q only:        9.737      -1.670      -3.421      -1.866       3.266      -6.316
  q+dip:        7.900      -0.628      -2.465      -2.058       3.970      -5.435
   full:        8.167      -0.680      -1.992      -2.061       4.346      -6.175


           -------------------------------------------------
          | TOTAL ENERGY              -27.120656572185 Eh   |
          | GRADIENT NORM               0.000043094771 Eh/α |
          | HOMO-LUMO GAP               5.007783554507 eV   |
           -------------------------------------------------

------------------------------------------------------------------------
 * finished run on 2025/04/11 at 15:53:54.829     
------------------------------------------------------------------------
 total:
 * wall-time:     0 d,  0 h,  0 min,  0.069 sec
 *  cpu-time:     0 d,  0 h,  0 min,  0.028 sec
 * ratio c/w:     0.405 speedup
 SCF:
 * wall-time:     0 d,  0 h,  0 min,  0.024 sec
 *  cpu-time:     0 d,  0 h,  0 min,  0.017 sec
 * ratio c/w:     0.702 speedup

