      -----------------------------------------------------------      
     |                   =====================                   |     
     |                           x T B                           |     
     |                   =====================                   |     
     |                         S. Grimme                         |     
     |          Mulliken Center for Theoretical Chemistry        |     
     |                    University of Bonn                     |     
      -----------------------------------------------------------      

   * xtb version 6.7.1 (edcfbbe) compiled by 'albert@albert-system' on 2024-07-22

   xtb is free software: you can redistribute it and/or modify it under
   the terms of the GNU Lesser General Public License as published by
   the Free Software Foundation, either version 3 of the License, or
   (at your option) any later version.
   
   xtb is distributed in the hope that it will be useful,
   but WITHOUT ANY WARRANTY; without even the implied warranty of
   MERCHANTABILITY or FITNESS FOR A PARTICULAR PURPOSE.  See the
   GNU Lesser General Public License for more details.
   
   Cite this work as:
   * C. Bannwarth, E. Caldeweyher, S. Ehlert, A. Hansen, P. Pracht,
     J. Seibert, S. Spicher, S. Grimme, WIREs Comput. Mol. Sci., 2020, 11,
     e01493. DOI: 10.1002/wcms.1493
   
   for GFN2-xTB:
   * C. Bannwarth, S. Ehlert and S. Grimme., J. Chem. Theory Comput., 2019,
     15, 1652-1671. DOI: 10.1021/acs.jctc.8b01176
   for GFN1-xTB:
   * S. Grimme, C. Bannwarth, P. Shushkov, J. Chem. Theory Comput., 2017,
     13, 1989-2009. DOI: 10.1021/acs.jctc.7b00118
   for GFN0-xTB:
   * P. Pracht, E. Caldeweyher, S. Ehlert, S. Grimme, ChemRxiv, 2019, preprint.
     DOI: 10.26434/chemrxiv.8326202.v1
   for GFN-FF:
   * S. Spicher and S. Grimme, Angew. Chem. Int. Ed., 2020, 59, 15665-15673.
     DOI: 10.1002/anie.202004239
   
   for ALPB and GBSA implicit solvation:
   * S. Ehlert, M. Stahn, S. Spicher, S. Grimme, J. Chem. Theory Comput.,
     2021, 17, 4250-4261. DOI: 10.1021/acs.jctc.1c00471
   
   for ddCOSMO and CPCM-X implicit solvation:
   * M. Stahn, S. Ehlert, S. Grimme, J. Phys. Chem. A,
     2023, XX, XXXX-XXXX. DOI: 10.1021/acs.jpca.3c04382
   
   for DFT-D4:
   * E. Caldeweyher, C. Bannwarth and S. Grimme, J. Chem. Phys., 2017,
     147, 034112. DOI: 10.1063/1.4993215
   * E. Caldeweyher, S. Ehlert, A. Hansen, H. Neugebauer, S. Spicher,
     C. Bannwarth and S. Grimme, J. Chem. Phys., 2019, 150, 154122.
     DOI: 10.1063/1.5090222
   * E. Caldeweyher, J.-M. Mewes, S. Ehlert and S. Grimme, Phys. Chem. Chem. Phys.
     2020, 22, 8499-8512. DOI: 10.1039/D0CP00502A
   
   for sTDA-xTB:
   * S. Grimme and C. Bannwarth, J. Chem. Phys., 2016, 145, 054103.
     DOI: 10.1063/1.4959605
   
   in the mass-spec context:
   * V. Asgeirsson, C. Bauer and S. Grimme, Chem. Sci., 2017, 8, 4879.
     DOI: 10.1039/c7sc00601b
   * J. Koopman and S. Grimme, ACS Omega 2019, 4, 12, 15120-15133.
     DOI: 10.1021/acsomega.9b02011
   
   for metadynamics refer to:
   * S. Grimme, J. Chem. Theory Comput., 2019, 155, 2847-2862
     DOI: 10.1021/acs.jctc.9b00143
   
   for SPH calculations refer to:
   * S. Spicher and S. Grimme, J. Chem. Theory Comput., 2021, 17, 1701-1714
     DOI: 10.1021/acs.jctc.0c01306
   
   for ONIOM refer to:
   * C. Plett, A. Katbashev, S. Ehlert, S. Grimme, M. Bursch,
     Phys. Chem. Chem. Phys., 2023, 25, 17860-17868. DOI: 10.1039/D3CP02178E
   
   for DIPRO refer to:
   * J. Kohn, N. Gildemeister, S. Grimme, D. Fazzi, A. Hansen,
     J. Chem. Phys., 2023, just accepted.
   
   for PTB refer to:
   * S. Grimme, M. Mueller, A. Hansen, J. Chem. Phys., 2023, 158, 124111.
     DOI: 10.1063/5.0137838
   
   with help from (in alphabetical order)
   P. Atkinson, C. Bannwarth, F. Bohle, G. Brandenburg, E. Caldeweyher
   M. Checinski, S. Dohm, S. Ehlert, S. Ehrlich, I. Gerasimov, C. Hölzer
   A. Katbashev, J. Kohn, J. Koopman, C. Lavigne, S. Lehtola, F. März, M. Müller,
   F. Musil, H. Neugebauer, J. Pisarek, C. Plett, P. Pracht, F. Pultar,
   J. Seibert, P. Shushkov, S. Spicher, M. Stahn, M. Steiner, T. Strunk,
   J. Stückrath, T. Rose, and J. Unsleber
   
 * started run on 2025/04/11 at 12:24:49.247     
   ID    Z sym.   atoms
    1    6 C      1-3, 5-7
    2    7 N      4
    3    1 H      8-22

           -------------------------------------------------
          |                Calculation Setup                |
           -------------------------------------------------

          program call               : /srv/scratch/z5358697/.xtb/bin/xtb gas.coord --gfn2 --sp --chrg 0 --norestart --parallel 1
          hostname                   : k062
          coordinate file            : gas.coord
          omp threads                :                     1


           -------------------------------------------------
          |                 G F N 2 - x T B                 |
           -------------------------------------------------

        Reference                      10.1021/acs.jctc.8b01176
      * Hamiltonian:
        H0-scaling (s, p, d)           1.850000    2.230000    2.230000
        zeta-weighting                 0.500000
      * Dispersion:
        s8                             2.700000
        a1                             0.520000
        a2                             5.000000
        s9                             5.000000
      * Repulsion:
        kExp                           1.500000    1.000000
        rExp                           1.000000
      * Coulomb:
        alpha                          2.000000
        third order                    shell-resolved
        anisotropic                    true
        a3                             3.000000
        a5                             4.000000
        cn-shift                       1.200000
        cn-exp                         4.000000
        max-rad                        5.000000


          ...................................................
          :                      SETUP                      :
          :.................................................:
          :  # basis functions                  43          :
          :  # atomic orbitals                  43          :
          :  # shells                           29          :
          :  # electrons                        44          :
          :  max. iterations                   250          :
          :  Hamiltonian                  GFN2-xTB          :
          :  restarted?                      false          :
          :  GBSA solvation                  false          :
          :  PC potential                    false          :
          :  electronic temp.          300.0000000     K    :
          :  accuracy                    1.0000000          :
          :  -> integral cutoff          0.2500000E+02      :
          :  -> integral neglect         0.1000000E-07      :
          :  -> SCF convergence          0.1000000E-05 Eh   :
          :  -> wf. convergence          0.1000000E-03 e    :
          :  Broyden damping             0.4000000          :
          :  net charge                          0          :
          :  unpaired electrons                  0          :
          ...................................................

 iter      E             dE          RMSdq      gap      omega  full diag
   1    -23.7033085 -0.237033E+02  0.244E+00    9.94       0.0  T
   2    -23.7417768 -0.384682E-01  0.135E+00    9.95       1.0  T
   3    -23.7428865 -0.110970E-02  0.629E-01   10.01       1.0  T
   4    -23.7430469 -0.160424E-03  0.134E-01    9.92       1.0  T
   5    -23.7431243 -0.774548E-04  0.544E-02    9.93       1.0  T
   6    -23.7431269 -0.257600E-05  0.175E-02    9.92       1.2  T
   7    -23.7431271 -0.227799E-06  0.238E-03    9.92       8.9  T
   8    -23.7431272 -0.104262E-07  0.365E-04    9.92      58.4  T
   9    -23.7431272 -0.279528E-09  0.160E-04    9.92     132.9  T

   *** convergence criteria satisfied after 9 iterations ***

         #    Occupation            Energy/Eh            Energy/eV
      -------------------------------------------------------------
         1        2.0000           -0.6275993             -17.0778
       ...           ...                  ...                  ...
        16        2.0000           -0.4523387             -12.3088
        17        2.0000           -0.4490700             -12.2198
        18        2.0000           -0.4424868             -12.0407
        19        2.0000           -0.4334138             -11.7938
        20        2.0000           -0.4213532             -11.4656
        21        2.0000           -0.4114608             -11.1964
        22        2.0000           -0.3428364              -9.3291 (HOMO)
        23                          0.0218049               0.5933 (LUMO)
        24                          0.0738385               2.0092
        25                          0.0876141               2.3841
        26                          0.1144604               3.1146
        27                          0.1241046               3.3771
       ...                                ...                  ...
        43                          0.3317389               9.0271
      -------------------------------------------------------------
                  HL-Gap            0.3646413 Eh            9.9224 eV
             Fermi-level           -0.1605158 Eh           -4.3679 eV

 SCC (total)                   0 d,  0 h,  0 min,  0.014 sec
 SCC setup                      ...        0 min,  0.000 sec (  1.481%)
 Dispersion                     ...        0 min,  0.000 sec (  1.149%)
 classical contributions        ...        0 min,  0.000 sec (  0.232%)
 integral evaluation            ...        0 min,  0.002 sec ( 15.652%)
 iterations                     ...        0 min,  0.006 sec ( 45.245%)
 molecular gradient             ...        0 min,  0.005 sec ( 35.137%)
 printout                       ...        0 min,  0.000 sec (  1.001%)

         :::::::::::::::::::::::::::::::::::::::::::::::::::::
         ::                     SUMMARY                     ::
         :::::::::::::::::::::::::::::::::::::::::::::::::::::
         :: total energy             -23.411804282238 Eh    ::
         :: gradient norm              0.003084594385 Eh/a0 ::
         :: HOMO-LUMO gap              9.922395512734 eV    ::
         ::.................................................::
         :: SCC energy               -23.743035823475 Eh    ::
         :: -> isotropic ES            0.013242197816 Eh    ::
         :: -> anisotropic ES          0.008923456101 Eh    ::
         :: -> anisotropic XC          0.016793019654 Eh    ::
         :: -> dispersion             -0.014798159349 Eh    ::
         :: repulsion energy           0.331231541237 Eh    ::
         :: add. restraining           0.000000000000 Eh    ::
         :: total charge              -0.000000000000 e     ::
         :::::::::::::::::::::::::::::::::::::::::::::::::::::

           -------------------------------------------------
          |                Property Printout                |
           -------------------------------------------------

    * Orbital Energies and Occupations

         #    Occupation            Energy/Eh            Energy/eV
      -------------------------------------------------------------
         1        2.0000           -0.6275993             -17.0778
       ...           ...                  ...                  ...
        10        2.0000           -0.4988748             -13.5751
        11        2.0000           -0.4913704             -13.3709
        12        2.0000           -0.4803045             -13.0698
        13        2.0000           -0.4719733             -12.8430
        14        2.0000           -0.4653717             -12.6634
        15        2.0000           -0.4570177             -12.4361
        16        2.0000           -0.4523387             -12.3088
        17        2.0000           -0.4490700             -12.2198
        18        2.0000           -0.4424868             -12.0407
        19        2.0000           -0.4334138             -11.7938
        20        2.0000           -0.4213532             -11.4656
        21        2.0000           -0.4114608             -11.1964
        22        2.0000           -0.3428364              -9.3291 (HOMO)
        23                          0.0218049               0.5933 (LUMO)
        24                          0.0738385               2.0092
        25                          0.0876141               2.3841
        26                          0.1144604               3.1146
        27                          0.1241046               3.3771
        28                          0.1254079               3.4125
        29                          0.1336240               3.6361
        30                          0.1439221               3.9163
        31                          0.1787896               4.8651
        32                          0.1912392               5.2039
        33                          0.2101931               5.7196
       ...                                ...                  ...
        43                          0.3317389               9.0271
      -------------------------------------------------------------
                  HL-Gap            0.3646413 Eh            9.9224 eV
             Fermi-level           -0.1605158 Eh           -4.3679 eV

     #   Z          covCN         q      C6AA      α(0)
     1   6 C        3.752    -0.108    22.630     6.784
     2   6 C        3.780     0.057    19.645     6.314
     3   6 C        3.754    -0.114    22.735     6.799
     4   7 N        2.678    -0.272    27.028     7.721
     5   6 C        3.780     0.056    19.658     6.316
     6   6 C        3.754    -0.108    22.613     6.781
     7   6 C        3.752    -0.112    22.709     6.796
     8   1 H        0.925     0.030     2.589     2.516
     9   1 H        0.925     0.033     2.540     2.492
    10   1 H        0.925     0.030     2.581     2.512
    11   1 H        0.923     0.023     2.685     2.562
    12   1 H        0.925     0.032     2.558     2.501
    13   1 H        0.925     0.042     2.422     2.434
    14   1 H        0.925     0.045     2.379     2.412
    15   1 H        0.860     0.129     1.552     1.952
    16   1 H        0.923     0.025     2.656     2.549
    17   1 H        0.925     0.033     2.543     2.494
    18   1 H        0.925     0.037     2.485     2.465
    19   1 H        0.925     0.047     2.352     2.398
    20   1 H        0.925     0.029     2.595     2.519
    21   1 H        0.925     0.037     2.484     2.465
    22   1 H        0.925     0.026     2.648     2.545

 Mol. C6AA /au·bohr⁶  :       3199.253352
 Mol. C8AA /au·bohr⁸  :      65540.739135
 Mol. α(0) /au        :         84.327072


Wiberg/Mayer (AO) data.
largest (>0.10) Wiberg bond orders for each atom

 ---------------------------------------------------------------------------
     #   Z sym  total        # sym  WBO       # sym  WBO       # sym  WBO
 ---------------------------------------------------------------------------
     1   6 C    3.997 --     2 C    0.993    10 H    0.987     8 H    0.986
                             9 H    0.983
     2   6 C    3.985 --     4 N    1.004     3 C    1.002     1 C    0.993
                            11 H    0.968
     3   6 C    3.996 --     2 C    1.002    12 H    0.987    14 H    0.986
                            13 H    0.983
     4   7 N    3.080 --     2 C    1.004     5 C    1.003    15 H    0.959
     5   6 C    3.986 --     6 C    1.008     4 N    1.003     7 C    0.992
                            16 H    0.964
     6   6 C    3.997 --     5 C    1.008    17 H    0.986    19 H    0.985
                            18 H    0.982
     7   6 C    3.996 --     5 C    0.992    20 H    0.987    22 H    0.986
                            21 H    0.984
     8   1 H    0.999 --     1 C    0.986
     9   1 H    0.999 --     1 C    0.983
    10   1 H    0.999 --     1 C    0.987
    11   1 H    0.999 --     2 C    0.968
    12   1 H    0.999 --     3 C    0.987
    13   1 H    0.998 --     3 C    0.983
    14   1 H    0.998 --     3 C    0.986
    15   1 H    0.983 --     4 N    0.959
    16   1 H    0.999 --     5 C    0.964
    17   1 H    0.999 --     6 C    0.986
    18   1 H    0.999 --     6 C    0.982
    19   1 H    0.998 --     6 C    0.985
    20   1 H    0.999 --     7 C    0.987
    21   1 H    0.999 --     7 C    0.984
    22   1 H    0.999 --     7 C    0.986
 ---------------------------------------------------------------------------

Topologies differ in total number of bonds
Writing topology from bond orders to xtbtopo.mol

molecular dipole:
                 x           y           z       tot (Debye)
 q only:        0.004      -0.000      -0.077
   full:       -0.018       0.315      -0.221       0.980
molecular quadrupole (traceless):
                xx          xy          yy          xz          yz          zz
 q only:        0.304       0.102       0.233       0.042       0.857      -0.537
  q+dip:        0.833       0.426      -0.034      -0.078       1.928      -0.798
   full:        0.937       0.281       0.121      -0.065       2.070      -1.059


           -------------------------------------------------
          | TOTAL ENERGY              -23.411804282238 Eh   |
          | GRADIENT NORM               0.003084594385 Eh/α |
          | HOMO-LUMO GAP               9.922395512734 eV   |
           -------------------------------------------------

------------------------------------------------------------------------
 * finished run on 2025/04/11 at 12:24:49.292     
------------------------------------------------------------------------
 total:
 * wall-time:     0 d,  0 h,  0 min,  0.044 sec
 *  cpu-time:     0 d,  0 h,  0 min,  0.024 sec
 * ratio c/w:     0.543 speedup
 SCF:
 * wall-time:     0 d,  0 h,  0 min,  0.014 sec
 *  cpu-time:     0 d,  0 h,  0 min,  0.014 sec
 * ratio c/w:     0.991 speedup

