33
 energy: -897.808987492460 gnorm: 0.001255690135 xtb: 6.7.1 (edcfbbe)
C           -4.54272158682960       -1.20192837937865       -0.25458672148116
C           -3.73206128119953       -2.33778440357985       -0.23627461971652
C           -2.35211007615124       -2.21202670203365       -0.14547551061207
C           -1.76242025564266       -0.94762416625703       -0.07091377226124
C           -2.58048272550697        0.19439869477843       -0.08870677427320
C           -3.96837049099307        0.05867015110691       -0.18137671653949
C           -1.98126080031303        1.53837792121986       -0.01302914315057
O           -2.68863666560947        2.55059074206725       -0.04388542374679
C           -0.50596538477131        1.63766738539105        0.10571442933447
C            0.04318504671979        2.90641944353200        0.20182556961119
C            1.42739094269273        3.05546541886760        0.32621687118811
C            2.25774547209181        1.95913974798933        0.34908753173657
C            1.73678102557502        0.64251863889494        0.23890207468623
C            0.31427325652278        0.47691069197227        0.12151480914279
C           -0.28512406524751       -0.84073429153778        0.02731457604892
O            0.39292718474097       -1.89215102392944        0.02876601039071
N            2.57243597770684       -0.41351977683198        0.25055713301407
C            4.02031429731389       -0.32644492982846        0.37722586224613
C            4.65208879143856       -1.69716472162553        0.22231992378222
O            4.54762683618012       -2.21742795898909       -1.11220623711173
H           -5.62054193883057       -1.30320207850628       -0.32567288598928
H           -4.18019215558208       -3.32438409394611       -0.29276716443098
H           -1.72013168504743       -3.09250393539238       -0.13081999514645
H           -4.58611204292312        0.94972235280064       -0.19441837731217
H           -0.60733450552980        3.77220937634822        0.18466838127883
H            1.85617342517168        4.04892882432618        0.40927761337360
H            3.32593452152443        2.10116194487869        0.45516232232032
H            2.12768530647170       -1.32524622340289        0.19388915504893
H            4.30126707658868        0.07457908416006        1.36188397660841
H            4.43287296033187        0.34534902835788       -0.38618094799281
H            4.22174915850072       -2.40287838497234        0.94582915939143
H            5.72041321247065       -1.60270419362224        0.43257530783493
H            3.63958706031054       -2.51155679634223       -1.25577098782606
33
 energy: -897.808997050755 gnorm: 0.000737825961 xtb: 6.7.1 (edcfbbe)
C           -4.54178701367209       -1.20310332222089       -0.25496296520772
C           -3.73049515509899       -2.33851790503046       -0.23679511873024
C           -2.35060785932942       -2.21216562273402       -0.14622610851936
C           -1.76176523005322       -0.94725578297240       -0.07165304105940
C           -2.58040583240876        0.19436884858348       -0.08906666250325
C           -3.96834302324183        0.05794449603495       -0.18206692354439
C           -1.98165711512519        1.53871279249710       -0.01138327973162
O           -2.68919862150283        2.55066582831842       -0.04436521034119
C           -0.50610474014962        1.63889542001161        0.10638747391528
C            0.04267467152622        2.90780044994510        0.20283120893089
C            1.42693385378855        3.05673014871102        0.32746706511041
C            2.25780869921477        1.96078680979108        0.34973765362768
C            1.73712797375051        0.64415827384665        0.23941795849030
C            0.31451907044024        0.47828013203986        0.12186657014383
C           -0.28453740854969       -0.83936260188639        0.02678199627874
O            0.39414105716356       -1.89044743749381        0.02854312162142
N            2.57282159419630       -0.41194490697283        0.25103459090073
C            4.02133830769559       -0.32633266637260        0.37531513377529
C            4.65041473905868       -1.69818925236788        0.22243802005058
O            4.54448206238645       -2.22042792421415       -1.11149183703598
H           -5.61952194636395       -1.30549508164378       -0.32558299933665
H           -4.17832933939320       -3.32524884284680       -0.29335025216849
H           -1.71876315465743       -3.09269115186103       -0.13189761181194
H           -4.58736605357177        0.94800917842920       -0.19470505027602
H           -0.60713849990973        3.77405961980211        0.18617291761981
H            1.85578876484231        4.05013076332812        0.41106737167541
H            3.32601101631643        2.10301787593890        0.45533351119705
H            2.12717373000703       -1.32313941806909        0.19260840607957
H            4.30397528473823        0.07635216476827        1.35880092629763
H            4.43377647181206        0.34369794702661       -0.38984072911073
H            4.21828564270965       -2.40245274685379        0.94662770364844
H            5.71957843393848       -1.60680013540070        0.43219022468656
H            3.63615512617506       -2.51720966383486       -1.25058919024496
33
 energy: -897.809007956829 gnorm: 0.001923312879 xtb: 6.7.1 (edcfbbe)
C           -4.53868348706893       -1.20624699468762       -0.25537410923167
C           -3.72561119878224       -2.34042572699083       -0.23853245518265
C           -2.34591726176708       -2.21221619926698       -0.14878803862341
C           -1.75938777303769       -0.94614983636535       -0.07324740820027
C           -2.57960136298567        0.19437092465886       -0.08974211054815
C           -3.96763110773933        0.05591469811762       -0.18185694211473
C           -1.98204900326833        1.53997707076023       -0.01396518953450
O           -2.69069489188704        2.55097174378901       -0.04532633600569
C           -0.50640704774429        1.64181782101848        0.10860067313074
C            0.04129213567406        2.91104082412151        0.20750732089771
C            1.42577441794747        3.06019654171853        0.33155679324869
C            2.25800566994525        1.96518504643774        0.35146564607573
C            1.73809439498427        0.64850649352341        0.24052285179436
C            0.31529212503721        0.48177544300878        0.12314068637585
C           -0.28242066853537       -0.83610336297499        0.02612448433452
O            0.39774445073026       -1.88638297979347        0.02662261154805
N            2.57357449986940       -0.40788166616545        0.25211425273710
C            4.02346673336375       -0.32570771863600        0.36976362981282
C            4.64515116347715       -1.70104259510415        0.22307529291024
O            4.53349068498210       -2.22929202547475       -1.10900599082699
H           -5.61619459295856       -1.31127568244753       -0.32553080035869
H           -4.17238593196997       -3.32763983047932       -0.29505989241462
H           -1.71379007323308       -3.09246836909620       -0.13547780921367
H           -4.58956806289056        0.94384672550537       -0.19457472270824
H           -0.60729625844477        3.77817045083918        0.19184396339904
H            1.85440144743220        4.05364890915098        0.41626106086210
H            3.32634335651678        2.10786112089701        0.45586139749140
H            2.12563682501988       -1.31785939428556        0.18863070997228
H            4.31105398575413        0.08223523417044        1.34962587625689
H            4.43496017729271        0.33872896425741       -0.40108649222715
H            4.20905996674172       -2.39997944609634        0.95035730403221
H            5.71563597455348       -1.61625983890733        0.43144383180979
H            3.62564509523790       -2.53449330609272       -1.23630678376805
33
 energy: -897.809014991581 gnorm: 0.000982300878 xtb: 6.7.1 (edcfbbe)
C           -4.53696209264695       -1.20741306070586       -0.25601808638597
C           -3.72322226904854       -2.34112322104714       -0.23966275468262
C           -2.34363083407238       -2.21190774319074       -0.14996919411932
C           -1.75792632914681       -0.94561818442429       -0.07400747689142
C           -2.57875163030606        0.19439386443838       -0.08970666659436
C           -3.96655599101199        0.05506733861003       -0.18231026830034
C           -1.98199585139125        1.54006629751284       -0.01108619342133
O           -2.69093708176648        2.55083898127340       -0.04543098969139
C           -0.50636009585039        1.64263606089464        0.10961029946170
C            0.04107795248450        2.91187266442350        0.20917258092629
C            1.42561295838723        3.06164410464616        0.33308678320050
C            2.25819510203020        1.96682935367795        0.35186931141254
C            1.73843777012474        0.65009206110441        0.24063662163898
C            0.31579431998430        0.48306426447079        0.12308739343113
C           -0.28121961351100       -0.83494670885371        0.02529884127525
O            0.39919063981118       -1.88520836420467        0.02490889353109
N            2.57330817749324       -0.40648118914460        0.25236991590280
C            4.02320525254523       -0.32508493051560        0.36718786272742
C            4.64249939154854       -1.70202045075429        0.22391298524264
O            4.52677193380520       -2.23380135105730       -1.10670380066853
H           -5.61445670592613       -1.31292384673699       -0.32584117148005
H           -4.16921971204697       -3.32865839505078       -0.29676129068505
H           -1.71052860996543       -3.09151633115501       -0.13713157147582
H           -4.58893840155353        0.94280786497643       -0.19399874534790
H           -0.60806770461039        3.77870901585524        0.19481809282427
H            1.85359077825761        4.05531400086249        0.41852835691694
H            3.32667022307096        2.10952805385347        0.45553110003877
H            2.12483549465226       -1.31614093002598        0.18642244578236
H            4.31325304049806        0.08587383684949        1.34497624771694
H            4.43384395613493        0.33608069129890       -0.40691567598108
H            4.20614357225374       -2.39745552986974        0.95393078556802
H            5.71287131631792       -1.61820430078422        0.43067481893569
H            3.62045485099981       -2.54349242507387       -1.22983665990565
33
 energy: -897.809019176723 gnorm: 0.000458783657 xtb: 6.7.1 (edcfbbe)
C           -4.53593047761155       -1.20786452329535       -0.25627845816797
C           -3.72191567382872       -2.34138198965193       -0.24072813813156
C           -2.34239485811816       -2.21163493356961       -0.15099692100687
C           -1.75698870884379       -0.94534709607152       -0.07459000832880
C           -2.57806737657842        0.19449538085448       -0.08939918580687
C           -3.96571696400916        0.05466807605764       -0.18174224177941
C           -1.98166968430245        1.54005588379392       -0.01070374346024
O           -2.69090840419879        2.55077346614429       -0.04451245138640
C           -0.50637833318554        1.64285525440252        0.11041848054305
C            0.04098534216214        2.91203165703630        0.21104989664131
C            1.42554470988763        3.06235946850353        0.33436438642772
C            2.25826373300896        1.96763069372624        0.35201762777292
C            1.73843271710824        0.65084941021294        0.24070418340769
C            0.31603558437973        0.48358925172181        0.12276922888759
C           -0.28039979982060       -0.83451378608008        0.02348115219814
O            0.40003392471850       -1.88484692723183        0.02269829268946
N            2.57280165592748       -0.40574039445208        0.25228933529414
C            4.02235206227520       -0.32433810096383        0.36506936058297
C            4.64115140428218       -1.70210398009735        0.22494586117758
O            4.52220661645828       -2.23769127122281       -1.10347254116759
H           -5.61342453689688       -1.31318200272788       -0.32613331286721
H           -4.16731053950130       -3.32913823728586       -0.29854288061853
H           -1.70828525331765       -3.09055479900658       -0.13879459083414
H           -4.58771076148900        0.94270809607818       -0.19276107770080
H           -0.60908368299378        3.77823332598797        0.19752597986976
H            1.85291031666017        4.05625841284108        0.42003120332882
H            3.32682808392862        2.11026800336532        0.45492842255380
H            2.12438840869208       -1.31526855970901        0.18451647549192
H            4.31388685558319        0.08925150983145        1.34120477828025
H            4.43241102915279        0.33425463144276       -0.41147924014356
H            4.20600819695605       -2.39484825636873        0.95802460764873
H            5.71190063650675       -1.61811623137604        0.42857339474549
H            3.61702708729184       -2.55089099621306       -1.22383525245190
33
 energy: -897.809019176723 gnorm: 0.000458783657 xtb: 6.7.1 (edcfbbe)
C           -4.53593047761155       -1.20786452329535       -0.25627845816797
C           -3.72191567382872       -2.34138198965193       -0.24072813813156
C           -2.34239485811816       -2.21163493356961       -0.15099692100687
C           -1.75698870884379       -0.94534709607152       -0.07459000832880
C           -2.57806737657842        0.19449538085448       -0.08939918580687
C           -3.96571696400916        0.05466807605764       -0.18174224177941
C           -1.98166968430245        1.54005588379392       -0.01070374346024
O           -2.69090840419879        2.55077346614429       -0.04451245138640
C           -0.50637833318554        1.64285525440252        0.11041848054305
C            0.04098534216214        2.91203165703630        0.21104989664131
C            1.42554470988763        3.06235946850353        0.33436438642772
C            2.25826373300896        1.96763069372624        0.35201762777292
C            1.73843271710824        0.65084941021294        0.24070418340769
C            0.31603558437973        0.48358925172181        0.12276922888759
C           -0.28039979982060       -0.83451378608008        0.02348115219814
O            0.40003392471850       -1.88484692723183        0.02269829268946
N            2.57280165592748       -0.40574039445208        0.25228933529414
C            4.02235206227520       -0.32433810096383        0.36506936058297
C            4.64115140428218       -1.70210398009735        0.22494586117758
O            4.52220661645828       -2.23769127122281       -1.10347254116759
H           -5.61342453689688       -1.31318200272788       -0.32613331286721
H           -4.16731053950130       -3.32913823728586       -0.29854288061853
H           -1.70828525331765       -3.09055479900658       -0.13879459083414
H           -4.58771076148900        0.94270809607818       -0.19276107770080
H           -0.60908368299378        3.77823332598797        0.19752597986976
H            1.85291031666017        4.05625841284108        0.42003120332882
H            3.32682808392862        2.11026800336532        0.45492842255380
H            2.12438840869208       -1.31526855970901        0.18451647549192
H            4.31388685558319        0.08925150983145        1.34120477828025
H            4.43241102915279        0.33425463144276       -0.41147924014356
H            4.20600819695605       -2.39484825636873        0.95802460764873
H            5.71190063650675       -1.61811623137604        0.42857339474549
H            3.61702708729184       -2.55089099621306       -1.22383525245190
