      -----------------------------------------------------------      
     |                   =====================                   |     
     |                           x T B                           |     
     |                   =====================                   |     
     |                         S. Grimme                         |     
     |          Mulliken Center for Theoretical Chemistry        |     
     |                    University of Bonn                     |     
      -----------------------------------------------------------      

   * xtb version 6.7.1 (edcfbbe) compiled by 'albert@albert-system' on 2024-07-22

   xtb is free software: you can redistribute it and/or modify it under
   the terms of the GNU Lesser General Public License as published by
   the Free Software Foundation, either version 3 of the License, or
   (at your option) any later version.
   
   xtb is distributed in the hope that it will be useful,
   but WITHOUT ANY WARRANTY; without even the implied warranty of
   MERCHANTABILITY or FITNESS FOR A PARTICULAR PURPOSE.  See the
   GNU Lesser General Public License for more details.
   
   Cite this work as:
   * C. Bannwarth, E. Caldeweyher, S. Ehlert, A. Hansen, P. Pracht,
     J. Seibert, S. Spicher, S. Grimme, WIREs Comput. Mol. Sci., 2020, 11,
     e01493. DOI: 10.1002/wcms.1493
   
   for GFN2-xTB:
   * C. Bannwarth, S. Ehlert and S. Grimme., J. Chem. Theory Comput., 2019,
     15, 1652-1671. DOI: 10.1021/acs.jctc.8b01176
   for GFN1-xTB:
   * S. Grimme, C. Bannwarth, P. Shushkov, J. Chem. Theory Comput., 2017,
     13, 1989-2009. DOI: 10.1021/acs.jctc.7b00118
   for GFN0-xTB:
   * P. Pracht, E. Caldeweyher, S. Ehlert, S. Grimme, ChemRxiv, 2019, preprint.
     DOI: 10.26434/chemrxiv.8326202.v1
   for GFN-FF:
   * S. Spicher and S. Grimme, Angew. Chem. Int. Ed., 2020, 59, 15665-15673.
     DOI: 10.1002/anie.202004239
   
   for ALPB and GBSA implicit solvation:
   * S. Ehlert, M. Stahn, S. Spicher, S. Grimme, J. Chem. Theory Comput.,
     2021, 17, 4250-4261. DOI: 10.1021/acs.jctc.1c00471
   
   for ddCOSMO and CPCM-X implicit solvation:
   * M. Stahn, S. Ehlert, S. Grimme, J. Phys. Chem. A,
     2023, XX, XXXX-XXXX. DOI: 10.1021/acs.jpca.3c04382
   
   for DFT-D4:
   * E. Caldeweyher, C. Bannwarth and S. Grimme, J. Chem. Phys., 2017,
     147, 034112. DOI: 10.1063/1.4993215
   * E. Caldeweyher, S. Ehlert, A. Hansen, H. Neugebauer, S. Spicher,
     C. Bannwarth and S. Grimme, J. Chem. Phys., 2019, 150, 154122.
     DOI: 10.1063/1.5090222
   * E. Caldeweyher, J.-M. Mewes, S. Ehlert and S. Grimme, Phys. Chem. Chem. Phys.
     2020, 22, 8499-8512. DOI: 10.1039/D0CP00502A
   
   for sTDA-xTB:
   * S. Grimme and C. Bannwarth, J. Chem. Phys., 2016, 145, 054103.
     DOI: 10.1063/1.4959605
   
   in the mass-spec context:
   * V. Asgeirsson, C. Bauer and S. Grimme, Chem. Sci., 2017, 8, 4879.
     DOI: 10.1039/c7sc00601b
   * J. Koopman and S. Grimme, ACS Omega 2019, 4, 12, 15120-15133.
     DOI: 10.1021/acsomega.9b02011
   
   for metadynamics refer to:
   * S. Grimme, J. Chem. Theory Comput., 2019, 155, 2847-2862
     DOI: 10.1021/acs.jctc.9b00143
   
   for SPH calculations refer to:
   * S. Spicher and S. Grimme, J. Chem. Theory Comput., 2021, 17, 1701-1714
     DOI: 10.1021/acs.jctc.0c01306
   
   for ONIOM refer to:
   * C. Plett, A. Katbashev, S. Ehlert, S. Grimme, M. Bursch,
     Phys. Chem. Chem. Phys., 2023, 25, 17860-17868. DOI: 10.1039/D3CP02178E
   
   for DIPRO refer to:
   * J. Kohn, N. Gildemeister, S. Grimme, D. Fazzi, A. Hansen,
     J. Chem. Phys., 2023, just accepted.
   
   for PTB refer to:
   * S. Grimme, M. Mueller, A. Hansen, J. Chem. Phys., 2023, 158, 124111.
     DOI: 10.1063/5.0137838
   
   with help from (in alphabetical order)
   P. Atkinson, C. Bannwarth, F. Bohle, G. Brandenburg, E. Caldeweyher
   M. Checinski, S. Dohm, S. Ehlert, S. Ehrlich, I. Gerasimov, C. Hölzer
   A. Katbashev, J. Kohn, J. Koopman, C. Lavigne, S. Lehtola, F. März, M. Müller,
   F. Musil, H. Neugebauer, J. Pisarek, C. Plett, P. Pracht, F. Pultar,
   J. Seibert, P. Shushkov, S. Spicher, M. Stahn, M. Steiner, T. Strunk,
   J. Stückrath, T. Rose, and J. Unsleber
   
 * started run on 2025/04/11 at 15:53:54.663     
   ID    Z sym.   atoms
    1    6 C      1-4, 7, 8
    2    8 O      5, 6
    3    1 H      9-20

           -------------------------------------------------
          |                Calculation Setup                |
           -------------------------------------------------

          program call               : /srv/scratch/z5358697/.xtb/bin/xtb solv.coord --gfn2 --sp --chrg 0 --norestart --parallel 1 --alpb water reference -I xtb_sp-xcontrol-inp
          hostname                   : k061
          coordinate file            : solv.coord
          omp threads                :                     1


           -------------------------------------------------
          |                 G F N 2 - x T B                 |
           -------------------------------------------------

        Reference                      10.1021/acs.jctc.8b01176
      * Hamiltonian:
        H0-scaling (s, p, d)           1.850000    2.230000    2.230000
        zeta-weighting                 0.500000
      * Dispersion:
        s8                             2.700000
        a1                             0.520000
        a2                             5.000000
        s9                             5.000000
      * Repulsion:
        kExp                           1.500000    1.000000
        rExp                           1.000000
      * Coulomb:
        alpha                          2.000000
        third order                    shell-resolved
        anisotropic                    true
        a3                             3.000000
        a5                             4.000000
        cn-shift                       1.200000
        cn-exp                         4.000000
        max-rad                        5.000000

      * Solvation model:               ALPB
        Solvent                        water
        Parameter file                 internal GFN2-xTB/ALPB
        Dielectric constant                8.0200E+01
        Reference state                gsolv=reference [X=1]
        Free energy shift                  2.8945E-03 Eh       1.8164E+00 kcal/mol
        Temperature                        2.9815E+02 K
        Density                            1.0000E+00 kg/L
        Solvent mass                       1.8000E+01 g/mol
        Interaction kernel             P16
        Born radius scaling (c1)           1.4744E+00
        Born radii integrator          GBOBC
        Born offset                        0.0000E+00 a0       0.0000E+00 AA
        H-bond correction              true
        Ion screening                  false
        Surface tension                    1.0000E-05 Eh       1.5569E+01 dyn/cm
        Grid points                               974 per atom

          ...................................................
          :                      SETUP                      :
          :.................................................:
          :  # basis functions                  44          :
          :  # atomic orbitals                  44          :
          :  # shells                           28          :
          :  # electrons                        48          :
          :  max. iterations                   250          :
          :  Hamiltonian                  GFN2-xTB          :
          :  restarted?                      false          :
          :  GBSA solvation                   true          :
          :  PC potential                    false          :
          :  electronic temp.          300.0000000     K    :
          :  accuracy                    1.0000000          :
          :  -> integral cutoff          0.2500000E+02      :
          :  -> integral neglect         0.1000000E-07      :
          :  -> SCF convergence          0.1000000E-05 Eh   :
          :  -> wf. convergence          0.1000000E-03 e    :
          :  Broyden damping             0.4000000          :
          :  net charge                          0          :
          :  unpaired electrons                  0          :
          ...................................................

 iter      E             dE          RMSdq      gap      omega  full diag
   1    -27.3725890 -0.273726E+02  0.393E+00    5.75       0.0  T
   2    -27.4338462 -0.612571E-01  0.197E+00    4.82       1.0  T
   3    -27.4356575 -0.181134E-02  0.100E+00    5.12       1.0  T
   4    -27.4370213 -0.136386E-02  0.163E-01    4.89       1.0  T
   5    -27.4372242 -0.202886E-03  0.693E-02    4.94       1.0  T
   6    -27.4372263 -0.209809E-05  0.230E-02    4.94       1.0  T
   7    -27.4372274 -0.106854E-05  0.435E-03    4.94       5.1  T
   8    -27.4372274 -0.309008E-07  0.251E-03    4.94       8.9  T
   9    -27.4372274 -0.107340E-07  0.408E-04    4.94      54.9  T
  10    -27.4372274 -0.427697E-09  0.216E-04    4.94     103.5  T

   *** convergence criteria satisfied after 10 iterations ***

         #    Occupation            Energy/Eh            Energy/eV
      -------------------------------------------------------------
         1        2.0000           -0.7499993             -20.4085
       ...           ...                  ...                  ...
        18        2.0000           -0.4717026             -12.8357
        19        2.0000           -0.4637996             -12.6206
        20        2.0000           -0.4492685             -12.2252
        21        2.0000           -0.4466173             -12.1531
        22        2.0000           -0.4396537             -11.9636
        23        2.0000           -0.4371907             -11.8966
        24        2.0000           -0.4197423             -11.4218 (HOMO)
        25                         -0.2382247              -6.4824 (LUMO)
        26                         -0.0043165              -0.1175
        27                          0.0952837               2.5928
        28                          0.1057031               2.8763
        29                          0.1253603               3.4112
       ...                                ...                  ...
        44                          0.6129842              16.6801
      -------------------------------------------------------------
                  HL-Gap            0.1815175 Eh            4.9393 eV
             Fermi-level           -0.3289835 Eh           -8.9521 eV

 SCC (total)                   0 d,  0 h,  0 min,  0.031 sec
 SCC setup                      ...        0 min,  0.003 sec ( 10.861%)
 Dispersion                     ...        0 min,  0.000 sec (  0.859%)
 classical contributions        ...        0 min,  0.000 sec (  0.191%)
 integral evaluation            ...        0 min,  0.002 sec (  7.844%)
 iterations                     ...        0 min,  0.018 sec ( 58.943%)
 molecular gradient             ...        0 min,  0.006 sec ( 20.706%)
 printout                       ...        0 min,  0.000 sec (  0.519%)

         :::::::::::::::::::::::::::::::::::::::::::::::::::::
         ::                     SUMMARY                     ::
         :::::::::::::::::::::::::::::::::::::::::::::::::::::
         :: total energy             -27.120675468370 Eh    ::
         :: total w/o Gsasa/hb       -27.122432111430 Eh    ::
         :: gradient norm              0.000186146073 Eh/a0 ::
         :: HOMO-LUMO gap              4.939343506740 eV    ::
         ::.................................................::
         :: SCC energy               -27.437174129220 Eh    ::
         :: -> isotropic ES            0.059389400694 Eh    ::
         :: -> anisotropic ES          0.000756364535 Eh    ::
         :: -> anisotropic XC          0.008133045436 Eh    ::
         :: -> dispersion             -0.011622793883 Eh    ::
         :: -> Gsolv                  -0.007492030352 Eh    ::
         ::    -> Gelec               -0.009248673412 Eh    ::
         ::    -> Gsasa                0.001119154798 Eh    ::
         ::    -> Ghb                 -0.002257060898 Eh    ::
         ::    -> Gshift               0.002894549160 Eh    ::
         :: repulsion energy           0.316498660851 Eh    ::
         :: add. restraining           0.000000000000 Eh    ::
         :: total charge              -0.000000000000 e     ::
         :::::::::::::::::::::::::::::::::::::::::::::::::::::

           -------------------------------------------------
          |                Property Printout                |
           -------------------------------------------------

    * Orbital Energies and Occupations

         #    Occupation            Energy/Eh            Energy/eV
      -------------------------------------------------------------
         1        2.0000           -0.7499993             -20.4085
       ...           ...                  ...                  ...
        12        2.0000           -0.5276807             -14.3589
        13        2.0000           -0.5114196             -13.9164
        14        2.0000           -0.5024113             -13.6713
        15        2.0000           -0.4916109             -13.3774
        16        2.0000           -0.4839514             -13.1690
        17        2.0000           -0.4765545             -12.9677
        18        2.0000           -0.4717026             -12.8357
        19        2.0000           -0.4637996             -12.6206
        20        2.0000           -0.4492685             -12.2252
        21        2.0000           -0.4466173             -12.1531
        22        2.0000           -0.4396537             -11.9636
        23        2.0000           -0.4371907             -11.8966
        24        2.0000           -0.4197423             -11.4218 (HOMO)
        25                         -0.2382247              -6.4824 (LUMO)
        26                         -0.0043165              -0.1175
        27                          0.0952837               2.5928
        28                          0.1057031               2.8763
        29                          0.1253603               3.4112
        30                          0.1302358               3.5439
        31                          0.1499692               4.0809
        32                          0.1522503               4.1429
        33                          0.1533000               4.1715
        34                          0.1618664               4.4046
        35                          0.1809638               4.9243
       ...                                ...                  ...
        44                          0.6129842              16.6801
      -------------------------------------------------------------
                  HL-Gap            0.1815175 Eh            4.9393 eV
             Fermi-level           -0.3289835 Eh           -8.9521 eV

     #   Z          covCN         q      C6AA      α(0)
     1   6 C        3.752    -0.113    22.714     6.796
     2   6 C        3.802    -0.056    21.579     6.614
     3   6 C        3.804    -0.101    22.429     6.742
     4   6 C        2.715     0.366    20.792     7.464
     5   8 O        0.856    -0.493    23.635     6.518
     6   8 O        1.704    -0.268    18.440     5.798
     7   6 C        3.695     0.078    19.443     6.308
     8   6 C        3.752    -0.134    23.130     6.859
     9   1 H        0.925     0.049     2.330     2.387
    10   1 H        0.925     0.027     2.623     2.533
    11   1 H        0.925     0.051     2.313     2.378
    12   1 H        0.924     0.059     2.208     2.324
    13   1 H        0.924     0.046     2.376     2.410
    14   1 H        0.925     0.080     1.983     2.202
    15   1 H        0.924     0.084     1.939     2.178
    16   1 H        0.924     0.054     2.267     2.355
    17   1 H        0.924     0.056     2.246     2.344
    18   1 H        0.925     0.072     2.066     2.248
    19   1 H        0.925     0.070     2.089     2.260
    20   1 H        0.925     0.073     2.054     2.241

 Mol. C6AA /au·bohr⁶  :       2998.428069
 Mol. C8AA /au·bohr⁸  :      63844.719277
 Mol. α(0) /au        :         80.958282


Wiberg/Mayer (AO) data.
largest (>0.10) Wiberg bond orders for each atom

 ---------------------------------------------------------------------------
     #   Z sym  total        # sym  WBO       # sym  WBO       # sym  WBO
 ---------------------------------------------------------------------------
     1   6 C    3.995 --     2 C    1.021    10 H    0.988    11 H    0.986
                             9 H    0.986
     2   6 C    3.992 --     1 C    1.021     3 C    0.984    13 H    0.978
                            12 H    0.975
     3   6 C    3.988 --     2 C    0.984     4 C    0.978    14 H    0.972
                            15 H    0.951
     4   6 C    3.902 --     5 O    1.690     6 O    1.171     3 C    0.978
     5   8 O    1.967 --     4 C    1.690     6 O    0.171
     6   8 O    2.321 --     4 C    1.171     7 C    0.919     5 O    0.171
     7   6 C    3.914 --     8 C    1.019    16 H    0.969    17 H    0.968
                             6 O    0.919
     8   6 C    3.985 --     7 C    1.019    19 H    0.984    18 H    0.983
                            20 H    0.980
     9   1 H    0.998 --     1 C    0.986
    10   1 H    0.999 --     1 C    0.988
    11   1 H    0.997 --     1 C    0.986
    12   1 H    0.996 --     2 C    0.975
    13   1 H    0.998 --     2 C    0.978
    14   1 H    0.994 --     3 C    0.972
    15   1 H    0.993 --     3 C    0.951
    16   1 H    0.997 --     7 C    0.969
    17   1 H    0.997 --     7 C    0.968
    18   1 H    0.995 --     8 C    0.983
    19   1 H    0.995 --     8 C    0.984
    20   1 H    0.994 --     8 C    0.980
 ---------------------------------------------------------------------------

Topologies differ in total number of bonds
Writing topology from bond orders to xtbtopo.mol

molecular dipole:
                 x           y           z       tot (Debye)
 q only:        0.229      -0.838       0.972
   full:        0.240      -0.752       0.943       3.126
molecular quadrupole (traceless):
                xx          xy          yy          xz          yz          zz
 q only:        9.809      -2.335      -4.330      -1.575       3.892      -5.479
  q+dip:        8.110      -1.111      -3.608      -1.781       4.923      -4.501
   full:        8.408      -1.154      -3.345      -1.685       5.319      -5.063


           -------------------------------------------------
          | TOTAL ENERGY              -27.120675468370 Eh   |
          | GRADIENT NORM               0.000186146073 Eh/α |
          | HOMO-LUMO GAP               4.939343506740 eV   |
           -------------------------------------------------

------------------------------------------------------------------------
 * finished run on 2025/04/11 at 15:53:54.750     
------------------------------------------------------------------------
 total:
 * wall-time:     0 d,  0 h,  0 min,  0.086 sec
 *  cpu-time:     0 d,  0 h,  0 min,  0.035 sec
 * ratio c/w:     0.409 speedup
 SCF:
 * wall-time:     0 d,  0 h,  0 min,  0.031 sec
 *  cpu-time:     0 d,  0 h,  0 min,  0.022 sec
 * ratio c/w:     0.696 speedup

