      -----------------------------------------------------------      
     |                   =====================                   |     
     |                           x T B                           |     
     |                   =====================                   |     
     |                         S. Grimme                         |     
     |          Mulliken Center for Theoretical Chemistry        |     
     |                    University of Bonn                     |     
      -----------------------------------------------------------      

   * xtb version 6.7.1 (edcfbbe) compiled by 'albert@albert-system' on 2024-07-22

   xtb is free software: you can redistribute it and/or modify it under
   the terms of the GNU Lesser General Public License as published by
   the Free Software Foundation, either version 3 of the License, or
   (at your option) any later version.
   
   xtb is distributed in the hope that it will be useful,
   but WITHOUT ANY WARRANTY; without even the implied warranty of
   MERCHANTABILITY or FITNESS FOR A PARTICULAR PURPOSE.  See the
   GNU Lesser General Public License for more details.
   
   Cite this work as:
   * C. Bannwarth, E. Caldeweyher, S. Ehlert, A. Hansen, P. Pracht,
     J. Seibert, S. Spicher, S. Grimme, WIREs Comput. Mol. Sci., 2020, 11,
     e01493. DOI: 10.1002/wcms.1493
   
   for GFN2-xTB:
   * C. Bannwarth, S. Ehlert and S. Grimme., J. Chem. Theory Comput., 2019,
     15, 1652-1671. DOI: 10.1021/acs.jctc.8b01176
   for GFN1-xTB:
   * S. Grimme, C. Bannwarth, P. Shushkov, J. Chem. Theory Comput., 2017,
     13, 1989-2009. DOI: 10.1021/acs.jctc.7b00118
   for GFN0-xTB:
   * P. Pracht, E. Caldeweyher, S. Ehlert, S. Grimme, ChemRxiv, 2019, preprint.
     DOI: 10.26434/chemrxiv.8326202.v1
   for GFN-FF:
   * S. Spicher and S. Grimme, Angew. Chem. Int. Ed., 2020, 59, 15665-15673.
     DOI: 10.1002/anie.202004239
   
   for ALPB and GBSA implicit solvation:
   * S. Ehlert, M. Stahn, S. Spicher, S. Grimme, J. Chem. Theory Comput.,
     2021, 17, 4250-4261. DOI: 10.1021/acs.jctc.1c00471
   
   for ddCOSMO and CPCM-X implicit solvation:
   * M. Stahn, S. Ehlert, S. Grimme, J. Phys. Chem. A,
     2023, XX, XXXX-XXXX. DOI: 10.1021/acs.jpca.3c04382
   
   for DFT-D4:
   * E. Caldeweyher, C. Bannwarth and S. Grimme, J. Chem. Phys., 2017,
     147, 034112. DOI: 10.1063/1.4993215
   * E. Caldeweyher, S. Ehlert, A. Hansen, H. Neugebauer, S. Spicher,
     C. Bannwarth and S. Grimme, J. Chem. Phys., 2019, 150, 154122.
     DOI: 10.1063/1.5090222
   * E. Caldeweyher, J.-M. Mewes, S. Ehlert and S. Grimme, Phys. Chem. Chem. Phys.
     2020, 22, 8499-8512. DOI: 10.1039/D0CP00502A
   
   for sTDA-xTB:
   * S. Grimme and C. Bannwarth, J. Chem. Phys., 2016, 145, 054103.
     DOI: 10.1063/1.4959605
   
   in the mass-spec context:
   * V. Asgeirsson, C. Bauer and S. Grimme, Chem. Sci., 2017, 8, 4879.
     DOI: 10.1039/c7sc00601b
   * J. Koopman and S. Grimme, ACS Omega 2019, 4, 12, 15120-15133.
     DOI: 10.1021/acsomega.9b02011
   
   for metadynamics refer to:
   * S. Grimme, J. Chem. Theory Comput., 2019, 155, 2847-2862
     DOI: 10.1021/acs.jctc.9b00143
   
   for SPH calculations refer to:
   * S. Spicher and S. Grimme, J. Chem. Theory Comput., 2021, 17, 1701-1714
     DOI: 10.1021/acs.jctc.0c01306
   
   for ONIOM refer to:
   * C. Plett, A. Katbashev, S. Ehlert, S. Grimme, M. Bursch,
     Phys. Chem. Chem. Phys., 2023, 25, 17860-17868. DOI: 10.1039/D3CP02178E
   
   for DIPRO refer to:
   * J. Kohn, N. Gildemeister, S. Grimme, D. Fazzi, A. Hansen,
     J. Chem. Phys., 2023, just accepted.
   
   for PTB refer to:
   * S. Grimme, M. Mueller, A. Hansen, J. Chem. Phys., 2023, 158, 124111.
     DOI: 10.1063/5.0137838
   
   with help from (in alphabetical order)
   P. Atkinson, C. Bannwarth, F. Bohle, G. Brandenburg, E. Caldeweyher
   M. Checinski, S. Dohm, S. Ehlert, S. Ehrlich, I. Gerasimov, C. Hölzer
   A. Katbashev, J. Kohn, J. Koopman, C. Lavigne, S. Lehtola, F. März, M. Müller,
   F. Musil, H. Neugebauer, J. Pisarek, C. Plett, P. Pracht, F. Pultar,
   J. Seibert, P. Shushkov, S. Spicher, M. Stahn, M. Steiner, T. Strunk,
   J. Stückrath, T. Rose, and J. Unsleber
   
 * started run on 2025/04/11 at 15:54:36.152     
   ID    Z sym.   atoms
    1    6 C      1-5
    2   17 Cl     6
    3    1 H      7-17

           -------------------------------------------------
          |                Calculation Setup                |
           -------------------------------------------------

          program call               : /srv/scratch/z5358697/.xtb/bin/xtb gas.coord --gfn2 --sp --chrg 0 --norestart --parallel 1
          hostname                   : k124
          coordinate file            : gas.coord
          omp threads                :                     1


           -------------------------------------------------
          |                 G F N 2 - x T B                 |
           -------------------------------------------------

        Reference                      10.1021/acs.jctc.8b01176
      * Hamiltonian:
        H0-scaling (s, p, d)           1.850000    2.230000    2.230000
        zeta-weighting                 0.500000
      * Dispersion:
        s8                             2.700000
        a1                             0.520000
        a2                             5.000000
        s9                             5.000000
      * Repulsion:
        kExp                           1.500000    1.000000
        rExp                           1.000000
      * Coulomb:
        alpha                          2.000000
        third order                    shell-resolved
        anisotropic                    true
        a3                             3.000000
        a5                             4.000000
        cn-shift                       1.200000
        cn-exp                         4.000000
        max-rad                        5.000000


          ...................................................
          :                      SETUP                      :
          :.................................................:
          :  # basis functions                  41          :
          :  # atomic orbitals                  40          :
          :  # shells                           24          :
          :  # electrons                        38          :
          :  max. iterations                   250          :
          :  Hamiltonian                  GFN2-xTB          :
          :  restarted?                      false          :
          :  GBSA solvation                  false          :
          :  PC potential                    false          :
          :  electronic temp.          300.0000000     K    :
          :  accuracy                    1.0000000          :
          :  -> integral cutoff          0.2500000E+02      :
          :  -> integral neglect         0.1000000E-07      :
          :  -> SCF convergence          0.1000000E-05 Eh   :
          :  -> wf. convergence          0.1000000E-03 e    :
          :  Broyden damping             0.4000000          :
          :  net charge                          0          :
          :  unpaired electrons                  0          :
          ...................................................

 iter      E             dE          RMSdq      gap      omega  full diag
   1    -21.0548108 -0.210548E+02  0.338E+00    7.38       0.0  T
   2    -21.1140290 -0.592183E-01  0.197E+00    6.75       1.0  T
   3    -21.1152934 -0.126437E-02  0.987E-01    6.88       1.0  T
   4    -21.1156120 -0.318603E-03  0.155E-01    6.80       1.0  T
   5    -21.1157226 -0.110579E-03  0.809E-02    6.82       1.0  T
   6    -21.1157353 -0.126703E-04  0.383E-02    6.81       1.0  T
   7    -21.1157411 -0.580989E-05  0.288E-02    6.80       1.0  T
   8    -21.1157484 -0.728033E-05  0.113E-02    6.79       2.1  T
   9    -21.1157493 -0.912455E-06  0.437E-03    6.78       5.6  T
  10    -21.1157494 -0.809373E-07  0.577E-04    6.78      42.0  T
  11    -21.1157494 -0.556959E-09  0.294E-04    6.78      82.4  T

   *** convergence criteria satisfied after 11 iterations ***

         #    Occupation            Energy/Eh            Energy/eV
      -------------------------------------------------------------
         1        2.0000           -1.0469980             -28.4903
       ...           ...                  ...                  ...
        13        2.0000           -0.4703823             -12.7998
        14        2.0000           -0.4485946             -12.2069
        15        2.0000           -0.4478280             -12.1860
        16        2.0000           -0.4432931             -12.0626
        17        2.0000           -0.4325476             -11.7702
        18        2.0000           -0.4099101             -11.1542
        19        2.0000           -0.4088993             -11.1267 (HOMO)
        20                         -0.1597602              -4.3473 (LUMO)
        21                          0.0190943               0.5196
        22                          0.0269701               0.7339
        23                          0.0316611               0.8615
        24                          0.0320211               0.8713
       ...                                ...                  ...
        40                          0.3056199               8.3163
      -------------------------------------------------------------
                  HL-Gap            0.2491391 Eh            6.7794 eV
             Fermi-level           -0.2843297 Eh           -7.7370 eV

 SCC (total)                   0 d,  0 h,  0 min,  0.025 sec
 SCC setup                      ...        0 min,  0.000 sec (  0.650%)
 Dispersion                     ...        0 min,  0.000 sec (  0.301%)
 classical contributions        ...        0 min,  0.000 sec (  0.068%)
 integral evaluation            ...        0 min,  0.016 sec ( 62.168%)
 iterations                     ...        0 min,  0.005 sec ( 20.791%)
 molecular gradient             ...        0 min,  0.004 sec ( 15.308%)
 printout                       ...        0 min,  0.000 sec (  0.657%)

         :::::::::::::::::::::::::::::::::::::::::::::::::::::
         ::                     SUMMARY                     ::
         :::::::::::::::::::::::::::::::::::::::::::::::::::::
         :: total energy             -20.871344370343 Eh    ::
         :: gradient norm              0.006704471888 Eh/a0 ::
         :: HOMO-LUMO gap              6.779421248549 eV    ::
         ::.................................................::
         :: SCC energy               -21.115764467910 Eh    ::
         :: -> isotropic ES            0.008015490530 Eh    ::
         :: -> anisotropic ES          0.003390732571 Eh    ::
         :: -> anisotropic XC          0.011330342782 Eh    ::
         :: -> dispersion             -0.009453649677 Eh    ::
         :: repulsion energy           0.244420097567 Eh    ::
         :: add. restraining           0.000000000000 Eh    ::
         :: total charge               0.000000000000 e     ::
         :::::::::::::::::::::::::::::::::::::::::::::::::::::

           -------------------------------------------------
          |                Property Printout                |
           -------------------------------------------------

    * Orbital Energies and Occupations

         #    Occupation            Energy/Eh            Energy/eV
      -------------------------------------------------------------
         1        2.0000           -1.0469980             -28.4903
       ...           ...                  ...                  ...
         7        2.0000           -0.5411408             -14.7252
         8        2.0000           -0.5167721             -14.0621
         9        2.0000           -0.5154936             -14.0273
        10        2.0000           -0.5083259             -13.8323
        11        2.0000           -0.4874933             -13.2654
        12        2.0000           -0.4805924             -13.0776
        13        2.0000           -0.4703823             -12.7998
        14        2.0000           -0.4485946             -12.2069
        15        2.0000           -0.4478280             -12.1860
        16        2.0000           -0.4432931             -12.0626
        17        2.0000           -0.4325476             -11.7702
        18        2.0000           -0.4099101             -11.1542
        19        2.0000           -0.4088993             -11.1267 (HOMO)
        20                         -0.1597602              -4.3473 (LUMO)
        21                          0.0190943               0.5196
        22                          0.0269701               0.7339
        23                          0.0316611               0.8615
        24                          0.0320211               0.8713
        25                          0.0711150               1.9351
        26                          0.0860234               2.3408
        27                          0.1051697               2.8618
        28                          0.1153512               3.1389
        29                          0.1419412               3.8624
        30                          0.1507436               4.1019
       ...                                ...                  ...
        40                          0.3056199               8.3163
      -------------------------------------------------------------
                  HL-Gap            0.2491391 Eh            6.7794 eV
             Fermi-level           -0.2843297 Eh           -7.7370 eV

     #   Z          covCN         q      C6AA      α(0)
     1   6 C        3.752    -0.105    22.557     6.773
     2   6 C        3.801    -0.054    21.542     6.608
     3   6 C        3.804    -0.062    21.691     6.630
     4   6 C        3.827    -0.064    21.702     6.629
     5   6 C        3.715     0.030    20.192     6.420
     6  17 Cl       0.912    -0.219   106.064    15.756
     7   1 H        0.925     0.037     2.483     2.464
     8   1 H        0.925     0.036     2.505     2.475
     9   1 H        0.925     0.036     2.505     2.475
    10   1 H        0.924     0.034     2.530     2.487
    11   1 H        0.924     0.034     2.530     2.487
    12   1 H        0.924     0.036     2.509     2.477
    13   1 H        0.924     0.036     2.509     2.477
    14   1 H        0.924     0.051     2.302     2.373
    15   1 H        0.924     0.051     2.302     2.373
    16   1 H        0.925     0.061     2.184     2.311
    17   1 H        0.925     0.061     2.184     2.311

 Mol. C6AA /au·bohr⁶  :       2551.653250
 Mol. C8AA /au·bohr⁸  :      62692.354294
 Mol. α(0) /au        :         75.526569


Wiberg/Mayer (AO) data.
largest (>0.10) Wiberg bond orders for each atom

 ---------------------------------------------------------------------------
     #   Z sym  total        # sym  WBO       # sym  WBO       # sym  WBO
 ---------------------------------------------------------------------------
     1   6 C    3.996 --     2 C    1.019     9 H    0.988     8 H    0.988
                             7 H    0.987
     2   6 C    3.997 --     1 C    1.019     3 C    1.007    10 H    0.978
                            11 H    0.978
     3   6 C    3.996 --     2 C    1.007     4 C    0.999    12 H    0.977
                            13 H    0.977
     4   6 C    3.992 --     5 C    1.017     3 C    0.999    15 H    0.975
                            14 H    0.975
     5   6 C    3.935 --     4 C    1.017    17 H    0.980    16 H    0.980
                             6 Cl   0.941
     6  17 Cl   0.983 --     5 C    0.941
     7   1 H    0.998 --     1 C    0.987
     8   1 H    0.999 --     1 C    0.988
     9   1 H    0.999 --     1 C    0.988
    10   1 H    0.999 --     2 C    0.978
    11   1 H    0.999 --     2 C    0.978
    12   1 H    0.999 --     3 C    0.977
    13   1 H    0.999 --     3 C    0.977
    14   1 H    0.997 --     4 C    0.975
    15   1 H    0.997 --     4 C    0.975
    16   1 H    0.996 --     5 C    0.980
    17   1 H    0.996 --     5 C    0.980
 ---------------------------------------------------------------------------

Topologies differ in total number of bonds
Writing topology from bond orders to xtbtopo.mol

molecular dipole:
                 x           y           z       tot (Debye)
 q only:        0.971      -0.055      -0.332
   full:        0.897      -0.046      -0.368       2.468
molecular quadrupole (traceless):
                xx          xy          yy          xz          yz          zz
 q only:       -4.793       0.418       2.007       1.838      -0.197       2.786
  q+dip:       -7.161       0.733       4.211       2.565      -0.115       2.950
   full:       -5.771       0.565       2.942       1.916      -0.142       2.829


           -------------------------------------------------
          | TOTAL ENERGY              -20.871344370343 Eh   |
          | GRADIENT NORM               0.006704471888 Eh/α |
          | HOMO-LUMO GAP               6.779421248549 eV   |
           -------------------------------------------------

------------------------------------------------------------------------
 * finished run on 2025/04/11 at 15:54:36.248     
------------------------------------------------------------------------
 total:
 * wall-time:     0 d,  0 h,  0 min,  0.096 sec
 *  cpu-time:     0 d,  0 h,  0 min,  0.020 sec
 * ratio c/w:     0.208 speedup
 SCF:
 * wall-time:     0 d,  0 h,  0 min,  0.025 sec
 *  cpu-time:     0 d,  0 h,  0 min,  0.012 sec
 * ratio c/w:     0.468 speedup

