21
 energy: -635.160771456009 gnorm: 0.002248784142 xtb: 6.7.1 (edcfbbe)
C            1.86419954906535        1.29380321333560        0.56833019545938
C            1.41081441704853        0.19524173122766       -0.38547267061767
C            2.54196008068739       -0.77722333806261       -0.70356903987521
S            0.00313830819450       -0.78631181872709        0.31615405714331
C           -1.41423590720895        0.39735737127948        0.15163695510518
C           -1.86856513054483        0.53667243432477       -1.29615476690160
C           -2.54066614921484       -0.10125109501235        1.05119332965846
H            2.66322830351454        1.88195531261761        0.10024804642362
H            1.05142558949732        1.98129189064591        0.82207553808596
H            2.25295760314231        0.86183673407509        1.49701984641907
H            1.04870688998294        0.64201615491801       -1.31896192525401
H            2.88388503056310       -1.29324322330730        0.20165133906527
H            3.39311751172857       -0.22447897058373       -1.11576274531275
H            2.23368879917521       -1.52948949475294       -1.43570372735502
H           -1.06152252697915        1.36681809748855        0.52278439073400
H           -1.05815174398743        0.87003073782222       -1.95188171373602
H           -2.24871641130505       -0.41863483533246       -1.67454772660116
H           -2.67414709831587        1.27859382916128       -1.36004821028395
H           -3.39755091548890        0.57653058553146        0.97286901435370
H           -2.23109788444561       -0.14422461478841        2.09972336365148
H           -2.87464809251817       -1.10041497300096        0.74680676427347
21
 energy: -635.160782500858 gnorm: 0.001114221424 xtb: 6.7.1 (edcfbbe)
C            1.86638292049775        1.29351944692401        0.56695628601080
C            1.40982237656310        0.19579200364268       -0.38528680384246
C            2.54119165948994       -0.77636612924884       -0.70153726575457
S            0.00328564259597       -0.78859441328998        0.31703138778022
C           -1.41301891214575        0.39746842151841        0.15114565920239
C           -1.87089060362448        0.53730132062822       -1.29485615257978
C           -2.53985514487911       -0.10191650040745        1.04908372956818
H            2.66544321421048        1.88094072627777        0.09830058546397
H            1.05420055596297        1.98080478742163        0.82103805500504
H            2.25598865332839        0.86176216630891        1.49493588067629
H            1.04933855410918        0.64184838706211       -1.31918057354635
H            2.88283185547187       -1.29131990243683        0.20368374789729
H            3.39286990343318       -0.22379737896360       -1.11291069210697
H            2.23415628336697       -1.52897534962272       -1.43341266987021
H           -1.06149370153987        1.36654299943492        0.52311364653482
H           -1.06147027472922        0.87052258303174       -1.95082685777209
H           -2.25166674552221       -0.41727211049470       -1.67314194906732
H           -2.67667425855742        1.27888428214549       -1.35765067747168
H           -3.39711592960688        0.57536977961384        0.97026036125664
H           -2.23170800279750       -0.14540945147179        2.09768608981712
H           -2.87379798615704       -1.10022898784016        0.74396007941431
21
 energy: -635.160787429595 gnorm: 0.000570012954 xtb: 6.7.1 (edcfbbe)
C            1.86851587785184        1.29354550254243        0.56535382223587
C            1.41215185445219        0.19606378884397       -0.38621065353631
C            2.54298404783912       -0.77674834934036       -0.70016724845988
S            0.00329698851374       -0.78630863455965        0.31581988759183
C           -1.41516247260587        0.39818586720860        0.15154281317875
C           -1.87322548055958        0.53839625950361       -1.29368181413737
C           -2.54146300657666       -0.10297595361775        1.04840134111310
H            2.66746355211392        1.87997830113678        0.09555829211508
H            1.05722177979670        1.98110239402877        0.82016213426998
H            2.25959591748906        0.86198083095843        1.49247638044307
H            1.05189012920396        0.64090677974814       -1.32024123455573
H            2.88297995579220       -1.28997526846815        0.20615876978638
H            3.39558398960740       -0.22462208526452       -1.11024442566801
H            2.23725660008665       -1.53012068480697       -1.43149673957945
H           -1.06342284261413        1.36637276372179        0.52438309633591
H           -1.06517530140777        0.87180633395161       -1.95055417696782
H           -2.25509602100881       -0.41549647798415       -1.67164389912159
H           -2.67928207803799        1.27963976996643       -1.35455574014432
H           -3.39943922327768        0.57335624269163        0.96893334434638
H           -2.23475092537040       -0.14754988442553        2.09715157380760
H           -2.87410373688818       -1.10065909749500        0.74124932121200
21
 energy: -635.160787429595 gnorm: 0.000570012954 xtb: 6.7.1 (edcfbbe)
C            1.86851587785184        1.29354550254243        0.56535382223587
C            1.41215185445219        0.19606378884397       -0.38621065353631
C            2.54298404783912       -0.77674834934036       -0.70016724845988
S            0.00329698851374       -0.78630863455965        0.31581988759183
C           -1.41516247260587        0.39818586720860        0.15154281317875
C           -1.87322548055958        0.53839625950361       -1.29368181413737
C           -2.54146300657666       -0.10297595361775        1.04840134111310
H            2.66746355211392        1.87997830113678        0.09555829211508
H            1.05722177979670        1.98110239402877        0.82016213426998
H            2.25959591748906        0.86198083095843        1.49247638044307
H            1.05189012920396        0.64090677974814       -1.32024123455573
H            2.88297995579220       -1.28997526846815        0.20615876978638
H            3.39558398960740       -0.22462208526452       -1.11024442566801
H            2.23725660008665       -1.53012068480697       -1.43149673957945
H           -1.06342284261413        1.36637276372179        0.52438309633591
H           -1.06517530140777        0.87180633395161       -1.95055417696782
H           -2.25509602100881       -0.41549647798415       -1.67164389912159
H           -2.67928207803799        1.27963976996643       -1.35455574014432
H           -3.39943922327768        0.57335624269163        0.96893334434638
H           -2.23475092537040       -0.14754988442553        2.09715157380760
H           -2.87410373688818       -1.10065909749500        0.74124932121200
