      -----------------------------------------------------------      
     |                   =====================                   |     
     |                           x T B                           |     
     |                   =====================                   |     
     |                         S. Grimme                         |     
     |          Mulliken Center for Theoretical Chemistry        |     
     |                    University of Bonn                     |     
      -----------------------------------------------------------      

   * xtb version 6.7.1 (edcfbbe) compiled by 'albert@albert-system' on 2024-07-22

   xtb is free software: you can redistribute it and/or modify it under
   the terms of the GNU Lesser General Public License as published by
   the Free Software Foundation, either version 3 of the License, or
   (at your option) any later version.
   
   xtb is distributed in the hope that it will be useful,
   but WITHOUT ANY WARRANTY; without even the implied warranty of
   MERCHANTABILITY or FITNESS FOR A PARTICULAR PURPOSE.  See the
   GNU Lesser General Public License for more details.
   
   Cite this work as:
   * C. Bannwarth, E. Caldeweyher, S. Ehlert, A. Hansen, P. Pracht,
     J. Seibert, S. Spicher, S. Grimme, WIREs Comput. Mol. Sci., 2020, 11,
     e01493. DOI: 10.1002/wcms.1493
   
   for GFN2-xTB:
   * C. Bannwarth, S. Ehlert and S. Grimme., J. Chem. Theory Comput., 2019,
     15, 1652-1671. DOI: 10.1021/acs.jctc.8b01176
   for GFN1-xTB:
   * S. Grimme, C. Bannwarth, P. Shushkov, J. Chem. Theory Comput., 2017,
     13, 1989-2009. DOI: 10.1021/acs.jctc.7b00118
   for GFN0-xTB:
   * P. Pracht, E. Caldeweyher, S. Ehlert, S. Grimme, ChemRxiv, 2019, preprint.
     DOI: 10.26434/chemrxiv.8326202.v1
   for GFN-FF:
   * S. Spicher and S. Grimme, Angew. Chem. Int. Ed., 2020, 59, 15665-15673.
     DOI: 10.1002/anie.202004239
   
   for ALPB and GBSA implicit solvation:
   * S. Ehlert, M. Stahn, S. Spicher, S. Grimme, J. Chem. Theory Comput.,
     2021, 17, 4250-4261. DOI: 10.1021/acs.jctc.1c00471
   
   for ddCOSMO and CPCM-X implicit solvation:
   * M. Stahn, S. Ehlert, S. Grimme, J. Phys. Chem. A,
     2023, XX, XXXX-XXXX. DOI: 10.1021/acs.jpca.3c04382
   
   for DFT-D4:
   * E. Caldeweyher, C. Bannwarth and S. Grimme, J. Chem. Phys., 2017,
     147, 034112. DOI: 10.1063/1.4993215
   * E. Caldeweyher, S. Ehlert, A. Hansen, H. Neugebauer, S. Spicher,
     C. Bannwarth and S. Grimme, J. Chem. Phys., 2019, 150, 154122.
     DOI: 10.1063/1.5090222
   * E. Caldeweyher, J.-M. Mewes, S. Ehlert and S. Grimme, Phys. Chem. Chem. Phys.
     2020, 22, 8499-8512. DOI: 10.1039/D0CP00502A
   
   for sTDA-xTB:
   * S. Grimme and C. Bannwarth, J. Chem. Phys., 2016, 145, 054103.
     DOI: 10.1063/1.4959605
   
   in the mass-spec context:
   * V. Asgeirsson, C. Bauer and S. Grimme, Chem. Sci., 2017, 8, 4879.
     DOI: 10.1039/c7sc00601b
   * J. Koopman and S. Grimme, ACS Omega 2019, 4, 12, 15120-15133.
     DOI: 10.1021/acsomega.9b02011
   
   for metadynamics refer to:
   * S. Grimme, J. Chem. Theory Comput., 2019, 155, 2847-2862
     DOI: 10.1021/acs.jctc.9b00143
   
   for SPH calculations refer to:
   * S. Spicher and S. Grimme, J. Chem. Theory Comput., 2021, 17, 1701-1714
     DOI: 10.1021/acs.jctc.0c01306
   
   for ONIOM refer to:
   * C. Plett, A. Katbashev, S. Ehlert, S. Grimme, M. Bursch,
     Phys. Chem. Chem. Phys., 2023, 25, 17860-17868. DOI: 10.1039/D3CP02178E
   
   for DIPRO refer to:
   * J. Kohn, N. Gildemeister, S. Grimme, D. Fazzi, A. Hansen,
     J. Chem. Phys., 2023, just accepted.
   
   for PTB refer to:
   * S. Grimme, M. Mueller, A. Hansen, J. Chem. Phys., 2023, 158, 124111.
     DOI: 10.1063/5.0137838
   
   with help from (in alphabetical order)
   P. Atkinson, C. Bannwarth, F. Bohle, G. Brandenburg, E. Caldeweyher
   M. Checinski, S. Dohm, S. Ehlert, S. Ehrlich, I. Gerasimov, C. Hölzer
   A. Katbashev, J. Kohn, J. Koopman, C. Lavigne, S. Lehtola, F. März, M. Müller,
   F. Musil, H. Neugebauer, J. Pisarek, C. Plett, P. Pracht, F. Pultar,
   J. Seibert, P. Shushkov, S. Spicher, M. Stahn, M. Steiner, T. Strunk,
   J. Stückrath, T. Rose, and J. Unsleber
   
 * started run on 2025/04/11 at 15:53:53.487     
   ID    Z sym.   atoms
    1    6 C      1-4, 7, 8
    2    8 O      5, 6
    3    1 H      9-20

           -------------------------------------------------
          |                Calculation Setup                |
           -------------------------------------------------

          program call               : /srv/scratch/z5358697/.xtb/bin/xtb gas.coord --gfn2 --sp --chrg 0 --norestart --parallel 1
          hostname                   : k061
          coordinate file            : gas.coord
          omp threads                :                     1


           -------------------------------------------------
          |                 G F N 2 - x T B                 |
           -------------------------------------------------

        Reference                      10.1021/acs.jctc.8b01176
      * Hamiltonian:
        H0-scaling (s, p, d)           1.850000    2.230000    2.230000
        zeta-weighting                 0.500000
      * Dispersion:
        s8                             2.700000
        a1                             0.520000
        a2                             5.000000
        s9                             5.000000
      * Repulsion:
        kExp                           1.500000    1.000000
        rExp                           1.000000
      * Coulomb:
        alpha                          2.000000
        third order                    shell-resolved
        anisotropic                    true
        a3                             3.000000
        a5                             4.000000
        cn-shift                       1.200000
        cn-exp                         4.000000
        max-rad                        5.000000


          ...................................................
          :                      SETUP                      :
          :.................................................:
          :  # basis functions                  44          :
          :  # atomic orbitals                  44          :
          :  # shells                           28          :
          :  # electrons                        48          :
          :  max. iterations                   250          :
          :  Hamiltonian                  GFN2-xTB          :
          :  restarted?                      false          :
          :  GBSA solvation                  false          :
          :  PC potential                    false          :
          :  electronic temp.          300.0000000     K    :
          :  accuracy                    1.0000000          :
          :  -> integral cutoff          0.2500000E+02      :
          :  -> integral neglect         0.1000000E-07      :
          :  -> SCF convergence          0.1000000E-05 Eh   :
          :  -> wf. convergence          0.1000000E-03 e    :
          :  Broyden damping             0.4000000          :
          :  net charge                          0          :
          :  unpaired electrons                  0          :
          ...................................................

 iter      E             dE          RMSdq      gap      omega  full diag
   1    -27.3571687 -0.273572E+02  0.392E+00    5.99       0.0  T
   2    -27.4269361 -0.697674E-01  0.204E+00    4.76       1.0  T
   3    -27.4301074 -0.317133E-02  0.114E+00    5.25       1.0  T
   4    -27.4324429 -0.233549E-02  0.171E-01    4.95       1.0  T
   5    -27.4327094 -0.266431E-03  0.736E-02    5.02       1.0  T
   6    -27.4327148 -0.540464E-05  0.244E-02    5.02       1.0  T
   7    -27.4327161 -0.137402E-05  0.736E-03    5.02       3.0  T
   8    -27.4327163 -0.124026E-06  0.182E-03    5.02      12.3  T
   9    -27.4327163 -0.723137E-08  0.910E-04    5.02      24.6  T
  10    -27.4327163 -0.245201E-08  0.224E-04    5.02      99.9  T

   *** convergence criteria satisfied after 10 iterations ***

         #    Occupation            Energy/Eh            Energy/eV
      -------------------------------------------------------------
         1        2.0000           -0.7405948             -20.1526
       ...           ...                  ...                  ...
        18        2.0000           -0.4726219             -12.8607
        19        2.0000           -0.4512244             -12.2784
        20        2.0000           -0.4483070             -12.1991
        21        2.0000           -0.4458629             -12.1325
        22        2.0000           -0.4436541             -12.0724
        23        2.0000           -0.4361463             -11.8681
        24        2.0000           -0.4090553             -11.1310 (HOMO)
        25                         -0.2245929              -6.1115 (LUMO)
        26                         -0.0033708              -0.0917
        27                          0.0964334               2.6241
        28                          0.1081207               2.9421
        29                          0.1186259               3.2280
       ...                                ...                  ...
        44                          0.6330722              17.2268
      -------------------------------------------------------------
                  HL-Gap            0.1844624 Eh            5.0195 eV
             Fermi-level           -0.3168241 Eh           -8.6212 eV

 SCC (total)                   0 d,  0 h,  0 min,  0.037 sec
 SCC setup                      ...        0 min,  0.000 sec (  1.315%)
 Dispersion                     ...        0 min,  0.000 sec (  0.742%)
 classical contributions        ...        0 min,  0.000 sec (  0.173%)
 integral evaluation            ...        0 min,  0.005 sec ( 13.571%)
 iterations                     ...        0 min,  0.026 sec ( 69.304%)
 molecular gradient             ...        0 min,  0.005 sec ( 14.426%)
 printout                       ...        0 min,  0.000 sec (  0.395%)

         :::::::::::::::::::::::::::::::::::::::::::::::::::::
         ::                     SUMMARY                     ::
         :::::::::::::::::::::::::::::::::::::::::::::::::::::
         :: total energy             -27.116276327989 Eh    ::
         :: gradient norm              0.025666837993 Eh/a0 ::
         :: HOMO-LUMO gap              5.019477089574 eV    ::
         ::.................................................::
         :: SCC energy               -27.432655250484 Eh    ::
         :: -> isotropic ES            0.048067156913 Eh    ::
         :: -> anisotropic ES          0.002671376502 Eh    ::
         :: -> anisotropic XC          0.007724608643 Eh    ::
         :: -> dispersion             -0.011931357450 Eh    ::
         :: repulsion energy           0.316378922496 Eh    ::
         :: add. restraining           0.000000000000 Eh    ::
         :: total charge               0.000000000000 e     ::
         :::::::::::::::::::::::::::::::::::::::::::::::::::::

           -------------------------------------------------
          |                Property Printout                |
           -------------------------------------------------

    * Orbital Energies and Occupations

         #    Occupation            Energy/Eh            Energy/eV
      -------------------------------------------------------------
         1        2.0000           -0.7405948             -20.1526
       ...           ...                  ...                  ...
        12        2.0000           -0.5180009             -14.0955
        13        2.0000           -0.5153178             -14.0225
        14        2.0000           -0.4991753             -13.5833
        15        2.0000           -0.4965707             -13.5124
        16        2.0000           -0.4884640             -13.2918
        17        2.0000           -0.4784557             -13.0194
        18        2.0000           -0.4726219             -12.8607
        19        2.0000           -0.4512244             -12.2784
        20        2.0000           -0.4483070             -12.1991
        21        2.0000           -0.4458629             -12.1325
        22        2.0000           -0.4436541             -12.0724
        23        2.0000           -0.4361463             -11.8681
        24        2.0000           -0.4090553             -11.1310 (HOMO)
        25                         -0.2245929              -6.1115 (LUMO)
        26                         -0.0033708              -0.0917
        27                          0.0964334               2.6241
        28                          0.1081207               2.9421
        29                          0.1186259               3.2280
        30                          0.1266116               3.4453
        31                          0.1467150               3.9923
        32                          0.1512612               4.1160
        33                          0.1581759               4.3042
        34                          0.1611515               4.3852
        35                          0.1754692               4.7748
       ...                                ...                  ...
        44                          0.6330722              17.2268
      -------------------------------------------------------------
                  HL-Gap            0.1844624 Eh            5.0195 eV
             Fermi-level           -0.3168241 Eh           -8.6212 eV

     #   Z          covCN         q      C6AA      α(0)
     1   6 C        3.752    -0.103    22.537     6.770
     2   6 C        3.802    -0.051    21.492     6.600
     3   6 C        3.804    -0.090    22.215     6.710
     4   6 C        2.711     0.360    20.892     7.482
     5   8 O        0.856    -0.423    22.138     6.308
     6   8 O        1.703    -0.269    18.462     5.801
     7   6 C        3.693     0.077    19.461     6.312
     8   6 C        3.750    -0.113    22.721     6.798
     9   1 H        0.925     0.038     2.474     2.460
    10   1 H        0.925     0.036     2.499     2.472
    11   1 H        0.925     0.039     2.456     2.451
    12   1 H        0.924     0.039     2.466     2.456
    13   1 H        0.924     0.055     2.260     2.351
    14   1 H        0.925     0.061     2.193     2.316
    15   1 H        0.924     0.066     2.132     2.284
    16   1 H        0.924     0.060     2.200     2.320
    17   1 H        0.924     0.056     2.252     2.347
    18   1 H        0.925     0.053     2.278     2.360
    19   1 H        0.925     0.059     2.212     2.326
    20   1 H        0.925     0.050     2.314     2.379

 Mol. C6AA /au·bohr⁶  :       3018.997394
 Mol. C8AA /au·bohr⁸  :      64017.856460
 Mol. α(0) /au        :         81.300958


Wiberg/Mayer (AO) data.
largest (>0.10) Wiberg bond orders for each atom

 ---------------------------------------------------------------------------
     #   Z sym  total        # sym  WBO       # sym  WBO       # sym  WBO
 ---------------------------------------------------------------------------
     1   6 C    3.997 --     2 C    1.021    10 H    0.987     9 H    0.987
                            11 H    0.987
     2   6 C    3.994 --     1 C    1.021     3 C    0.997    12 H    0.978
                            13 H    0.976
     3   6 C    3.994 --     2 C    0.997     4 C    0.973    14 H    0.972
                            15 H    0.949
     4   6 C    3.914 --     5 O    1.739     6 O    1.145     3 C    0.973
     5   8 O    2.023 --     4 C    1.739     6 O    0.173
     6   8 O    2.311 --     4 C    1.145     7 C    0.932     5 O    0.173
     7   6 C    3.926 --     8 C    1.014    17 H    0.973    16 H    0.970
                             6 O    0.932
     8   6 C    3.992 --     7 C    1.014    18 H    0.986    19 H    0.985
                            20 H    0.983
     9   1 H    0.999 --     1 C    0.987
    10   1 H    0.999 --     1 C    0.987
    11   1 H    0.998 --     1 C    0.987
    12   1 H    0.998 --     2 C    0.978
    13   1 H    0.997 --     2 C    0.976
    14   1 H    0.996 --     3 C    0.972
    15   1 H    0.996 --     3 C    0.949
    16   1 H    0.996 --     7 C    0.970
    17   1 H    0.997 --     7 C    0.973
    18   1 H    0.997 --     8 C    0.986
    19   1 H    0.997 --     8 C    0.985
    20   1 H    0.997 --     8 C    0.983
 ---------------------------------------------------------------------------

Topologies differ in total number of bonds
Writing topology from bond orders to xtbtopo.mol

molecular dipole:
                 x           y           z       tot (Debye)
 q only:        0.153      -0.351       0.653
   full:        0.181      -0.295       0.780       2.169
molecular quadrupole (traceless):
                xx          xy          yy          xz          yz          zz
 q only:        7.135      -1.234      -1.575      -0.597       2.481      -5.560
  q+dip:        6.349      -0.886      -1.103      -0.676       2.355      -5.246
   full:        6.530      -0.830      -0.386      -0.688       2.892      -6.144


           -------------------------------------------------
          | TOTAL ENERGY              -27.116276327989 Eh   |
          | GRADIENT NORM               0.025666837993 Eh/α |
          | HOMO-LUMO GAP               5.019477089574 eV   |
           -------------------------------------------------

------------------------------------------------------------------------
 * finished run on 2025/04/11 at 15:53:53.599     
------------------------------------------------------------------------
 total:
 * wall-time:     0 d,  0 h,  0 min,  0.110 sec
 *  cpu-time:     0 d,  0 h,  0 min,  0.032 sec
 * ratio c/w:     0.289 speedup
 SCF:
 * wall-time:     0 d,  0 h,  0 min,  0.037 sec
 *  cpu-time:     0 d,  0 h,  0 min,  0.020 sec
 * ratio c/w:     0.544 speedup

