      -----------------------------------------------------------      
     |                   =====================                   |     
     |                           x T B                           |     
     |                   =====================                   |     
     |                         S. Grimme                         |     
     |          Mulliken Center for Theoretical Chemistry        |     
     |                    University of Bonn                     |     
      -----------------------------------------------------------      

   * xtb version 6.7.1 (edcfbbe) compiled by 'albert@albert-system' on 2024-07-22

   xtb is free software: you can redistribute it and/or modify it under
   the terms of the GNU Lesser General Public License as published by
   the Free Software Foundation, either version 3 of the License, or
   (at your option) any later version.
   
   xtb is distributed in the hope that it will be useful,
   but WITHOUT ANY WARRANTY; without even the implied warranty of
   MERCHANTABILITY or FITNESS FOR A PARTICULAR PURPOSE.  See the
   GNU Lesser General Public License for more details.
   
   Cite this work as:
   * C. Bannwarth, E. Caldeweyher, S. Ehlert, A. Hansen, P. Pracht,
     J. Seibert, S. Spicher, S. Grimme, WIREs Comput. Mol. Sci., 2020, 11,
     e01493. DOI: 10.1002/wcms.1493
   
   for GFN2-xTB:
   * C. Bannwarth, S. Ehlert and S. Grimme., J. Chem. Theory Comput., 2019,
     15, 1652-1671. DOI: 10.1021/acs.jctc.8b01176
   for GFN1-xTB:
   * S. Grimme, C. Bannwarth, P. Shushkov, J. Chem. Theory Comput., 2017,
     13, 1989-2009. DOI: 10.1021/acs.jctc.7b00118
   for GFN0-xTB:
   * P. Pracht, E. Caldeweyher, S. Ehlert, S. Grimme, ChemRxiv, 2019, preprint.
     DOI: 10.26434/chemrxiv.8326202.v1
   for GFN-FF:
   * S. Spicher and S. Grimme, Angew. Chem. Int. Ed., 2020, 59, 15665-15673.
     DOI: 10.1002/anie.202004239
   
   for ALPB and GBSA implicit solvation:
   * S. Ehlert, M. Stahn, S. Spicher, S. Grimme, J. Chem. Theory Comput.,
     2021, 17, 4250-4261. DOI: 10.1021/acs.jctc.1c00471
   
   for ddCOSMO and CPCM-X implicit solvation:
   * M. Stahn, S. Ehlert, S. Grimme, J. Phys. Chem. A,
     2023, XX, XXXX-XXXX. DOI: 10.1021/acs.jpca.3c04382
   
   for DFT-D4:
   * E. Caldeweyher, C. Bannwarth and S. Grimme, J. Chem. Phys., 2017,
     147, 034112. DOI: 10.1063/1.4993215
   * E. Caldeweyher, S. Ehlert, A. Hansen, H. Neugebauer, S. Spicher,
     C. Bannwarth and S. Grimme, J. Chem. Phys., 2019, 150, 154122.
     DOI: 10.1063/1.5090222
   * E. Caldeweyher, J.-M. Mewes, S. Ehlert and S. Grimme, Phys. Chem. Chem. Phys.
     2020, 22, 8499-8512. DOI: 10.1039/D0CP00502A
   
   for sTDA-xTB:
   * S. Grimme and C. Bannwarth, J. Chem. Phys., 2016, 145, 054103.
     DOI: 10.1063/1.4959605
   
   in the mass-spec context:
   * V. Asgeirsson, C. Bauer and S. Grimme, Chem. Sci., 2017, 8, 4879.
     DOI: 10.1039/c7sc00601b
   * J. Koopman and S. Grimme, ACS Omega 2019, 4, 12, 15120-15133.
     DOI: 10.1021/acsomega.9b02011
   
   for metadynamics refer to:
   * S. Grimme, J. Chem. Theory Comput., 2019, 155, 2847-2862
     DOI: 10.1021/acs.jctc.9b00143
   
   for SPH calculations refer to:
   * S. Spicher and S. Grimme, J. Chem. Theory Comput., 2021, 17, 1701-1714
     DOI: 10.1021/acs.jctc.0c01306
   
   for ONIOM refer to:
   * C. Plett, A. Katbashev, S. Ehlert, S. Grimme, M. Bursch,
     Phys. Chem. Chem. Phys., 2023, 25, 17860-17868. DOI: 10.1039/D3CP02178E
   
   for DIPRO refer to:
   * J. Kohn, N. Gildemeister, S. Grimme, D. Fazzi, A. Hansen,
     J. Chem. Phys., 2023, just accepted.
   
   for PTB refer to:
   * S. Grimme, M. Mueller, A. Hansen, J. Chem. Phys., 2023, 158, 124111.
     DOI: 10.1063/5.0137838
   
   with help from (in alphabetical order)
   P. Atkinson, C. Bannwarth, F. Bohle, G. Brandenburg, E. Caldeweyher
   M. Checinski, S. Dohm, S. Ehlert, S. Ehrlich, I. Gerasimov, C. Hölzer
   A. Katbashev, J. Kohn, J. Koopman, C. Lavigne, S. Lehtola, F. März, M. Müller,
   F. Musil, H. Neugebauer, J. Pisarek, C. Plett, P. Pracht, F. Pultar,
   J. Seibert, P. Shushkov, S. Spicher, M. Stahn, M. Steiner, T. Strunk,
   J. Stückrath, T. Rose, and J. Unsleber
   
 * started run on 2025/04/11 at 12:31:06.907     
   ID    Z sym.   atoms
    1    6 C      1-3, 5-7
    2    7 N      4
    3    1 H      8-22

           -------------------------------------------------
          |                Calculation Setup                |
           -------------------------------------------------

          program call               : /srv/scratch/z5358697/.xtb/bin/xtb xtb_rrho.coord --gfn2 --bhess vtight --chrg 0 --enso --norestart -I rrho-xcontrol-inp --parallel 1 --alpb water
          hostname                   : k062
          coordinate file            : xtb_rrho.coord
          omp threads                :                     1


           -------------------------------------------------
          |                 G F N 2 - x T B                 |
           -------------------------------------------------

        Reference                      10.1021/acs.jctc.8b01176
      * Hamiltonian:
        H0-scaling (s, p, d)           1.850000    2.230000    2.230000
        zeta-weighting                 0.500000
      * Dispersion:
        s8                             2.700000
        a1                             0.520000
        a2                             5.000000
        s9                             5.000000
      * Repulsion:
        kExp                           1.500000    1.000000
        rExp                           1.000000
      * Coulomb:
        alpha                          2.000000
        third order                    shell-resolved
        anisotropic                    true
        a3                             3.000000
        a5                             4.000000
        cn-shift                       1.200000
        cn-exp                         4.000000
        max-rad                        5.000000

      * Solvation model:               ALPB
        Solvent                        water
        Parameter file                 internal GFN2-xTB/ALPB
        Dielectric constant                8.0200E+01
        Reference state                gsolv [1 M gas/solution]
        Free energy shift                  1.0808E-03 Eh       6.7819E-01 kcal/mol
        Temperature                        2.9815E+02 K
        Density                            1.0000E+00 kg/L
        Solvent mass                       1.8000E+01 g/mol
        Interaction kernel             P16
        Born radius scaling (c1)           1.4744E+00
        Born radii integrator          GBOBC
        Born offset                        0.0000E+00 a0       0.0000E+00 AA
        H-bond correction              true
        Ion screening                  false
        Surface tension                    1.0000E-05 Eh       1.5569E+01 dyn/cm
        Grid points                               974 per atom

          ...................................................
          :                      SETUP                      :
          :.................................................:
          :  # basis functions                  43          :
          :  # atomic orbitals                  43          :
          :  # shells                           29          :
          :  # electrons                        44          :
          :  max. iterations                   250          :
          :  Hamiltonian                  GFN2-xTB          :
          :  restarted?                      false          :
          :  GBSA solvation                   true          :
          :  PC potential                    false          :
          :  electronic temp.          300.0000000     K    :
          :  accuracy                    1.0000000          :
          :  -> integral cutoff          0.2500000E+02      :
          :  -> integral neglect         0.1000000E-07      :
          :  -> SCF convergence          0.1000000E-05 Eh   :
          :  -> wf. convergence          0.1000000E-03 e    :
          :  Broyden damping             0.4000000          :
          :  net charge                          0          :
          :  unpaired electrons                  0          :
          ...................................................

 iter      E             dE          RMSdq      gap      omega  full diag
   1    -23.7054485 -0.237054E+02  0.240E+00   10.04       0.0  T
   2    -23.7288674 -0.234189E-01  0.134E+00    9.91       1.0  T
   3    -23.7300071 -0.113970E-02  0.524E-01    9.92       1.0  T
   4    -23.7301373 -0.130203E-03  0.105E-01    9.85       1.0  T
   5    -23.7301650 -0.276655E-04  0.502E-02    9.85       1.0  T
   6    -23.7301683 -0.334700E-05  0.182E-02    9.85       1.2  T
   7    -23.7301688 -0.467963E-06  0.328E-03    9.85       6.5  T
   8    -23.7301688 -0.169788E-07  0.128E-03    9.85      16.7  T
   9    -23.7301688 -0.383250E-08  0.345E-04    9.85      61.8  T
  10    -23.7301688 -0.190280E-09  0.161E-04    9.85     132.7  T

   *** convergence criteria satisfied after 10 iterations ***

         #    Occupation            Energy/Eh            Energy/eV
      -------------------------------------------------------------
         1        2.0000           -0.6292325             -17.1223
       ...           ...                  ...                  ...
        16        2.0000           -0.4531495             -12.3308
        17        2.0000           -0.4431784             -12.0595
        18        2.0000           -0.4412428             -12.0068
        19        2.0000           -0.4326931             -11.7742
        20        2.0000           -0.4265603             -11.6073
        21        2.0000           -0.4153114             -11.3012
        22        2.0000           -0.3524522              -9.5907 (HOMO)
        23                          0.0096010               0.2613 (LUMO)
        24                          0.0672525               1.8300
        25                          0.0868736               2.3640
        26                          0.0969757               2.6388
        27                          0.1152177               3.1352
       ...                                ...                  ...
        43                          0.3216767               8.7533
      -------------------------------------------------------------
                  HL-Gap            0.3620533 Eh            9.8520 eV
             Fermi-level           -0.1714256 Eh           -4.6647 eV

 SCC (total)                   0 d,  0 h,  0 min,  0.020 sec
 SCC setup                      ...        0 min,  0.002 sec (  8.105%)
 Dispersion                     ...        0 min,  0.000 sec (  0.684%)
 classical contributions        ...        0 min,  0.000 sec (  0.153%)
 integral evaluation            ...        0 min,  0.002 sec (  9.828%)
 iterations                     ...        0 min,  0.012 sec ( 57.818%)
 molecular gradient             ...        0 min,  0.005 sec ( 22.782%)
 printout                       ...        0 min,  0.000 sec (  0.562%)

         :::::::::::::::::::::::::::::::::::::::::::::::::::::
         ::                     SUMMARY                     ::
         :::::::::::::::::::::::::::::::::::::::::::::::::::::
         :: total energy             -23.414200628625 Eh    ::
         :: total w/o Gsasa/hb       -23.412837650909 Eh    ::
         :: gradient norm              0.029295900329 Eh/a0 ::
         :: HOMO-LUMO gap              9.851970399155 eV    ::
         ::.................................................::
         :: SCC energy               -23.730082495466 Eh    ::
         :: -> isotropic ES            0.015189578228 Eh    ::
         :: -> anisotropic ES          0.009269040229 Eh    ::
         :: -> anisotropic XC          0.017746036642 Eh    ::
         :: -> dispersion             -0.014189805309 Eh    ::
         :: -> Gsolv                  -0.002366213148 Eh    ::
         ::    -> Gelec               -0.001003235432 Eh    ::
         ::    -> Gsasa               -0.001376683990 Eh    ::
         ::    -> Ghb                 -0.001067053424 Eh    ::
         ::    -> Gshift               0.001080759698 Eh    ::
         :: repulsion energy           0.315881866841 Eh    ::
         :: add. restraining           0.000000000000 Eh    ::
         :: total charge              -0.000000000000 e     ::
         :::::::::::::::::::::::::::::::::::::::::::::::::::::

metadynamics with 1 initial structures loaded
           -------------------------------------------------
          |           Optimal kpush determination           |
           -------------------------------------------------
      ----------------------------------------------------------- 
     |                   =====================                   |
     |                        A N C O P T                        |
     |                   =====================                   |
     |               Approximate Normal Coordinate               |
     |                Rational Function Optimizer                |
      ----------------------------------------------------------- 
target rmsd / Å         0.100000
unbiased initial rmsd   0.120833
 
iter. min.        max.        rmsd       kpush
      ----------------------------------------------------------- 
     |                   =====================                   |
     |                        A N C O P T                        |
     |                   =====================                   |
     |               Approximate Normal Coordinate               |
     |                Rational Function Optimizer                |
      ----------------------------------------------------------- 
 1    0.000000    1.000000    0.011753   -0.500000
      ----------------------------------------------------------- 
     |                   =====================                   |
     |                        A N C O P T                        |
     |                   =====================                   |
     |               Approximate Normal Coordinate               |
     |                Rational Function Optimizer                |
      ----------------------------------------------------------- 
 2    0.000000    0.500000    0.016654   -0.250000
      ----------------------------------------------------------- 
     |                   =====================                   |
     |                        A N C O P T                        |
     |                   =====================                   |
     |               Approximate Normal Coordinate               |
     |                Rational Function Optimizer                |
      ----------------------------------------------------------- 
 3    0.000000    0.250000    0.023454   -0.125000
      ----------------------------------------------------------- 
     |                   =====================                   |
     |                        A N C O P T                        |
     |                   =====================                   |
     |               Approximate Normal Coordinate               |
     |                Rational Function Optimizer                |
      ----------------------------------------------------------- 
 4    0.000000    0.125000    0.032035   -0.062500
      ----------------------------------------------------------- 
     |                   =====================                   |
     |                        A N C O P T                        |
     |                   =====================                   |
     |               Approximate Normal Coordinate               |
     |                Rational Function Optimizer                |
      ----------------------------------------------------------- 
 5    0.000000    0.062500    0.042408   -0.031250
      ----------------------------------------------------------- 
     |                   =====================                   |
     |                        A N C O P T                        |
     |                   =====================                   |
     |               Approximate Normal Coordinate               |
     |                Rational Function Optimizer                |
      ----------------------------------------------------------- 
 6    0.000000    0.031250    0.054043   -0.015625
      ----------------------------------------------------------- 
     |                   =====================                   |
     |                        A N C O P T                        |
     |                   =====================                   |
     |               Approximate Normal Coordinate               |
     |                Rational Function Optimizer                |
      ----------------------------------------------------------- 
 7    0.000000    0.015625    0.067335   -0.007812
      ----------------------------------------------------------- 
     |                   =====================                   |
     |                        A N C O P T                        |
     |                   =====================                   |
     |               Approximate Normal Coordinate               |
     |                Rational Function Optimizer                |
      ----------------------------------------------------------- 
 8    0.000000    0.007812    0.080704   -0.003906
      ----------------------------------------------------------- 
     |                   =====================                   |
     |                        A N C O P T                        |
     |                   =====================                   |
     |               Approximate Normal Coordinate               |
     |                Rational Function Optimizer                |
      ----------------------------------------------------------- 
 9    0.000000    0.003906    0.090347   -0.001953
      ----------------------------------------------------------- 
     |                   =====================                   |
     |                        A N C O P T                        |
     |                   =====================                   |
     |               Approximate Normal Coordinate               |
     |                Rational Function Optimizer                |
      ----------------------------------------------------------- 
10    0.000000    0.001953    0.100212   -0.000977
final kpush: -0.000977
           -------------------------------------------------
          |            Biased Numerical Hessian             |
           -------------------------------------------------
kpush                :  -0.00098
alpha                :   1.00000
step length          :   0.00500
SCC accuracy         :   0.30000
Hessian scale factor :   1.00000
frozen atoms in %    :   0.00000    0
RMS gradient         :   0.00003
estimated CPU  time      0.02 min
estimated wall time      0.02 min

writing file <hessian>.

 projected vibrational frequencies (cm⁻¹)
eigval :       -0.00    -0.00    -0.00     0.00     0.00     0.00
eigval :       36.38   108.66   166.13   193.44   221.68   244.54
eigval :      265.32   306.13   360.27   396.16   402.43   451.23
eigval :      573.11   759.02   821.82   893.66   931.87   940.71
eigval :      963.55   969.92   977.05  1022.97  1115.36  1124.34
eigval :     1138.81  1174.56  1189.91  1218.10  1307.48  1315.66
eigval :     1322.35  1363.22  1390.11  1392.94  1404.34  1410.02
eigval :     1429.75  1480.44  1481.59  1489.00  1494.93  1497.38
eigval :     1500.89  1506.33  1514.02  2770.89  2896.01  3014.59
eigval :     3016.77  3029.43  3030.05  3031.41  3039.05  3041.46
eigval :     3045.84  3050.04  3053.60  3055.37  3062.48  3384.55
           -------------------------------------------------
          |                Property Printout                |
           -------------------------------------------------

    * Orbital Energies and Occupations

         #    Occupation            Energy/Eh            Energy/eV
      -------------------------------------------------------------
         1        2.0000           -0.6296779             -17.1344
       ...           ...                  ...                  ...
        10        2.0000           -0.5010048             -13.6330
        11        2.0000           -0.4837696             -13.1640
        12        2.0000           -0.4803415             -13.0708
        13        2.0000           -0.4693421             -12.7714
        14        2.0000           -0.4607653             -12.5381
        15        2.0000           -0.4595877             -12.5060
        16        2.0000           -0.4526874             -12.3183
        17        2.0000           -0.4427183             -12.0470
        18        2.0000           -0.4406764             -11.9914
        19        2.0000           -0.4323062             -11.7637
        20        2.0000           -0.4246461             -11.5552
        21        2.0000           -0.4163135             -11.3285
        22        2.0000           -0.3471862              -9.4474 (HOMO)
        23                          0.0239923               0.6529 (LUMO)
        24                          0.0793315               2.1587
        25                          0.0900580               2.4506
        26                          0.1089981               2.9660
        27                          0.1219456               3.3183
        28                          0.1254133               3.4127
        29                          0.1336972               3.6381
        30                          0.1617519               4.4015
        31                          0.1789498               4.8695
        32                          0.1854153               5.0454
        33                          0.2061239               5.6089
       ...                                ...                  ...
        43                          0.3338436               9.0843
      -------------------------------------------------------------
                  HL-Gap            0.3711785 Eh           10.1003 eV
             Fermi-level           -0.1615969 Eh           -4.3973 eV

     #   Z          covCN         q      C6AA      α(0)
     1   6 C        3.752    -0.114    22.751     6.802
     2   6 C        3.781     0.051    19.734     6.328
     3   6 C        3.754    -0.121    22.879     6.820
     4   7 N        2.683    -0.294    27.572     7.799
     5   6 C        3.781     0.060    19.595     6.306
     6   6 C        3.759    -0.121    22.864     6.817
     7   6 C        3.756    -0.117    22.789     6.807
     8   1 H        0.925     0.029     2.600     2.521
     9   1 H        0.925     0.038     2.473     2.459
    10   1 H        0.925     0.034     2.528     2.486
    11   1 H        0.924     0.024     2.668     2.555
    12   1 H        0.925     0.043     2.415     2.430
    13   1 H        0.925     0.051     2.312     2.378
    14   1 H        0.925     0.038     2.473     2.459
    15   1 H        0.860     0.146     1.431     1.874
    16   1 H        0.922    -0.002     3.102     2.754
    17   1 H        0.925     0.034     2.532     2.489
    18   1 H        0.925     0.043     2.413     2.429
    19   1 H        0.925     0.052     2.298     2.371
    20   1 H        0.925     0.052     2.299     2.371
    21   1 H        0.925     0.036     2.501     2.473
    22   1 H        0.925     0.039     2.459     2.452

 Mol. C6AA /au·bohr⁶  :       3189.856346
 Mol. C8AA /au·bohr⁸  :      65489.140924
 Mol. α(0) /au        :         84.180907


Wiberg/Mayer (AO) data.
largest (>0.10) Wiberg bond orders for each atom

 ---------------------------------------------------------------------------
     #   Z sym  total        # sym  WBO       # sym  WBO       # sym  WBO
 ---------------------------------------------------------------------------
     1   6 C    3.997 --     2 C    0.996     8 H    0.987     9 H    0.986
                            10 H    0.985
     2   6 C    3.985 --     3 C    1.002     4 N    1.001     1 C    0.996
                            11 H    0.969
     3   6 C    3.995 --     2 C    1.002    14 H    0.986    13 H    0.986
                            12 H    0.982
     4   7 N    3.063 --     2 C    1.001     5 C    1.000    15 H    0.953
     5   6 C    3.986 --     6 C    1.006     7 C    1.004     4 N    1.000
                            16 H    0.958
     6   6 C    3.995 --     5 C    1.006    19 H    0.986    17 H    0.985
                            18 H    0.985
     7   6 C    3.996 --     5 C    1.004    20 H    0.986    22 H    0.985
                            21 H    0.982
     8   1 H    0.999 --     1 C    0.987
     9   1 H    0.998 --     1 C    0.986
    10   1 H    0.999 --     1 C    0.985
    11   1 H    0.999 --     2 C    0.969
    12   1 H    0.998 --     3 C    0.982
    13   1 H    0.997 --     3 C    0.986
    14   1 H    0.998 --     3 C    0.986
    15   1 H    0.979 --     4 N    0.953
    16   1 H    1.000 --     5 C    0.958
    17   1 H    0.999 --     6 C    0.985
    18   1 H    0.998 --     6 C    0.985
    19   1 H    0.997 --     6 C    0.986
    20   1 H    0.997 --     7 C    0.986
    21   1 H    0.999 --     7 C    0.982
    22   1 H    0.998 --     7 C    0.985
 ---------------------------------------------------------------------------

Topologies differ in total number of bonds
Writing topology from bond orders to xtbtopo.mol

molecular dipole:
                 x           y           z       tot (Debye)
 q only:       -0.042      -0.005       0.006
   full:        0.028       0.226       0.281       0.921
molecular quadrupole (traceless):
                xx          xy          yy          xz          yz          zz
 q only:        1.035       0.136      -1.292      -0.210      -0.708       0.256
  q+dip:        0.743      -0.354      -1.481       0.312      -0.974       0.738
   full:        1.046      -0.241      -1.879       0.077      -1.241       0.833

           -------------------------------------------------
          |                Geometry Summary                 |
           -------------------------------------------------

      molecular mass/u    :      101.1902299
   center of mass at/Å    :       -0.0000117      -0.0001894      -0.0006929
  moments of inertia/u·Å² :        0.1288384E+03   0.3082167E+03   0.3422205E+03
rotational constants/cm⁻¹ :        0.1308432E+00   0.5469409E-01   0.4925957E-01

 * 21 selected distances

     #   Z          #   Z                                           value/Å
     1   6 C        2   6 C                                       1.5349543 (max)
     2   6 C        3   6 C                                       1.5314895
     2   6 C        4   7 N                                       1.4630102
     4   7 N        5   6 C                                       1.4609796
     5   6 C        6   6 C                                       1.5295699
     5   6 C        7   6 C                                       1.5285940
     1   6 C        8   1 H                                       1.0887238
     1   6 C        9   1 H                                       1.0865680
     1   6 C       10   1 H                                       1.0874800
     2   6 C       11   1 H                                       1.0976259
     3   6 C       12   1 H                                       1.0848589
     3   6 C       13   1 H                                       1.0856522
     3   6 C       14   1 H                                       1.0871473
     4   7 N       15   1 H                                       1.0136543 (min)
     5   6 C       16   1 H                                       1.1062740
     6   6 C       17   1 H                                       1.0882214
     6   6 C       18   1 H                                       1.0865876
     6   6 C       19   1 H                                       1.0865340
     7   6 C       20   1 H                                       1.0858755
     7   6 C       21   1 H                                       1.0854582
     7   6 C       22   1 H                                       1.0871402

 * 4 distinct bonds (by element types)

   Z      Z             #   av. dist./Å        max./Å        min./Å
   1 H    6 C          14     1.0888676     1.1062740     1.0848589
   6 C    6 C           4     1.5311519     1.5349543     1.5285940
   1 H    7 N           1     1.0136543     1.0136543     1.0136543
   6 C    7 N           2     1.4619949     1.4630102     1.4609796

           -------------------------------------------------
          |               Frequency Printout                |
           -------------------------------------------------
 projected vibrational frequencies (cm⁻¹)
eigval :       -0.00    -0.00    -0.00     0.00     0.00     0.00
eigval :       36.38   108.66   166.13   193.44   221.68   244.54
eigval :      265.32   306.13   360.27   396.16   402.43   451.23
eigval :      573.11   759.02   821.82   893.66   931.87   940.71
eigval :      963.55   969.92   977.05  1022.97  1115.36  1124.34
eigval :     1138.81  1174.56  1189.91  1218.10  1307.48  1315.66
eigval :     1322.35  1363.22  1390.11  1392.94  1404.34  1410.02
eigval :     1429.75  1480.44  1481.59  1489.00  1494.93  1497.38
eigval :     1500.89  1506.33  1514.02  2770.89  2896.01  3014.59
eigval :     3016.77  3029.43  3030.05  3031.41  3039.05  3041.46
eigval :     3045.84  3050.04  3053.60  3055.37  3062.48  3384.55
 reduced masses (amu)
   1:  9.41   2:  9.66   3: 10.35   4: 10.44   5:  9.92   6:  9.23   7:  8.30   8:  7.48
   9:  1.63  10:  6.56  11:  3.47  12:  1.36  13:  3.74  14:  8.26  15:  8.12  16:  7.62
  17:  8.13  18:  7.38  19:  8.23  20:  6.18  21:  8.72  22:  8.13  23:  2.91  24:  3.08
  25:  5.80  26:  4.52  27:  4.43  28:  6.68  29:  7.30  30:  6.46  31:  7.02  32:  7.10
  33:  7.18  34: 10.14  35:  3.91  36:  3.48  37:  3.61  38:  3.18  39:  2.99  40:  3.15
  41:  3.33  42:  3.15  43:  3.39  44:  1.59  45:  1.58  46:  1.59  47:  1.58  48:  1.59
  49:  1.56  50:  1.60  51:  1.55  52:  1.69  53:  1.74  54:  1.83  55:  1.84  56:  1.88
  57:  1.86  58:  1.76  59:  1.83  60:  1.44  61:  1.52  62:  1.77  63:  1.50  64:  1.84
  65:  1.49  66:  1.83
 IR intensities (km·mol⁻¹)
   1:  0.12   2:  0.12   3:  0.02   4:  0.01   5:  0.03   6:  0.11   7:  0.04   8:  1.69
   9:  0.22  10:  0.91  11:  0.29  12:  0.05  13:  2.03  14:  1.00  15:  2.42  16:  1.08
  17:  4.29  18: 13.29  19:  5.15  20: 82.85  21:  2.70  22:  0.94  23:  1.05  24:  2.85
  25:  0.38  26:  0.03  27:  0.26  28:  1.28  29:  9.49  30:  3.09  31: 53.48  32:  9.69
  33: 16.38  34:113.58  35: 23.34  36:  6.11  37: 59.06  38: 28.99  39:  4.55  40:  6.05
  41: 15.76  42:  4.35  43: 10.16  44:  0.21  45:  1.52  46:  1.02  47:  1.35  48:  0.30
  49:  1.37  50:  1.38  51:  0.46  52:190.39  53:109.70  54: 73.78  55: 85.51  56: 88.74
  57: 68.30  58: 26.89  59: 78.32  60: 51.96  61: 22.02  62: 42.36  63: 11.39  64: 83.74
  65: 65.16  66: 15.82
 Raman intensities (Ä⁴*amu⁻¹)
   1:  0.00   2:  0.00   3:  0.00   4:  0.00   5:  0.00   6:  0.00   7:  0.00   8:  0.00
   9:  0.00  10:  0.00  11:  0.00  12:  0.00  13:  0.00  14:  0.00  15:  0.00  16:  0.00
  17:  0.00  18:  0.00  19:  0.00  20:  0.00  21:  0.00  22:  0.00  23:  0.00  24:  0.00
  25:  0.00  26:  0.00  27:  0.00  28:  0.00  29:  0.00  30:  0.00  31:  0.00  32:  0.00
  33:  0.00  34:  0.00  35:  0.00  36:  0.00  37:  0.00  38:  0.00  39:  0.00  40:  0.00
  41:  0.00  42:  0.00  43:  0.00  44:  0.00  45:  0.00  46:  0.00  47:  0.00  48:  0.00
  49:  0.00  50:  0.00  51:  0.00  52:  0.00  53:  0.00  54:  0.00  55:  0.00  56:  0.00
  57:  0.00  58:  0.00  59:  0.00  60:  0.00  61:  0.00  62:  0.00  63:  0.00  64:  0.00
  65:  0.00  66:  0.00
 output can be read by thermo (or use thermo option).
 writing <g98.out> molden fake output.
 recommended (thermochemical) frequency scaling factor: 1.0
           -------------------------------------------------
          |             Thermodynamic Functions             |
           -------------------------------------------------

Molecule has no symmetry elements
It seems to be the C1 point group
c1  symmetry found (for desy threshold:  0.10E+00) used in thermo

          ...................................................
          :                      SETUP                      :
          :.................................................:
          :  # frequencies                          60      :
          :  # imaginary freq.                       0      :
          :  linear?                             false      :
          :  only rotor calc.                    false      :
          :  symmetry                               c1      :
          :  rotational number                       1      :
          :  scaling factor                  1.0000000      :
          :  rotor cutoff                    0.0000000 cm⁻¹ :
          :  imag. cutoff                 -100.0000000 cm⁻¹ :
          :.................................................:

    mode    ω/cm⁻¹     T·S(HO)/kcal·mol⁻¹    T·S(FR)/kcal·mol⁻¹   T·S(vib)
   ------------------------------------------------------------------------
       1     36.38    -1.62397 (100.00%)    -1.15019 (  0.00%)    -1.62397
       2    108.66    -0.98173 (100.00%)    -0.82644 (  0.00%)    -0.98173
       3    166.13    -0.73904 (100.00%)    -0.70072 (  0.00%)    -0.73904
       4    193.44    -0.65432 (100.00%)    -0.65565 (  0.00%)    -0.65432
       5    221.68    -0.57999 (100.00%)    -0.61529 (  0.00%)    -0.57999
       6    244.54    -0.52761 (100.00%)    -0.58623 (  0.00%)    -0.52761
       7    265.32    -0.48494 (100.00%)    -0.56208 (  0.00%)    -0.48494
   ------------------------------------------------------------------------

   temp. (K)  partition function   enthalpy   heat capacity  entropy
                                   cal/mol     cal/K/mol   cal/K/mol   J/K/mol
 298.15  VIB   420.                 4256.568     28.994     26.278
         ROT  0.282E+06              888.752      2.981     27.918
         INT  0.118E+09             5145.320     31.975     54.196
         TR   0.985E+27             1481.254      4.968     39.735
         TOT                        6626.5743    36.9429    93.9309   393.0068

       T/K    H(0)-H(T)+PV         H(T)/Eh          T*S/Eh         G(T)/Eh
   ------------------------------------------------------------------------
    298.15    0.105601E-01    0.212837E+00    0.446296E-01    0.168207E+00
   ------------------------------------------------------------------------

         :::::::::::::::::::::::::::::::::::::::::::::::::::::
         ::                  THERMODYNAMIC                  ::
         :::::::::::::::::::::::::::::::::::::::::::::::::::::
         :: total free energy         -23.249057844457 Eh   ::
         ::.................................................::
         :: total energy              -23.417264927724 Eh   ::
         :: zero point energy           0.202276554218 Eh   ::
         :: G(RRHO) w/o ZPVE           -0.034069470951 Eh   ::
         :: G(RRHO) contrib.            0.168207083267 Eh   ::
         :::::::::::::::::::::::::::::::::::::::::::::::::::::

optimized geometry written to: xtbopt.coord


           -------------------------------------------------
          | TOTAL ENERGY              -23.417264927724 Eh   |
          | TOTAL ENTHALPY            -23.204428255179 Eh   |
          | TOTAL FREE ENERGY         -23.249057844457 Eh   |
          | GRADIENT NORM               0.000032882362 Eh/α |
          | HOMO-LUMO GAP              10.100282218198 eV   |
           -------------------------------------------------

------------------------------------------------------------------------
 * finished run on 2025/04/11 at 12:31:10.653     
------------------------------------------------------------------------
 total:
 * wall-time:     0 d,  0 h,  0 min,  3.745 sec
 *  cpu-time:     0 d,  0 h,  0 min,  3.510 sec
 * ratio c/w:     0.937 speedup
 SCF:
 * wall-time:     0 d,  0 h,  0 min,  0.021 sec
 *  cpu-time:     0 d,  0 h,  0 min,  0.014 sec
 * ratio c/w:     0.677 speedup
 analytical hessian:
 * wall-time:     0 d,  0 h,  0 min,  1.217 sec
 *  cpu-time:     0 d,  0 h,  0 min,  1.205 sec
 * ratio c/w:     0.990 speedup

