
                                 *****************
                                 * O   R   C   A *
                                 *****************

                                            #,                                       
                                            ###                                      
                                            ####                                     
                                            #####                                    
                                            ######                                   
                                           ########,                                 
                                     ,,################,,,,,                         
                               ,,#################################,,                 
                          ,,##########################################,,             
                       ,#########################################, ''#####,          
                    ,#############################################,,   '####,        
                  ,##################################################,,,,####,       
                ,###########''''           ''''###############################       
              ,#####''   ,,,,##########,,,,          '''####'''          '####       
            ,##' ,,,,###########################,,,                        '##       
           ' ,,###''''                  '''############,,,                           
         ,,##''                                '''############,,,,        ,,,,,,###''
      ,#''                                            '''#######################'''  
     '                                                          ''''####''''         
             ,#######,   #######,   ,#######,      ##                                
            ,#'     '#,  ##    ##  ,#'     '#,    #''#        ,####,   ,####,        
            ##       ##  ##   ,#'  ##            #'  '#       #'       #'  '#        
            ##       ##  #######   ##           ,######,      #####,   #    #        
            '#,     ,#'  ##    ##  '#,     ,#' ,#      #,     #,   #   #,  ,#        
             '#######'   ##     ##  '#######'  #'      '#     '####' # '####'        



                #########################################################
                #                        -***-                          #
                #          Department of theory and spectroscopy        #
                #                                                       #
                #                      Frank Neese                      #
                #                                                       #
                #     Directorship, Architecture, Infrastructure        #
                #                    SHARK, DRIVERS                     #
                #        Core code/Algorithms in most modules           #
                #                                                       #
                #        Max Planck Institute fuer Kohlenforschung      #
                #                Kaiser Wilhelm Platz 1                 #
                #                 D-45470 Muelheim/Ruhr                 #
                #                      Germany                          #
                #                                                       #
                #                  All rights reserved                  #
                #                        -***-                          #
                #########################################################


                         Program Version 6.0.1  -  RELEASE   -


 With contributions from (in alphabetic order):
[Max-Planck-Institut fuer Kohlenforschung]                               
  Daniel Aravena         : Magnetic Suceptibility                        
  Michael Atanasov       : Ab Initio Ligand Field Theory (pilot matlab implementation)
  Alexander A. Auer      : GIAO ZORA, VPT2 properties, NMR spectrum      
  Ute Becker             : All parallelization in ORCA, NUMFREQ, NUMCALC 
  Giovanni Bistoni       : ED, misc. LED, open-shell LED, HFLD           
  Martin Brehm           : Molecular dynamics                            
  Dmytro Bykov           : pre 5.0 version of the SCF Hessian            
  Marcos Casanova-Páez   : Triplet and SCS-CIS(D). UHF-(DLPNO)-IP/EA/STEOM-CCSD. UHF-CVS-IP/STEOM-CCSD   
  Vijay G. Chilkuri      : MRCI spin determinant printing, contributions to CSF-ICE 
  Pauline Colinet        : FMM embedding                                 
  Dipayan Datta          : RHF DLPNO-CCSD density                        
  Achintya Kumar Dutta   : EOM-CC, STEOM-CC                              
  Nicolas Foglia         : Exact transition moments, OPA infrastructure, MCD improvements    
  Dmitry Ganyushin       : Spin-Orbit,Spin-Spin,Magnetic field MRCI      
  Miquel Garcia-Rates    : C-PCM and meta-GGA Hessian, CCSD/C-PCM, Gaussian charge scheme 
  Tiago L. C. Gouveia    : GS-ROHF, GS-ROCIS                             
  Yang Guo               : DLPNO-NEVPT2, F12-NEVPT2, CIM, IAO-localization        
  Andreas Hansen         : Spin unrestricted coupled pair/coupled cluster methods 
  Ingolf Harden          : AUTO-CI MPn and infrastructure                
  Benjamin Helmich-Paris : MC-RPA, TRAH-(SCF,CASSCF), AVAS, COSX integrals, SCF dyn. polar. 
  Lee Huntington         : MR-EOM, pCC                                   
  Robert Izsak           : Overlap fitted RIJCOSX, COSX-SCS-MP3, EOM     
  Riya Kayal             : Wick's Theorem for AUTO-CI, AUTO-CI UHF-CCSDT 
  Emily Kempfer          : AUTO-CI, RHF CISDT and CCSDT                  
  Christian Kollmar      : KDIIS, OOCD, Brueckner-CCSD(T), CCSD density, CASPT2, CASPT2-K, improved NEVPT2 
  Axel Koslowski         : Symmetry handling                             
  Simone Kossmann        : meta-GGA functionals, TD-DFT gradient, OOMP2, (MP2 Hessian; deprecated post 5.0) 
  Lucas Lang             : DCDCAS                                        
  Marvin Lechner         : AUTO-CI (C++ implementation), FIC-MRCC        
  Spencer Leger          : CASSCF response                               
  Dagmar Lenk            : GEPOL surface, SMD, ORCA-2-JSON               
  Dimitrios Liakos       : Extrapolation schemes; Compound Job, initial MDCI parallelization 
  Dimitrios Manganas     : Further ROCIS development; embedding schemes. LFT, Crystal Embedding 
  Dimitrios Pantazis     : SARC Basis sets                               
  Anastasios Papadopoulos: AUTO-CI, single reference methods and gradients 
  Taras Petrenko         : pre 6.0 DFT Hessian and TD-DFT gradient, (ASA, deprecated), ECA, 1-Electron XAS/XES, NRVS 
  Peter Pinski           : DLPNO-MP2, DLPNO-MP2 Gradient                 
  Christoph Reimann      : Effective Core Potentials                     
  Marius Retegan         : Local ZFS, SOC                                
  Christoph Riplinger    : Optimizer, TS searches, QM/MM, DLPNO-CCSD(T), (RO)-DLPNO pert. Triples 
  Michael Roemelt        : Original ROCIS implementation                 
  Masaaki Saitow         : Open-shell DLPNO-CCSD energy and density      
  Barbara Sandhoefer     : DKH picture change effects                    
  Kantharuban Sivalingam : CASSCF convergence/infrastructure, NEVPT2 and variants, FIC-MRCI 
  Bernardo de Souza      : ESD, SOC TD-DFT                               
  Georgi L. Stoychev     : AutoAux, RI-MP2 NMR, DLPNO-MP2 response, X2C  
  Van Anh Tran           : RI-MP2 g-tensors                              
  Willem Van den Heuvel  : Paramagnetic NMR                              
  Zikuan Wang            : NOTCH, Electric field optimization            
  Frank Wennmohs         : Technical directorship and infrastructure     
  Hang Xu                : AUTO-CI-Response properties                   
                                                                         
[FACCTs GmbH]                                                            
  Markus Bursch, Miquel Garcia-Rates, Christoph Riplinger, Bernardo de Souza, Georgi L. Stoychev 
                                                                 
  APM, Basis sets (HGBS, AHGBS, def-TZVP (Ac-Lr), def2-XVPD (La-Lu)), CI-OPT, improved COSX, DLPNO-Multilevel,           
  DOCKER, DRACO, updates on ESD, GOAT, IRC, LR-CPCM, MBIS, meta-GGA TD-DFT gradient, ML-optimized integration grids, 
  MM, NACMEs, nearIR, NEB, NEB-TS, NL-DFT gradient (VV10), 2- and 3-layer-ONIOM, interface openCOSMO-RS, QMMM,   
  Crystal-QMMM, SF, symmetry and pop. for TD-DFT, r2SCAN hybrids, SOLVATOR                                   
                                                                         
[Other institutions]                                                     
  V. Asgeirsson          : NEB                                           
  Christoph Bannwarth    : sTDA-DFT, sTD-DFT, PBEh-3c, B97-3c, D3        
  Sebastian Ehlert       : rSCAN, r2SCAN, r2SCAN-3c, D4, dhf basis sets  
  Marvin Friede          : D4 for Fr, Ra, Ac-Lr                          
  Lars Goerigk           : TD-DFT with DH, B97 family of functionals     
  Stefan Grimme          : VdW corrections, initial TS optimization, DFT functionals, gCP, sTDA/sTD-DF 
  Waldemar Hujo          : DFT-NL                                        
  H. Jonsson             : NEB                                           
  Holger Kruse           : gCP                                           
  Marcel Mueller         : wB97X-3c, vDZP basis set                      
  Hagen Neugebauer       : wr2SCAN                                       
  Tobias Risthaus        : range-separated hybrid DFT                    
  Lukas Wittmann         : regularized MP2, r2SCAN double-hybrids, wr2SCAN        
                                                                         
We gratefully acknowledge several colleagues who have allowed us to      
interface, adapt or use parts of their codes:                            
  Ed Valeev, F. Pavosevic, A. Kumar             : LibInt (2-el integral package), F12 methods 
  Garnet Chan, S. Sharma, J. Yang, R. Olivares  : DMRG                   
  Ulf Ekstrom                                   : XCFun DFT Library      
  Mihaly Kallay                                 : mrcc  (arbitrary order and MRCC methods)
  Frank Weinhold                                : gennbo (NPA and NBO analysis)           
  Simon Mueller                                 : openCOSMO-RS                            
  Christopher J. Cramer and Donald G. Truhlar   : smd solvation model                     
  S Lehtola, MJT Oliveira, MAL Marques          : LibXC Library                           
  Liviu Ungur et al                             : ANISO software                          


 Your calculation uses the libint2 library for the computation of 2-el integrals
 For citations please refer to: http://libint.valeyev.net

 Your ORCA version has been built with support for libXC version: 6.2.2
 For citations please refer to: https://libxc.gitlab.io

 This ORCA versions uses:
   CBLAS   interface :  Fast vector & matrix operations
   LAPACKE interface :  Fast linear algebra routines
   SCALAPACK package :  Parallel linear algebra routines
   Shared memory     :  Shared parallel matrices
   BLAS/LAPACK       :  OpenBLAS 0.3.27  USE64BITINT DYNAMIC_ARCH NO_AFFINITY Zen SINGLE_THREADED
        Core in use  :  Zen
   Copyright (c) 2011-2014, The OpenBLAS Project


Your calculation utilizes the geometrical counterpoise correction gCP
Please cite in your paper:
H.Kruse, S. Grimme J.Chem.Phys., 136, (2012), 154101 
   

Your calculation utilizes the atom-pairwise dispersion correction
based on EEQ partial charges (D4)


================================================================================

----- Orbital basis set information -----
Your calculation utilizes the basis: def2-SV(P)
   F. Weigend and R. Ahlrichs, Phys. Chem. Chem. Phys. 7, 3297 (2005).

----- AuxJ basis set information -----
Your calculation utilizes the auxiliary basis: def2/J
   F. Weigend, Phys. Chem. Chem. Phys. 8, 1057 (2006).

================================================================================
                                        WARNINGS
                       Please study these warnings very carefully!
================================================================================


================================================================================
                                       INPUT FILE
================================================================================
NAME = sp.inp
|  1> ! pbe def2-sv(p) def2/J RI DEFGRID1 loosescf d4 GCP(DFT/SV(P)) printgap
|  2> %output
|  3>     printlevel normal
|  4> end
|  5> * xyz 0 1
|  6> C -3.7463524589 0.5396687881 -1.8026260603
|  7> C -3.2839222889 -0.4280149654 -0.7121498367
|  8> H -3.5700922762 -1.4521122069 -0.9617526283
|  9> C -1.784025099 -0.3686107209 -0.5256439184
| 10> C -0.9826082187 -1.461943156 -0.8277480781
| 11> C 0.388976172 -1.3955961621 -0.674651991
| 12> C 1.0164463522 -0.2393589924 -0.2137833419
| 13> C 0.1873857886 0.8359967755 0.0903582668
| 14> C -1.1832668473 0.7915214143 -0.0539883756
| 15> F 0.729857805 1.9884507162 0.5851553093
| 16> C 2.4783086768 -0.1806108533 -0.0565463932
| 17> C 3.1577656292 -1.2441213971 0.5336990015
| 18> C 4.5316743649 -1.2024473353 0.6800272476
| 19> C 5.2463994534 -0.1028686061 0.2336475039
| 20> C 4.5791367216 0.9566187647 -0.3579290189
| 21> C 3.2040636409 0.9210967012 -0.5014612909
| 22> C -3.9104099011 -0.0854637254 0.625189553
| 23> O -4.1344246445 1.0367242713 1.0213404087
| 24> O -4.1579595283 -1.1658184972 1.3453171183
| 25> H -4.8099951844 0.415631058 -1.9875501224
| 26> H -3.5692973345 1.5657865457 -1.4920509312
| 27> H -3.2002757636 0.3470387787 -2.7212651161
| 28> H -1.4341270573 -2.3717539371 -1.1905993394
| 29> H 0.9990108568 -2.247478849 -0.9304701741
| 30> H -1.7713565495 1.6543060672 0.2184447019
| 31> H 2.6006913269 -2.094816347 0.8963735189
| 32> H 5.046747844 -2.0292907234 1.1451966876
| 33> H 6.3192370707 -0.0709368761 0.3472541439
| 34> H 5.1305694565 1.8153646619 -0.7100648468
| 35> H 2.6915248214 1.7473039248 -0.9714818877
| 36> H -4.5285974326 -0.9629837762 2.2267678506
| 37> *
| 38> 
| 39>                          ****END OF INPUT****
================================================================================

                       ****************************
                       * Single Point Calculation *
                       ****************************

---------------------------------
CARTESIAN COORDINATES (ANGSTROEM)
---------------------------------
  C     -3.746352    0.539669   -1.802626
  C     -3.283922   -0.428015   -0.712150
  H     -3.570092   -1.452112   -0.961753
  C     -1.784025   -0.368611   -0.525644
  C     -0.982608   -1.461943   -0.827748
  C      0.388976   -1.395596   -0.674652
  C      1.016446   -0.239359   -0.213783
  C      0.187386    0.835997    0.090358
  C     -1.183267    0.791521   -0.053988
  F      0.729858    1.988451    0.585155
  C      2.478309   -0.180611   -0.056546
  C      3.157766   -1.244121    0.533699
  C      4.531674   -1.202447    0.680027
  C      5.246399   -0.102869    0.233648
  C      4.579137    0.956619   -0.357929
  C      3.204064    0.921097   -0.501461
  C     -3.910410   -0.085464    0.625190
  O     -4.134425    1.036724    1.021340
  O     -4.157960   -1.165818    1.345317
  H     -4.809995    0.415631   -1.987550
  H     -3.569297    1.565787   -1.492051
  H     -3.200276    0.347039   -2.721265
  H     -1.434127   -2.371754   -1.190599
  H      0.999011   -2.247479   -0.930470
  H     -1.771357    1.654306    0.218445
  H      2.600691   -2.094816    0.896374
  H      5.046748   -2.029291    1.145197
  H      6.319237   -0.070937    0.347254
  H      5.130569    1.815365   -0.710065
  H      2.691525    1.747304   -0.971482
  H     -4.528597   -0.962984    2.226768

----------------------------
CARTESIAN COORDINATES (A.U.)
----------------------------
  NO LB      ZA    FRAG     MASS         X           Y           Z
   0 C     6.0000    0    12.011   -7.079580    1.019826   -3.406470
   1 C     6.0000    0    12.011   -6.205714   -0.808831   -1.345768
   2 H     1.0000    0     1.008   -6.746497   -2.744094   -1.817449
   3 C     6.0000    0    12.011   -3.371319   -0.696573   -0.993323
   4 C     6.0000    0    12.011   -1.856860   -2.762672   -1.564217
   5 C     6.0000    0    12.011    0.735058   -2.637295   -1.274907
   6 C     6.0000    0    12.011    1.920805   -0.452323   -0.403992
   7 C     6.0000    0    12.011    0.354108    1.579805    0.170752
   8 C     6.0000    0    12.011   -2.236050    1.495759   -0.102023
   9 F     9.0000    0    18.998    1.379231    3.757627    1.105783
  10 C     6.0000    0    12.011    4.683325   -0.341305   -0.106857
  11 C     6.0000    0    12.011    5.967312   -2.351049    1.008545
  12 C     6.0000    0    12.011    8.563623   -2.272296    1.285065
  13 C     6.0000    0    12.011    9.914258   -0.194393    0.441530
  14 C     6.0000    0    12.011    8.653314    1.807747   -0.676388
  15 C     6.0000    0    12.011    6.054803    1.740621   -0.947625
  16 C     6.0000    0    12.011   -7.389604   -0.161503    1.181437
  17 O     8.0000    0    15.999   -7.812930    1.959125    1.930054
  18 O     8.0000    0    15.999   -7.857405   -2.203078    2.542281
  19 H     1.0000    0     1.008   -9.089574    0.785429   -3.755925
  20 H     1.0000    0     1.008   -6.744994    2.958908   -2.819568
  21 H     1.0000    0     1.008   -6.047645    0.655808   -5.142446
  22 H     1.0000    0     1.008   -2.710107   -4.481965   -2.249907
  23 H     1.0000    0     1.008    1.887857   -4.247120   -1.758334
  24 H     1.0000    0     1.008   -3.347379    3.126185    0.412801
  25 H     1.0000    0     1.008    4.914594   -3.958629    1.693900
  26 H     1.0000    0     1.008    9.536971   -3.834804    2.164108
  27 H     1.0000    0     1.008   11.941627   -0.134051    0.656215
  28 H     1.0000    0     1.008    9.695371    3.430542   -1.341828
  29 H     1.0000    0     1.008    5.086245    3.301926   -1.835835
  30 H     1.0000    0     1.008   -8.557809   -1.819776    4.207981

--------------------------------
INTERNAL COORDINATES (ANGSTROEM)
--------------------------------
 C      0   0   0     0.000000000000     0.00000000     0.00000000
 C      1   0   0     1.529507078490     0.00000000     0.00000000
 H      2   1   0     1.092231649081   110.55254017     0.00000000
 C      2   1   3     1.512615252500   111.27585297   121.21486191
 C      4   2   1     1.388852675045   120.96049892   245.54809474
 C      5   4   2     1.381696086807   120.72440983   179.01720929
 C      6   5   4     1.393916472160   121.55522528     0.06454570
 C      7   6   5     1.391486099038   116.42980449     0.40971946
 C      8   7   6     1.378949839271   122.98496593   359.62931369
 F      8   7   6     1.366473595529   119.62942043   178.06061398
 C      7   6   5     1.471467382571   121.04144358   180.07621101
 C     11   7   6     1.393235820995   119.95325328   315.67190112
 C     12  11   7     1.382307453885   120.43450482   179.66045318
 C     13  12  11     1.385337579591   120.17260915   359.67414062
 C     14  13  12     1.384816169916   119.75645363     0.12269354
 C     15  14  13     1.383000111123   120.24936908     0.13093176
 C      2   1   3     1.516016069674   111.16367235   240.35342204
 O     17   2   1     1.210959952133   125.05892159   323.84833944
 O     17   2   1     1.321752987961   111.92072340   145.63870947
 H      1   2   3     1.086700563514   110.18386688    53.44116821
 H      1   2   3     1.086610822859   110.14596369   173.00378193
 H      1   2   3     1.085911503076   109.80783924   293.18682579
 H      5   4   2     1.078557349817   119.71381808   359.32416095
 H      6   5   4     1.078558932884   119.81854964   181.09880470
 H      9   8   7     1.079104553243   119.30675376   178.78920094
 H     12  11   7     1.079604780297   119.48275924   358.36404739
 H     13  12  11     1.079515301062   119.78575147   179.56836114
 H     14  13  12     1.079308416129   120.15855380   180.05227165
 H     15  14  13     1.079593543130   120.11848704   180.14936811
 H     16  15  14     1.079923043202   119.82854146   180.52602842
 H     19  17   2     0.977481341827   113.12312438   177.64149188

---------------------------
INTERNAL COORDINATES (A.U.)
---------------------------
 C      0   0   0     0.000000000000     0.00000000     0.00000000
 C      1   0   0     2.890349498240     0.00000000     0.00000000
 H      2   1   0     2.064018691564   110.55254017     0.00000000
 C      2   1   3     2.858428573217   111.27585297   121.21486191
 C      4   2   1     2.624551196199   120.96049892   245.54809474
 C      5   4   2     2.611027204375   120.72440983   179.01720929
 C      6   5   4     2.634120385944   121.55522528     0.06454570
 C      7   6   5     2.629527646340   116.42980449     0.40971946
 C      8   7   6     2.605837548637   122.98496593   359.62931369
 F      8   7   6     2.582260864785   119.62942043   178.06061398
 C      7   6   5     2.780670368056   121.04144358   180.07621101
 C     11   7   6     2.632834141649   119.95325328   315.67190112
 C     12  11   7     2.612182520721   120.43450482   179.66045318
 C     13  12  11     2.617908628456   120.17260915   359.67414062
 C     14  13  12     2.616923306968   119.75645363     0.12269354
 C     15  14  13     2.613491453205   120.24936908     0.13093176
 C      2   1   3     2.864855186307   111.16367235   240.35342204
 O     17   2   1     2.288382668678   125.05892159   323.84833944
 O     17   2   1     2.497751163938   111.92072340   145.63870947
 H      1   2   3     2.053566454619   110.18386688    53.44116821
 H      1   2   3     2.053396869358   110.14596369   173.00378193
 H      1   2   3     2.052075346488   109.80783924   293.18682579
 H      5   4   2     2.038178010881   119.71381808   359.32416095
 H      6   5   4     2.038181002445   119.81854964   181.09880470
 H      9   8   7     2.039212075497   119.30675376   178.78920094
 H     12  11   7     2.040157367633   119.48275924   358.36404739
 H     13  12  11     2.039988276385   119.78575147   179.56836114
 H     14  13  12     2.039597320520   120.15855380   180.05227165
 H     15  14  13     2.040136132465   120.11848704   180.14936811
 H     16  15  14     2.040758797363   119.82854146   180.52602842
 H     19  17   2     1.847172037070   113.12312438   177.64149188

---------------------
BASIS SET INFORMATION
---------------------
There are 4 groups of distinct atoms

 Group   1 Type C   : 7s4p1d contracted to 3s2p1d pattern {511/31/1}
 Group   2 Type H   : 4s contracted to 2s pattern {31}
 Group   3 Type F   : 7s4p1d contracted to 3s2p1d pattern {511/31/1}
 Group   4 Type O   : 7s4p1d contracted to 3s2p1d pattern {511/31/1}

Atom   0C    basis set group =>   1
Atom   1C    basis set group =>   1
Atom   2H    basis set group =>   2
Atom   3C    basis set group =>   1
Atom   4C    basis set group =>   1
Atom   5C    basis set group =>   1
Atom   6C    basis set group =>   1
Atom   7C    basis set group =>   1
Atom   8C    basis set group =>   1
Atom   9F    basis set group =>   3
Atom  10C    basis set group =>   1
Atom  11C    basis set group =>   1
Atom  12C    basis set group =>   1
Atom  13C    basis set group =>   1
Atom  14C    basis set group =>   1
Atom  15C    basis set group =>   1
Atom  16C    basis set group =>   1
Atom  17O    basis set group =>   4
Atom  18O    basis set group =>   4
Atom  19H    basis set group =>   2
Atom  20H    basis set group =>   2
Atom  21H    basis set group =>   2
Atom  22H    basis set group =>   2
Atom  23H    basis set group =>   2
Atom  24H    basis set group =>   2
Atom  25H    basis set group =>   2
Atom  26H    basis set group =>   2
Atom  27H    basis set group =>   2
Atom  28H    basis set group =>   2
Atom  29H    basis set group =>   2
Atom  30H    basis set group =>   2
---------------------------------
AUXILIARY/J BASIS SET INFORMATION
---------------------------------
There are 4 groups of distinct atoms

 Group   1 Type C   : 12s5p4d2f1g contracted to 6s4p3d1f1g pattern {711111/2111/211/2/1}
 Group   2 Type H   : 5s2p1d contracted to 3s1p1d pattern {311/2/1}
 Group   3 Type F   : 12s5p4d2f1g contracted to 6s4p3d1f1g pattern {711111/2111/211/2/1}
 Group   4 Type O   : 12s5p4d2f1g contracted to 6s4p3d1f1g pattern {711111/2111/211/2/1}

Atom   0C    basis set group =>   1
Atom   1C    basis set group =>   1
Atom   2H    basis set group =>   2
Atom   3C    basis set group =>   1
Atom   4C    basis set group =>   1
Atom   5C    basis set group =>   1
Atom   6C    basis set group =>   1
Atom   7C    basis set group =>   1
Atom   8C    basis set group =>   1
Atom   9F    basis set group =>   3
Atom  10C    basis set group =>   1
Atom  11C    basis set group =>   1
Atom  12C    basis set group =>   1
Atom  13C    basis set group =>   1
Atom  14C    basis set group =>   1
Atom  15C    basis set group =>   1
Atom  16C    basis set group =>   1
Atom  17O    basis set group =>   4
Atom  18O    basis set group =>   4
Atom  19H    basis set group =>   2
Atom  20H    basis set group =>   2
Atom  21H    basis set group =>   2
Atom  22H    basis set group =>   2
Atom  23H    basis set group =>   2
Atom  24H    basis set group =>   2
Atom  25H    basis set group =>   2
Atom  26H    basis set group =>   2
Atom  27H    basis set group =>   2
Atom  28H    basis set group =>   2
Atom  29H    basis set group =>   2
Atom  30H    basis set group =>   2
------------------------------------------------------------------------------
                             ORCA STARTUP CALCULATIONS
                           -- RI-GTO INTEGRALS CHOSEN --
------------------------------------------------------------------------------
------------------------------------------------------------------------------
                   ___                                                        
                  /   \      - P O W E R E D   B Y -                         
                 /     \                                                     
                 |  |  |   _    _      __       _____    __    __             
                 |  |  |  | |  | |    /  \     |  _  \  |  |  /  |          
                  \  \/   | |  | |   /    \    | | | |  |  | /  /          
                 / \  \   | |__| |  /  /\  \   | |_| |  |  |/  /          
                |  |  |   |  __  | /  /__\  \  |    /   |      \           
                |  |  |   | |  | | |   __   |  |    \   |  |\   \          
                \     /   | |  | | |  |  |  |  | |\  \  |  | \   \       
                 \___/    |_|  |_| |__|  |__|  |_| \__\ |__|  \__/        
                                                                              
                      - O R C A' S   B I G   F R I E N D -                    
                                      &                                       
                       - I N T E G R A L  F E E D E R -                       
                                                                              
 v1 FN, 2020, v2 2021, v3 2022-2024                                           
------------------------------------------------------------------------------


----------------------
SHARK INTEGRAL PACKAGE
----------------------

Number of atoms                             ...     31
Number of basis functions                   ...    278
Number of shells                            ...    134
Maximum angular momentum                    ...      2
Integral batch strategy                     ... SHARK/LIBINT Hybrid
RI-J (if used) integral strategy            ... SPLIT-RIJ (Revised 2003 algorithm where possible)
Printlevel                                  ...      1
Contraction scheme used                     ... SEGMENTED contraction
Prescreening option                         ... SCHWARTZ
   Thresh                                   ... 1.000e-09
   Tcut                                     ... 1.000e-10
   Tpresel                                  ... 1.000e-10 
Coulomb Range Separation                    ... NOT USED
Exchange Range Separation                   ... NOT USED
Multipole approximations                    ... NOT USED
Finite Nucleus Model                        ... NOT USED
CABS basis                                  ... NOT available
Auxiliary Coulomb fitting basis             ... AVAILABLE
   # of basis functions in Aux-J            ...   1025
   # of shells in Aux-J                     ...    335
   Maximum angular momentum in Aux-J        ...      4
Auxiliary J/K fitting basis                 ... NOT available
Auxiliary Correlation fitting basis         ... NOT available
Auxiliary 'external' fitting basis          ... NOT available

Checking pre-screening integrals            ... done (  0.0 sec) Dimension = 134
Check shell pair data                       ... done (  0.0 sec)
Shell pair information
Shell pair cut-off parameter TPreSel        ...   1.0e-10
Total number of shell pairs                 ...      9045
Shell pairs after pre-screening             ...      6708
Total number of primitive shell pairs       ...     36319
Primitive shell pairs kept                  ...     17079
          la=0 lb=0:   2333 shell pairs
          la=1 lb=0:   2252 shell pairs
          la=1 lb=1:    567 shell pairs
          la=2 lb=0:    965 shell pairs
          la=2 lb=1:    488 shell pairs
          la=2 lb=2:    103 shell pairs

Calculating one electron integrals          ... done (  0.1 sec)
Calculating RI/J V-Matrix + Cholesky decomp.... done (  0.1 sec)
Calculating Nuclear repulsion               ... done (  0.0 sec) ENN=   1228.693108712553 Eh

Diagonalization of the overlap matrix:
Smallest eigenvalue                        ... 2.246e-04
Time for diagonalization                   ...    0.007 sec
Threshold for overlap eigenvalues          ... 1.000e-07
Number of eigenvalues below threshold      ... 0
Time for construction of square roots      ...    0.007 sec
Total time needed                          ...    0.015 sec

-------------------
DFT GRID GENERATION
-------------------

General Integration Accuracy     IntAcc      ... 4.159
Radial Grid Type                 RadialGrid  ... OptM3 with GC (2021)
Angular Grid (max. ang.)         AngularGrid ... 3 (Lebedev-194)
Angular grid pruning method      GridPruning ... 4 (adaptive)
Weight generation scheme         WeightScheme... mBecke (2022)
Basis function cutoff            BFCut       ... 1.0000e-10
Integration weight cutoff        WCut        ... 1.0000e-14
Partially contracted basis set               ... off
Rotationally invariant grid construction     ... off
Angular grids for H and He will be reduced by one unit

Total number of grid points                  ...    76570
Total number of batches                      ...     1207
Average number of points per batch           ...       63
Average number of grid points per atom       ...     2470
Initializing property integral containers    ... done (  0.0 sec)

SHARK setup successfully completed in  21.6 seconds

Maximum memory used throughout the entire STARTUP-calculation: 40.5 MB
-------------------------------------------------------------------------------
                                 ORCA GUESS
                   Start orbitals & Density for SCF / CASSCF
-------------------------------------------------------------------------------

------------
SCF SETTINGS
------------
Hamiltonian:
 Density Functional     Method          .... DFT(GTOs)
 Exchange Functional    Exchange        .... PBE
   PBE kappa parameter   XKappa         ....  0.804000
   PBE mue parameter    XMuePBE         ....  0.219520
 Correlation Functional Correlation     .... PBE
   PBE beta parameter  CBetaPBE         ....  0.066725
 LDA part of GGA corr.  LDAOpt          .... PW91-LDA
 Gradients option       PostSCFGGA      .... off
   NL short-range parameter             ....  6.400000
 RI-approximation to the Coulomb term is turned on
   Number of AuxJ basis functions       .... 1025


General Settings:
 Integral files         IntName         .... sp
 Hartree-Fock type      HFTyp           .... RHF
 Total Charge           Charge          ....    0
 Multiplicity           Mult            ....    1
 Number of Electrons    NEL             ....  128
 Basis Dimension        Dim             ....  278
 Nuclear Repulsion      ENuc            ....   1228.6931087126 Eh

Convergence Acceleration:
 AO-DIIS                CNVDIIS         .... on
   Start iteration      DIISMaxIt       ....    12
   Startup error        DIISStart       ....  0.200000
   # of expansion vecs  DIISMaxEq       ....     5
   Bias factor          DIISBfac        ....   1.050
   Max. coefficient     DIISMaxC        ....  10.000
 MO-DIIS                CNVKDIIS        .... off
 Trust-Rad. Augm. Hess. CNVTRAH         .... auto
   Auto Start mean grad. ratio tolernc. ....  1.125000
   Auto Start start iteration           ....    50
   Auto Start num. interpolation iter.  ....    10
   Max. Number of Micro iterations      ....    24
   Max. Number of Macro iterations      .... Maxiter - #DIIS iter
   Number of Davidson start vectors     ....     2
   Converg. threshold    (grad. norm)   ....   1.000e-04
   Grad. Scal. Fac. for Micro threshold ....   0.100
   Minimum threshold for Micro iter.    ....   1.000e-02
   NR start threshold (gradient norm)   ....   1.000e-04
   Initial trust radius                 ....   0.400
   Minimum AH scaling param. (alpha)    ....   1.000
   Maximum AH scaling param. (alpha)    .... 1000.000
   Quad. conv. algorithm                .... NR
   White noise on init. David. guess    .... on
   Maximum white noise                  ....   0.010
   Pseudo random numbers                .... off
   Inactive MOs                         .... canonical
   Orbital update algorithm             .... Taylor
   Preconditioner                       .... Diag
   Full preconditioner red. dimension   ....   250
 SOSCF                  CNVSOSCF        .... on
   Start iteration      SOSCFMaxIt      ....   150
   Startup grad/error   SOSCFStart      ....  0.003300
   Hessian update       SOSCFHessUp     .... L-BFGS
 Level Shifting         CNVShift        .... on
   Level shift para.    LevelShift      ....    0.2500
   Turn off err/grad.   ShiftErr        ....    0.0010
 Zerner damping         CNVZerner       .... off
 Static damping         CNVDamp         .... on
   Fraction old density DampFac         ....    0.7000
   Max. Damping (<1)    DampMax         ....    0.9800
   Min. Damping (>=0)   DampMin         ....    0.0000
   Turn off err/grad.   DampErr         ....    0.1000

SCF Procedure:
 Maximum # iterations   MaxIter         ....   125
 SCF integral mode      SCFMode         .... Direct
   Integral package                     .... SHARK and LIBINT hybrid scheme
 Reset frequency        DirectResetFreq ....    20
 Integral Threshold     Thresh          ....  1.000e-09 Eh
 Primitive CutOff       TCut            ....  1.000e-10 Eh

Convergence Tolerance:
 Convergence Check Mode ConvCheckMode   .... Total+1el-Energy
 Convergence forced     ConvForced      .... 0
 Energy Change          TolE            ....  1.000e-05 Eh
 1-El. energy change                    ....  1.000e-02 Eh
 Orbital Gradient       TolG            ....  1.000e-04
 Orbital Rotation angle TolX            ....  1.000e-04
 DIIS Error             TolErr          ....  5.000e-04

------------------------------
INITIAL GUESS: MODEL POTENTIAL
------------------------------
Loading Hartree-Fock densities                     ... done
Calculating cut-offs                               ... done
Initializing the effective Hamiltonian             ... done
Setting up the integral package (SHARK)            ... done
Starting the Coulomb interaction                   ... done (   0.4 sec)
Making the grid                                    ... done (   0.4 sec)
Mapping shells                                     ... done
Starting the XC term evaluation                    ... done (   0.3 sec)
  promolecular density results
     # of electrons  =    127.992347914
     EX              =   -106.924896843
     EC              =     -4.302869729
     EX+EC           =   -111.227766572
Transforming the Hamiltonian                       ... done (   0.0 sec)
Diagonalizing the Hamiltonian                      ... done (   0.0 sec)
Back transforming the eigenvectors                 ... done (   0.0 sec)
Now organizing SCF variables                       ... done
                      ------------------
                      INITIAL GUESS DONE (   1.1 sec)
                      ------------------
             **** ENERGY FILE WAS UPDATED (sp.en.tmp) ****
Finished Guess after   1.2 sec
Maximum memory used throughout the entire GUESS-calculation: 32.0 MB

-------------------------------------------------------------------------------------------
                                      ORCA LEAN-SCF
                              memory conserving SCF solver
-------------------------------------------------------------------------------------------

----------------------------------------D-I-I-S--------------------------------------------
Iteration    Energy (Eh)           Delta-E    RMSDP     MaxDP     DIISErr   Damp  Time(sec)
-------------------------------------------------------------------------------------------
               ***  Starting incremental Fock matrix formation  ***
    1    -827.7507747629820187     0.00e+00  3.10e-03  1.05e-01  2.44e-01  0.700   1.5
    2    -827.9275486719293440    -1.77e-01  2.03e-03  6.17e-02  8.28e-02  0.700   1.4
                               ***Turning on AO-DIIS***
    3    -827.9868168513876299    -5.93e-02  8.54e-04  1.84e-02  2.90e-02  0.700   1.3
    4    -828.0240720909810079    -3.73e-02  1.51e-03  4.59e-02  1.16e-02  0.000   1.3
    5    -828.1083561632949568    -8.43e-02  3.78e-04  9.31e-03  6.99e-03  0.000   1.3
    6    -828.1091465510485250    -7.90e-04  1.35e-04  2.96e-03  3.41e-03  0.000   1.3
                              *** Initializing SOSCF ***
---------------------------------------S-O-S-C-F--------------------------------------
Iteration    Energy (Eh)           Delta-E    RMSDP     MaxDP     MaxGrad    Time(sec)
--------------------------------------------------------------------------------------
    7    -828.1092279232575493    -8.14e-05  5.08e-05  1.58e-03  1.08e-03     1.2
               *** Restarting incremental Fock matrix formation ***
    8    -828.1092349670143449    -7.04e-06  3.35e-05  9.31e-04  9.88e-05     1.5
    9    -828.1092338265007129     1.14e-06  1.54e-05  6.81e-04  2.27e-04     1.1
                 **** Energy Check signals convergence ****

               *****************************************************
               *                     SUCCESS                       *
               *           SCF CONVERGED AFTER   9 CYCLES          *
               *****************************************************

             **** ENERGY FILE WAS UPDATED (sp.en.tmp) ****

----------------
TOTAL SCF ENERGY
----------------

Total Energy       :       -828.10923382650071 Eh          -22533.99786 eV

Components:
Nuclear Repulsion  :       1228.69310871255266 Eh           33434.43926 eV
Electronic Energy  :      -2056.80234253905337 Eh          -55968.43712 eV
One Electron Energy:      -3568.01504246146487 Eh          -97090.62530 eV
Two Electron Energy:       1511.21269992241150 Eh           41122.18818 eV

Virial components:
Potential Energy   :      -1649.60229153417777 Eh          -44887.96041 eV
Kinetic Energy     :        821.49305770767717 Eh           22353.96255 eV
Virial Ratio       :          2.00805384300786

DFT components:
N(Alpha)           :       63.999747825978 electrons
N(Beta)            :       63.999747825978 electrons
N(Total)           :      127.999495651956 electrons
E(X)               :     -108.578425012745 Eh       
E(C)               :       -4.322030524392 Eh       
E(XC)              :     -112.900455537137 Eh       

---------------
SCF CONVERGENCE
---------------

  Last Energy change         ...   -1.1405e-06  Tolerance :   1.0000e-05
  Last MAX-Density change    ...    6.8096e-04  Tolerance :   1.0000e-03
  Last RMS-Density change    ...    1.5417e-05  Tolerance :   1.0000e-04
  Last DIIS Error            ...    1.0786e-03  Tolerance :   5.0000e-04
  Last Orbital Gradient      ...    2.2668e-04  Tolerance :   1.0000e-04
  Last Orbital Rotation      ...    5.8154e-04  Tolerance :   1.0000e-04


----------------
ORBITAL ENERGIES
----------------

  NO   OCC          E(Eh)            E(eV) 
   0   2.0000     -24.268339      -660.3751 
   1   2.0000     -18.807039      -511.7655 
   2   2.0000     -18.744965      -510.0764 
   3   2.0000     -10.019028      -272.6316 
   4   2.0000      -9.975221      -271.4396 
   5   2.0000      -9.920022      -269.9375 
   6   2.0000      -9.918173      -269.8872 
   7   2.0000      -9.911622      -269.7090 
   8   2.0000      -9.908306      -269.6187 
   9   2.0000      -9.903376      -269.4845 
  10   2.0000      -9.898754      -269.3588 
  11   2.0000      -9.897912      -269.3359 
  12   2.0000      -9.895290      -269.2645 
  13   2.0000      -9.894667      -269.2476 
  14   2.0000      -9.893938      -269.2278 
  15   2.0000      -9.893611      -269.2188 
  16   2.0000      -9.893273      -269.2096 
  17   2.0000      -9.887919      -269.0640 
  18   2.0000      -1.092923       -29.7400 
  19   2.0000      -1.016150       -27.6508 
  20   2.0000      -0.919364       -25.0172 
  21   2.0000      -0.799807       -21.7639 
  22   2.0000      -0.779090       -21.2001 
  23   2.0000      -0.740172       -20.1411 
  24   2.0000      -0.696393       -18.9498 
  25   2.0000      -0.678113       -18.4524 
  26   2.0000      -0.671949       -18.2847 
  27   2.0000      -0.647988       -17.6327 
  28   2.0000      -0.619615       -16.8606 
  29   2.0000      -0.577076       -15.7030 
  30   2.0000      -0.563526       -15.3343 
  31   2.0000      -0.540314       -14.7027 
  32   2.0000      -0.535559       -14.5733 
  33   2.0000      -0.524550       -14.2737 
  34   2.0000      -0.487345       -13.2613 
  35   2.0000      -0.467887       -12.7318 
  36   2.0000      -0.462821       -12.5940 
  37   2.0000      -0.437910       -11.9161 
  38   2.0000      -0.427997       -11.6464 
  39   2.0000      -0.419271       -11.4089 
  40   2.0000      -0.416627       -11.3370 
  41   2.0000      -0.408900       -11.1267 
  42   2.0000      -0.400542       -10.8993 
  43   2.0000      -0.393465       -10.7067 
  44   2.0000      -0.390268       -10.6197 
  45   2.0000      -0.387436       -10.5427 
  46   2.0000      -0.375445       -10.2164 
  47   2.0000      -0.363874        -9.9015 
  48   2.0000      -0.359167        -9.7734 
  49   2.0000      -0.346734        -9.4351 
  50   2.0000      -0.339964        -9.2509 
  51   2.0000      -0.334133        -9.0922 
  52   2.0000      -0.325476        -8.8566 
  53   2.0000      -0.317570        -8.6415 
  54   2.0000      -0.316559        -8.6140 
  55   2.0000      -0.311652        -8.4805 
  56   2.0000      -0.302064        -8.2196 
  57   2.0000      -0.292442        -7.9577 
  58   2.0000      -0.280385        -7.6297 
  59   2.0000      -0.251911        -6.8549 
  60   2.0000      -0.231774        -6.3069 
  61   2.0000      -0.229639        -6.2488 
  62   2.0000      -0.228842        -6.2271 
  63   2.0000      -0.207686        -5.6514 
  64   0.0000      -0.064174        -1.7463 
  65   0.0000      -0.040581        -1.1043 
  66   0.0000      -0.036346        -0.9890 
  67   0.0000      -0.028385        -0.7724 
  68   0.0000      -0.007515        -0.2045 
  69   0.0000       0.022017         0.5991 
  70   0.0000       0.042762         1.1636 
  71   0.0000       0.045933         1.2499 
  72   0.0000       0.059216         1.6114 
  73   0.0000       0.071746         1.9523 
  74   0.0000       0.080880         2.2009 
*Only the first 10 virtual orbitals were printed.

                    ********************************
                    * MULLIKEN POPULATION ANALYSIS *
                    ********************************

-----------------------
MULLIKEN ATOMIC CHARGES
-----------------------
   0 C :   -0.221925
   1 C :   -0.117064
   2 H :    0.076891
   3 C :    0.102103
   4 C :   -0.102067
   5 C :   -0.119091
   6 C :    0.030062
   7 C :    0.273376
   8 C :   -0.230560
   9 F :   -0.170873
  10 C :    0.112461
  11 C :   -0.111124
  12 C :   -0.049294
  13 C :   -0.045483
  14 C :   -0.052284
  15 C :   -0.096002
  16 C :    0.111190
  17 O :   -0.188714
  18 O :   -0.279718
  19 H :    0.107867
  20 H :    0.124565
  21 H :    0.110431
  22 H :    0.039534
  23 H :    0.049922
  24 H :    0.067817
  25 H :    0.048004
  26 H :    0.052896
  27 H :    0.054735
  28 H :    0.054439
  29 H :    0.050724
  30 H :    0.317182
Sum of atomic charges:    0.0000000

--------------------------------
MULLIKEN REDUCED ORBITAL CHARGES
--------------------------------
  0 C s       :     3.080384  s :     3.080384
      pz      :     1.013707  p :     3.112861
      px      :     1.044625
      py      :     1.054529
      dz2     :     0.006756  d :     0.028679
      dxz     :     0.005580
      dyz     :     0.004680
      dx2y2   :     0.009647
      dxy     :     0.002016

  1 C s       :     3.069019  s :     3.069019
      pz      :     0.989076  p :     3.007386
      px      :     1.008147
      py      :     1.010164
      dz2     :     0.009795  d :     0.040660
      dxz     :     0.009403
      dyz     :     0.005508
      dx2y2   :     0.010102
      dxy     :     0.005852

  2 H s       :     0.923109  s :     0.923109

  3 C s       :     2.976530  s :     2.976530
      pz      :     0.979776  p :     2.879269
      px      :     0.956698
      py      :     0.942796
      dz2     :     0.004126  d :     0.042097
      dxz     :     0.006766
      dyz     :     0.006571
      dx2y2   :     0.012509
      dxy     :     0.012127

  4 C s       :     3.261898  s :     3.261898
      pz      :     0.994608  p :     2.805587
      px      :     0.930290
      py      :     0.880688
      dz2     :     0.002810  d :     0.034582
      dxz     :     0.006427
      dyz     :     0.004188
      dx2y2   :     0.009878
      dxy     :     0.011279

  5 C s       :     3.279045  s :     3.279045
      pz      :     0.987613  p :     2.805097
      px      :     0.904050
      py      :     0.913434
      dz2     :     0.003731  d :     0.034949
      dxz     :     0.006205
      dyz     :     0.003887
      dx2y2   :     0.008541
      dxy     :     0.012585

  6 C s       :     3.041268  s :     3.041268
      pz      :     1.014250  p :     2.888969
      px      :     0.932911
      py      :     0.941808
      dz2     :     0.003985  d :     0.039701
      dxz     :     0.007490
      dyz     :     0.005622
      dx2y2   :     0.010296
      dxy     :     0.012309

  7 C s       :     3.007746  s :     3.007746
      pz      :     0.968070  p :     2.641856
      px      :     0.890346
      py      :     0.783440
      dz2     :     0.007643  d :     0.077022
      dxz     :     0.010949
      dyz     :     0.014124
      dx2y2   :     0.021895
      dxy     :     0.022412

  8 C s       :     3.395689  s :     3.395689
      pz      :     1.016426  p :     2.802564
      px      :     0.926312
      py      :     0.859825
      dz2     :     0.003659  d :     0.032307
      dxz     :     0.005817
      dyz     :     0.003995
      dx2y2   :     0.009411
      dxy     :     0.009426

  9 F s       :     3.897590  s :     3.897590
      pz      :     1.825836  p :     5.265836
      px      :     1.843398
      py      :     1.596602
      dz2     :     0.001010  d :     0.007448
      dxz     :     0.000629
      dyz     :     0.001967
      dx2y2   :     0.001860
      dxy     :     0.001983

 10 C s       :     2.994741  s :     2.994741
      pz      :     0.968158  p :     2.851694
      px      :     0.948364
      py      :     0.935172
      dz2     :     0.004929  d :     0.041104
      dxz     :     0.007401
      dyz     :     0.005855
      dx2y2   :     0.012255
      dxy     :     0.010662

 11 C s       :     3.258172  s :     3.258172
      pz      :     0.985400  p :     2.818454
      px      :     0.924321
      py      :     0.908732
      dz2     :     0.003722  d :     0.034498
      dxz     :     0.006694
      dyz     :     0.004045
      dx2y2   :     0.008382
      dxy     :     0.011654

 12 C s       :     3.187276  s :     3.187276
      pz      :     0.967359  p :     2.826934
      px      :     0.956906
      py      :     0.902669
      dz2     :     0.002848  d :     0.035084
      dxz     :     0.006947
      dyz     :     0.004905
      dx2y2   :     0.009179
      dxy     :     0.011205

 13 C s       :     3.181642  s :     3.181642
      pz      :     0.988588  p :     2.828861
      px      :     0.850394
      py      :     0.989879
      dz2     :     0.004999  d :     0.034980
      dxz     :     0.003535
      dyz     :     0.005757
      dx2y2   :     0.012883
      dxy     :     0.007806

 14 C s       :     3.187723  s :     3.187723
      pz      :     0.975494  p :     2.829498
      px      :     0.957611
      py      :     0.896393
      dz2     :     0.003726  d :     0.035062
      dxz     :     0.006728
      dyz     :     0.004128
      dx2y2   :     0.008835
      dxy     :     0.011647

 15 C s       :     3.264330  s :     3.264330
      pz      :     0.956936  p :     2.797126
      px      :     0.925976
      py      :     0.914214
      dz2     :     0.002846  d :     0.034546
      dxz     :     0.006890
      dyz     :     0.004891
      dx2y2   :     0.008760
      dxy     :     0.011159

 16 C s       :     3.034636  s :     3.034636
      pz      :     0.975793  p :     2.722467
      px      :     0.865216
      py      :     0.881457
      dz2     :     0.021773  d :     0.131707
      dxz     :     0.009129
      dyz     :     0.045428
      dx2y2   :     0.024555
      dxy     :     0.030821

 17 O s       :     3.736965  s :     3.736965
      pz      :     1.640412  p :     4.434107
      px      :     1.428754
      py      :     1.364940
      dz2     :     0.002171  d :     0.017643
      dxz     :     0.000684
      dyz     :     0.004865
      dx2y2   :     0.004945
      dxy     :     0.004978

 18 O s       :     3.721439  s :     3.721439
      pz      :     1.298976  p :     4.542550
      px      :     1.684428
      py      :     1.559145
      dz2     :     0.003671  d :     0.015729
      dxz     :     0.002101
      dyz     :     0.004034
      dx2y2   :     0.003073
      dxy     :     0.002850

 19 H s       :     0.892133  s :     0.892133

 20 H s       :     0.875435  s :     0.875435

 21 H s       :     0.889569  s :     0.889569

 22 H s       :     0.960466  s :     0.960466

 23 H s       :     0.950078  s :     0.950078

 24 H s       :     0.932183  s :     0.932183

 25 H s       :     0.951996  s :     0.951996

 26 H s       :     0.947104  s :     0.947104

 27 H s       :     0.945265  s :     0.945265

 28 H s       :     0.945561  s :     0.945561

 29 H s       :     0.949276  s :     0.949276

 30 H s       :     0.682818  s :     0.682818


------------------------
MULLIKEN OVERLAP CHARGES
------------------------
B(  0-C ,  1-C ) :   0.7402 B(  0-C ,  3-C ) :  -0.0929 B(  0-C , 16-C ) :  -0.0621 
B(  0-C , 19-H ) :   0.7353 B(  0-C , 20-H ) :   0.7372 B(  0-C , 21-H ) :   0.7440 
B(  1-C ,  2-H ) :   0.5648 B(  1-C ,  3-C ) :   0.8062 B(  1-C ,  4-C ) :  -0.1916 
B(  1-C ,  8-C ) :  -0.2695 B(  1-C , 16-C ) :   0.3365 B(  1-C , 17-O ) :  -0.2312 
B(  1-C , 18-O ) :  -0.2630 B(  1-C , 21-H ) :  -0.0531 B(  2-H ,  3-C ) :  -0.0575 
B(  3-C ,  4-C ) :   0.2724 B(  3-C ,  5-C ) :   0.3881 B(  3-C ,  6-C ) :  -0.4500 
B(  3-C ,  7-C ) :   0.4673 B(  3-C ,  8-C ) :  -0.0707 B(  3-C , 16-C ) :  -0.0667 
B(  3-C , 22-H ) :  -0.1758 B(  3-C , 24-H ) :  -0.1801 B(  4-C ,  5-C ) :   0.2669 
B(  4-C ,  6-C ) :   0.3965 B(  4-C ,  7-C ) :  -0.4332 B(  4-C ,  8-C ) :   0.2461 
B(  4-C , 22-H ) :   0.8821 B(  4-C , 23-H ) :  -0.1769 B(  5-C ,  6-C ) :   0.2734 
B(  5-C ,  7-C ) :   0.3412 B(  5-C ,  8-C ) :  -0.3365 B(  5-C , 10-C ) :  -0.2074 
B(  5-C , 22-H ) :  -0.1768 B(  5-C , 23-H ) :   0.8802 B(  6-C ,  7-C ) :  -0.0536 
B(  6-C ,  8-C ) :   0.1845 B(  6-C ,  9-F ) :  -0.1853 B(  6-C , 10-C ) :   0.5888 
B(  6-C , 11-C ) :  -0.1995 B(  6-C , 15-C ) :  -0.2530 B(  6-C , 23-H ) :  -0.1589 
B(  6-C , 24-H ) :   0.0508 B(  6-C , 29-H ) :  -0.0512 B(  7-C ,  8-C ) :   0.2165 
B(  7-C ,  9-F ) :   0.8052 B(  7-C , 10-C ) :  -0.2172 B(  7-C , 24-H ) :  -0.1376 
B(  8-C ,  9-F ) :  -0.1544 B(  8-C , 24-H ) :   0.8211 B( 10-C , 11-C ) :   0.2986 
B( 10-C , 12-C ) :   0.3841 B( 10-C , 13-C ) :  -0.4443 B( 10-C , 14-C ) :   0.3962 
B( 10-C , 15-C ) :   0.3271 B( 10-C , 23-H ) :  -0.0570 B( 10-C , 25-H ) :  -0.1565 
B( 10-C , 29-H ) :  -0.1544 B( 11-C , 12-C ) :   0.3011 B( 11-C , 13-C ) :   0.3636 
B( 11-C , 14-C ) :  -0.4074 B( 11-C , 15-C ) :   0.2335 B( 11-C , 25-H ) :   0.8661 
B( 11-C , 26-H ) :  -0.1806 B( 12-C , 13-C ) :   0.2587 B( 12-C , 14-C ) :   0.3718 
B( 12-C , 15-C ) :  -0.4038 B( 12-C , 25-H ) :  -0.1691 B( 12-C , 26-H ) :   0.8882 
B( 12-C , 27-H ) :  -0.1772 B( 13-C , 14-C ) :   0.2485 B( 13-C , 15-C ) :   0.3655 
B( 13-C , 26-H ) :  -0.1819 B( 13-C , 27-H ) :   0.8830 B( 13-C , 28-H ) :  -0.1833 
B( 14-C , 15-C ) :   0.2955 B( 14-C , 27-H ) :  -0.1758 B( 14-C , 28-H ) :   0.8881 
B( 14-C , 29-H ) :  -0.1660 B( 15-C , 28-H ) :  -0.1777 B( 15-C , 29-H ) :   0.8689 
B( 16-C , 17-O ) :   1.3700 B( 16-C , 18-O ) :   0.8826 B( 17-O , 18-O ) :  -0.1770 
B( 18-O , 30-H ) :   0.4868 


                     *******************************
                     * LOEWDIN POPULATION ANALYSIS *
                     *******************************

----------------------
LOEWDIN ATOMIC CHARGES
----------------------
   0 C :   -0.316405
   1 C :   -0.153498
   2 H :    0.133069
   3 C :   -0.021815
   4 C :   -0.130623
   5 C :   -0.103703
   6 C :   -0.055109
   7 C :    0.081979
   8 C :   -0.142240
   9 F :   -0.054490
  10 C :   -0.028205
  11 C :   -0.114187
  12 C :   -0.121108
  13 C :   -0.122367
  14 C :   -0.119891
  15 C :   -0.107954
  16 C :    0.037448
  17 O :   -0.167113
  18 O :   -0.196110
  19 H :    0.124432
  20 H :    0.129587
  21 H :    0.126033
  22 H :    0.125158
  23 H :    0.129412
  24 H :    0.142731
  25 H :    0.124990
  26 H :    0.124357
  27 H :    0.124079
  28 H :    0.125055
  29 H :    0.125998
  30 H :    0.300489

-------------------------------
LOEWDIN REDUCED ORBITAL CHARGES
-------------------------------
  0 C s       :     2.946598  s :     2.946598
      pz      :     1.077918  p :     3.299503
      px      :     1.113974
      py      :     1.107610
      dz2     :     0.015465  d :     0.070304
      dxz     :     0.013784
      dyz     :     0.013157
      dx2y2   :     0.022894
      dxy     :     0.005005

  1 C s       :     2.878901  s :     2.878901
      pz      :     1.042987  p :     3.172710
      px      :     1.044565
      py      :     1.085158
      dz2     :     0.024407  d :     0.101888
      dxz     :     0.022302
      dyz     :     0.016403
      dx2y2   :     0.026075
      dxy     :     0.012700

  2 H s       :     0.866931  s :     0.866931

  3 C s       :     2.848463  s :     2.848463
      pz      :     0.969566  p :     3.061663
      px      :     1.017015
      py      :     1.075082
      dz2     :     0.009860  d :     0.111689
      dxz     :     0.014759
      dyz     :     0.016174
      dx2y2   :     0.036335
      dxy     :     0.034561

  4 C s       :     2.888271  s :     2.888271
      pz      :     1.019321  p :     3.150138
      px      :     1.075898
      py      :     1.054919
      dz2     :     0.006674  d :     0.092214
      dxz     :     0.014791
      dyz     :     0.008698
      dx2y2   :     0.029530
      dxy     :     0.032522

  5 C s       :     2.889426  s :     2.889426
      pz      :     0.996032  p :     3.121901
      px      :     1.075863
      py      :     1.050006
      dz2     :     0.008355  d :     0.092377
      dxz     :     0.014618
      dyz     :     0.008680
      dx2y2   :     0.026198
      dxy     :     0.034525

  6 C s       :     2.844874  s :     2.844874
      pz      :     1.004302  p :     3.101999
      px      :     1.035230
      py      :     1.062467
      dz2     :     0.009735  d :     0.108236
      dxz     :     0.015939
      dyz     :     0.013836
      dx2y2   :     0.032163
      dxy     :     0.036564

  7 C s       :     2.853139  s :     2.853139
      pz      :     0.970034  p :     2.883142
      px      :     1.050082
      py      :     0.863026
      dz2     :     0.016417  d :     0.181739
      dxz     :     0.023730
      dyz     :     0.029593
      dx2y2   :     0.055575
      dxy     :     0.056425

  8 C s       :     2.894308  s :     2.894308
      pz      :     1.026673  p :     3.160410
      px      :     1.062507
      py      :     1.071229
      dz2     :     0.008299  d :     0.087522
      dxz     :     0.013538
      dyz     :     0.008871
      dx2y2   :     0.028966
      dxy     :     0.027847

  9 F s       :     3.736402  s :     3.736402
      pz      :     1.831197  p :     5.306334
      px      :     1.849816
      py      :     1.625321
      dz2     :     0.001534  d :     0.011753
      dxz     :     0.000952
      dyz     :     0.003131
      dx2y2   :     0.002932
      dxy     :     0.003203

 10 C s       :     2.840134  s :     2.840134
      pz      :     0.989443  p :     3.076458
      px      :     1.020959
      py      :     1.066056
      dz2     :     0.011285  d :     0.111613
      dxz     :     0.017096
      dyz     :     0.015696
      dx2y2   :     0.035863
      dxy     :     0.031673

 11 C s       :     2.891292  s :     2.891292
      pz      :     1.007986  p :     3.131845
      px      :     1.076598
      py      :     1.047260
      dz2     :     0.008315  d :     0.091050
      dxz     :     0.016382
      dyz     :     0.009272
      dx2y2   :     0.025421
      dxy     :     0.031661

 12 C s       :     2.890464  s :     2.890464
      pz      :     0.998959  p :     3.138097
      px      :     1.084193
      py      :     1.054945
      dz2     :     0.006857  d :     0.092547
      dxz     :     0.016381
      dyz     :     0.010736
      dx2y2   :     0.027258
      dxy     :     0.031315

 13 C s       :     2.891726  s :     2.891726
      pz      :     1.003542  p :     3.138604
      px      :     1.063082
      py      :     1.071979
      dz2     :     0.010576  d :     0.092037
      dxz     :     0.008430
      dyz     :     0.015771
      dx2y2   :     0.033468
      dxy     :     0.023792

 14 C s       :     2.890799  s :     2.890799
      pz      :     0.999352  p :     3.136620
      px      :     1.084143
      py      :     1.053125
      dz2     :     0.008379  d :     0.092472
      dxz     :     0.016490
      dyz     :     0.009620
      dx2y2   :     0.026411
      dxy     :     0.031572

 15 C s       :     2.892330  s :     2.892330
      pz      :     0.998762  p :     3.124590
      px      :     1.078600
      py      :     1.047228
      dz2     :     0.006847  d :     0.091033
      dxz     :     0.016053
      dyz     :     0.010597
      dx2y2   :     0.026318
      dxy     :     0.031219

 16 C s       :     2.847619  s :     2.847619
      pz      :     0.980984  p :     2.816966
      px      :     0.846926
      py      :     0.989055
      dz2     :     0.049888  d :     0.297967
      dxz     :     0.018855
      dyz     :     0.105640
      dx2y2   :     0.060129
      dxy     :     0.063455

 17 O s       :     3.549980  s :     3.549980
      pz      :     1.656915  p :     4.585877
      px      :     1.434338
      py      :     1.494624
      dz2     :     0.003873  d :     0.031256
      dxz     :     0.001021
      dyz     :     0.008939
      dx2y2   :     0.010370
      dxy     :     0.007054

 18 O s       :     3.503033  s :     3.503033
      pz      :     1.362645  p :     4.663375
      px      :     1.678629
      py      :     1.622101
      dz2     :     0.007294  d :     0.029702
      dxz     :     0.004195
      dyz     :     0.008728
      dx2y2   :     0.005531
      dxy     :     0.003954

 19 H s       :     0.875568  s :     0.875568

 20 H s       :     0.870413  s :     0.870413

 21 H s       :     0.873967  s :     0.873967

 22 H s       :     0.874842  s :     0.874842

 23 H s       :     0.870588  s :     0.870588

 24 H s       :     0.857269  s :     0.857269

 25 H s       :     0.875010  s :     0.875010

 26 H s       :     0.875643  s :     0.875643

 27 H s       :     0.875921  s :     0.875921

 28 H s       :     0.874945  s :     0.874945

 29 H s       :     0.874002  s :     0.874002

 30 H s       :     0.699511  s :     0.699511


---------------------------------
LOEWDIN BOND ORDERS (THRESH 0.050000)
---------------------------------
B(  0-C ,  1-C ) :   1.0743 B(  0-C ,  3-C ) :   0.0572 B(  0-C , 16-C ) :   0.0584 
B(  0-C , 19-H ) :   0.9341 B(  0-C , 20-H ) :   0.9305 B(  0-C , 21-H ) :   0.9328 
B(  1-C ,  2-H ) :   0.8591 B(  1-C ,  3-C ) :   1.0042 B(  1-C ,  4-C ) :   0.0742 
B(  1-C ,  8-C ) :   0.0672 B(  1-C , 16-C ) :   0.9948 B(  1-C , 17-O ) :   0.0911 
B(  1-C , 18-O ) :   0.0717 B(  3-C ,  4-C ) :   1.4276 B(  3-C ,  5-C ) :   0.0895 
B(  3-C ,  6-C ) :   0.0971 B(  3-C ,  7-C ) :   0.0959 B(  3-C ,  8-C ) :   1.4153 
B(  3-C , 16-C ) :   0.0732 B(  4-C ,  5-C ) :   1.5100 B(  4-C ,  6-C ) :   0.0871 
B(  4-C ,  7-C ) :   0.1012 B(  4-C ,  8-C ) :   0.0841 B(  4-C , 22-H ) :   0.8803 
B(  5-C ,  6-C ) :   1.4063 B(  5-C ,  7-C ) :   0.0927 B(  5-C ,  8-C ) :   0.1119 
B(  5-C , 10-C ) :   0.0745 B(  5-C , 23-H ) :   0.8775 B(  6-C ,  7-C ) :   1.3578 
B(  6-C ,  8-C ) :   0.0892 B(  6-C ,  9-F ) :   0.0883 B(  6-C , 10-C ) :   1.0458 
B(  6-C , 11-C ) :   0.0770 B(  6-C , 15-C ) :   0.0755 B(  7-C ,  8-C ) :   1.4661 
B(  7-C ,  9-F ) :   1.2455 B(  7-C , 10-C ) :   0.0746 B(  8-C ,  9-F ) :   0.0980 
B(  8-C , 24-H ) :   0.8638 B( 10-C , 11-C ) :   1.4125 B( 10-C , 12-C ) :   0.0870 
B( 10-C , 13-C ) :   0.1098 B( 10-C , 14-C ) :   0.0876 B( 10-C , 15-C ) :   1.4147 
B( 11-C , 12-C ) :   1.5127 B( 11-C , 13-C ) :   0.0866 B( 11-C , 14-C ) :   0.1168 
B( 11-C , 15-C ) :   0.0808 B( 11-C , 25-H ) :   0.8817 B( 12-C , 13-C ) :   1.4970 
B( 12-C , 14-C ) :   0.0862 B( 12-C , 15-C ) :   0.1173 B( 12-C , 26-H ) :   0.8876 
B( 13-C , 14-C ) :   1.4964 B( 13-C , 15-C ) :   0.0866 B( 13-C , 27-H ) :   0.8895 
B( 14-C , 15-C ) :   1.5128 B( 14-C , 28-H ) :   0.8874 B( 15-C , 29-H ) :   0.8828 
B( 16-C , 17-O ) :   2.2136 B( 16-C , 18-O ) :   1.4704 B( 17-O , 18-O ) :   0.2138 
B( 18-O , 30-H ) :   0.8469 

------------------------------------------
LOEWDIN REDUCED ORBITAL POPULATIONS PER MO
-------------------------------------------
THRESHOLD FOR PRINTING IS 0.1%%
                      0         1         2         3         4         5   
                 -24.26834 -18.80704 -18.74496 -10.01903  -9.97522  -9.92002
                   2.00000   2.00000   2.00000   2.00000   2.00000   2.00000
                  --------  --------  --------  --------  --------  --------
 1 C  s               0.0       0.0       0.0       0.0       0.0      99.5
 3 C  px              0.0       0.0       0.0       0.0       0.0       0.1
 7 C  s               0.0       0.0       0.0       0.0      99.5       0.0
 8 C  px              0.0       0.0       0.0       0.0       0.2       0.0
 9 F  s             100.0       0.0       0.0       0.0       0.0       0.0
16 C  s               0.0       0.0       0.0      99.3       0.0       0.0
17 O  s               0.0       0.0      99.9       0.0       0.0       0.0
17 O  py              0.0       0.0       0.0       0.2       0.0       0.0
18 O  s               0.0      99.9       0.0       0.0       0.0       0.0
18 O  py              0.0       0.0       0.0       0.1       0.0       0.0

                      6         7         8         9        10        11   
                  -9.91817  -9.91162  -9.90831  -9.90338  -9.89875  -9.89791
                   2.00000   2.00000   2.00000   2.00000   2.00000   2.00000
                  --------  --------  --------  --------  --------  --------
 1 C  px              0.1       0.0       0.0       0.0       0.0       0.0
 3 C  s              99.5       0.0       0.0       0.0       0.0       0.0
 4 C  s               0.0       0.0       0.0       0.1      99.5       0.0
 4 C  px              0.0       0.0       0.0       0.1       0.0       0.0
 5 C  s               0.0       0.0       0.0      99.5       0.1       0.0
 5 C  px              0.0       0.0       0.0       0.0       0.1       0.0
 5 C  py              0.0       0.1       0.0       0.0       0.0       0.0
 6 C  s               0.0      99.5       0.0       0.0       0.0       0.0
 6 C  px              0.0       0.0       0.1       0.0       0.0       0.0
 7 C  px              0.0       0.1       0.0       0.0       0.0       0.1
 8 C  s               0.0       0.0       0.0       0.0       0.0      99.5
 8 C  py              0.1       0.0       0.0       0.0       0.0       0.0
10 C  s               0.0       0.0      99.5       0.0       0.0       0.0
10 C  px              0.0       0.1       0.0       0.0       0.0       0.0

                     12        13        14        15        16        17   
                  -9.89529  -9.89467  -9.89394  -9.89361  -9.89327  -9.88792
                   2.00000   2.00000   2.00000   2.00000   2.00000   2.00000
                  --------  --------  --------  --------  --------  --------
 0 C  s               0.0       0.0       0.0       0.0       0.0      99.7
11 C  s              95.1       4.4       0.0       0.0       0.0       0.0
11 C  px              0.0       0.1       0.0       0.0       0.0       0.0
12 C  s               4.4      92.7       2.3       0.2       0.0       0.0
12 C  px              0.1       0.0       0.0       0.0       0.0       0.0
13 C  s               0.1       2.4      82.9      14.0       0.3       0.0
14 C  s               0.0       0.1      13.5      72.5      13.6       0.0
14 C  px              0.0       0.0       0.0       0.0       0.1       0.0
15 C  s               0.0       0.0       0.9      12.9      85.7       0.0
15 C  px              0.0       0.0       0.0       0.1       0.0       0.0

                     18        19        20        21        22        23   
                  -1.09292  -1.01615  -0.91936  -0.79981  -0.77909  -0.74017
                   2.00000   2.00000   2.00000   2.00000   2.00000   2.00000
                  --------  --------  --------  --------  --------  --------
 0 C  s               0.0       0.1       0.1       0.5       0.7       7.2
 0 C  pz              0.0       0.1       0.1       0.2       0.2       1.0
 0 C  px              0.0       0.0       0.0       0.1       0.1       0.2
 0 C  py              0.0       0.0       0.0       0.1       0.1       0.8
 1 C  s               0.0       1.0       0.2       2.9       2.8      17.5
 1 C  pz              0.0       1.6       0.1       0.0       0.0       0.0
 1 C  px              0.0       0.3       0.0       1.0       0.5       0.1
 1 C  py              0.0       0.0       0.4       0.0       0.0       0.2
 2 H  s               0.0       0.2       0.0       0.5       0.5       3.2
 3 C  s               0.0       0.1       0.0      10.6       5.8       5.0
 3 C  px              0.0       0.1       0.0       0.8       0.0       4.8
 4 C  s               0.0       0.0       0.0       8.4       2.7       0.0
 4 C  pz              0.0       0.0       0.0       0.2       0.1       0.0
 4 C  px              0.0       0.0       0.0       0.2       0.1       3.0
 4 C  py              0.0       0.0       0.0       1.6       0.6       0.2
 5 C  s               0.0       0.0       0.0       9.2       0.5       4.6
 5 C  pz              0.0       0.0       0.0       0.2       0.0       0.2
 5 C  px              0.0       0.0       0.0       0.3       1.0       0.3
 5 C  py              0.0       0.0       0.0       1.6       0.0       1.0
 6 C  s               0.4       0.0       0.0      12.4       0.2       8.6
 6 C  px              0.1       0.0       0.0       0.4       3.2       0.3
 6 C  py              0.8       0.0       0.0       0.0       0.0       0.0
 6 C  dz2             0.0       0.0       0.0       0.1       0.0       0.1
 7 C  s               8.0       0.0       0.0       7.0       0.6       2.7
 7 C  pz              1.4       0.0       0.0       0.5       0.0       0.2
 7 C  px              1.7       0.0       0.0       0.3       1.2       0.5
 7 C  py              7.4       0.0       0.0       3.4       0.0       1.9
 7 C  dz2             0.2       0.0       0.0       0.1       0.0       0.0
 7 C  dyz             0.4       0.0       0.0       0.0       0.0       0.0
 7 C  dx2y2           0.3       0.0       0.0       0.0       0.0       0.0
 7 C  dxy             0.5       0.0       0.0       0.1       0.0       0.1
 8 C  s               0.5       0.0       0.0       8.1       3.2       0.1
 8 C  pz              0.0       0.0       0.0       0.2       0.1       0.1
 8 C  px              1.0       0.0       0.0       0.3       0.0       2.3
 8 C  py              0.1       0.0       0.0       1.7       0.7       0.2
 9 F  s              74.2       0.0       0.0       1.1       0.0       0.5
 9 F  pz              0.3       0.0       0.0       0.1       0.0       0.0
 9 F  px              0.3       0.0       0.0       0.0       0.0       0.0
 9 F  py              1.6       0.0       0.0       0.3       0.0       0.3
10 C  s               0.0       0.0       0.0       6.5       9.8       0.6
10 C  px              0.1       0.0       0.0       0.3       2.0       2.8
11 C  s               0.0       0.0       0.0       2.8       9.4       0.2
11 C  pz              0.0       0.0       0.0       0.2       0.2       0.0
11 C  px              0.0       0.0       0.0       0.0       0.4       1.1
11 C  py              0.0       0.0       0.0       0.6       1.4       0.0
12 C  s               0.0       0.0       0.0       1.3       8.6       2.1
12 C  pz              0.0       0.0       0.0       0.1       0.4       0.1
12 C  px              0.0       0.0       0.0       0.2       0.5       0.0
12 C  py              0.0       0.0       0.0       0.2       1.1       0.3
13 C  s               0.0       0.0       0.0       1.1       8.3       3.1
13 C  px              0.0       0.0       0.0       0.3       1.9       0.3
14 C  s               0.0       0.0       0.0       1.3       8.5       2.2
14 C  pz              0.0       0.0       0.0       0.0       0.2       0.1
14 C  px              0.0       0.0       0.0       0.2       0.6       0.0
14 C  py              0.0       0.0       0.0       0.2       1.2       0.3
15 C  s               0.0       0.0       0.0       2.5       9.2       0.3
15 C  pz              0.0       0.0       0.0       0.1       0.4       0.0
15 C  px              0.0       0.0       0.0       0.0       0.4       1.0
15 C  py              0.0       0.0       0.0       0.6       1.3       0.0
16 C  s               0.0      20.0       4.2       0.1       0.1       1.4
16 C  pz              0.0       4.3       0.1       0.6       0.6       4.8
16 C  px              0.0       0.7       0.1       0.3       0.3       1.2
16 C  py              0.0       0.6      25.5       0.1       0.1       0.9
16 C  dz2             0.0       0.0       0.2       0.0       0.0       0.1
16 C  dyz             0.0       0.2       1.4       0.0       0.0       0.0
16 C  dx2y2           0.0       0.8       0.3       0.0       0.0       0.0
16 C  dxy             0.0       0.0       0.3       0.0       0.0       0.0
17 O  s               0.0      12.1      40.8       0.2       0.2       0.9
17 O  pz              0.0       0.1       0.7       0.0       0.0       0.1
17 O  px              0.0       0.1       0.2       0.0       0.0       0.0
17 O  py              0.0       2.8       3.4       0.0       0.0       0.1
18 O  s               0.0      42.9      17.9       0.0       0.0       0.3
18 O  pz              0.0       0.0       0.2       0.1       0.1       1.0
18 O  px              0.0       0.0       0.0       0.0       0.0       0.2
18 O  py              0.0       3.6       0.3       0.0       0.0       0.0
19 H  s               0.0       0.0       0.0       0.1       0.1       1.2
20 H  s               0.0       0.0       0.1       0.1       0.1       1.3
21 H  s               0.0       0.0       0.0       0.1       0.1       1.3
22 H  s               0.0       0.0       0.0       1.1       0.4       0.0
23 H  s               0.0       0.0       0.0       1.3       0.0       0.7
24 H  s               0.1       0.0       0.1       1.0       0.4       0.1
25 H  s               0.0       0.0       0.0       0.5       1.2       0.0
26 H  s               0.0       0.0       0.0       0.2       1.1       0.3
27 H  s               0.0       0.0       0.0       0.1       1.0       0.5
28 H  s               0.0       0.0       0.0       0.2       1.1       0.3
29 H  s               0.1       0.0       0.0       0.4       1.2       0.0
30 H  s               0.0       7.7       3.0       0.0       0.0       0.4

                     24        25        26        27        28        29   
                  -0.69639  -0.67811  -0.67195  -0.64799  -0.61962  -0.57708
                   2.00000   2.00000   2.00000   2.00000   2.00000   2.00000
                  --------  --------  --------  --------  --------  --------
 0 C  s               5.3       0.0       0.0       6.1      18.2       2.6
 0 C  pz              0.3       0.0       0.0       0.0       0.4       0.2
 0 C  px              0.0       0.0       0.0       0.1       0.0       0.4
 0 C  py              0.3       0.0       0.0       0.0       0.2       0.3
 1 C  s               5.6       0.0       0.0       0.9       0.5       0.9
 1 C  pz              0.1       0.0       0.0       0.5      10.5       0.0
 1 C  px              1.2       0.0       0.0       3.5       0.0       4.3
 1 C  py              0.2       0.2       0.1       0.4       2.6       0.5
 1 C  dxz             0.0       0.0       0.0       0.0       0.1       0.0
 1 C  dyz             0.0       0.0       0.0       0.0       0.1       0.0
 2 H  s               1.2       0.0       0.0       0.2       0.4       0.3
 3 C  s               1.7       0.1       0.0       6.6       0.0       4.3
 3 C  pz              0.1       0.9       0.2       0.0       0.4       0.3
 3 C  px              4.2       0.1       0.0       0.6       0.5       1.7
 3 C  py              0.1       7.6       1.7       0.0       0.1       1.0
 3 C  dxy             0.0       0.2       0.0       0.0       0.0       0.0
 4 C  s               2.0      13.5       2.8       2.2       0.2       0.1
 4 C  px              0.1       1.3       0.2       2.7       0.0       6.2
 4 C  py              0.4       0.3       0.0       0.5       0.0       1.0
 5 C  s               0.1      11.4       1.8       2.4       0.0       4.0
 5 C  pz              0.1       0.1       0.1       0.2       0.0       0.2
 5 C  px              2.4       1.9       0.6       1.3       0.1       0.4
 5 C  py              0.2       0.7       0.1       0.9       0.1       1.4
 5 C  dx2y2           0.0       0.1       0.0       0.1       0.0       0.0
 6 C  s               4.6       0.1       0.0       5.1       0.3       3.2
 6 C  pz              0.0       0.6       0.2       0.0       0.0       0.3
 6 C  px              3.7       0.0       0.0       3.3       0.0       1.6
 6 C  py              0.0       6.5       0.3       0.0       0.0       2.5
 6 C  dxy             0.0       0.2       0.1       0.0       0.0       0.0
 7 C  s               0.4       8.9       1.5       2.5       0.1       0.1
 7 C  pz              0.0       0.1       0.0       0.1       0.0       0.0
 7 C  px              4.6       2.4       0.9       1.4       0.2       7.6
 7 C  py              0.2       0.2       0.0       1.4       0.1       1.2
 7 C  dx2y2           0.0       0.2       0.0       0.0       0.0       0.0
 8 C  s               5.2      10.7       2.4       1.6       0.1       2.5
 8 C  pz              0.0       0.1       0.0       0.1       0.0       0.3
 8 C  px              0.1       1.3       0.2       2.0       0.0       1.3
 8 C  py              0.2       0.3       0.1       0.7       0.0       1.9
 9 F  s               0.0       2.3       0.3       0.4       0.0       0.0
 9 F  pz              0.0       0.3       0.0       0.1       0.0       0.0
 9 F  px              0.2       0.5       0.2       0.0       0.0       1.1
 9 F  py              0.0       1.5       0.2       0.7       0.0       0.1
10 C  s               8.9       0.3       0.0       4.7       0.0       0.6
10 C  pz              0.0       0.2       1.6       0.0       0.0       0.1
10 C  px              1.2       0.0       0.0       3.3       0.2       4.2
10 C  py              0.0       2.1       6.2       0.0       0.0       0.5
10 C  dxy             0.0       0.0       0.2       0.0       0.0       0.0
11 C  s               0.8       1.7      12.6       3.4       0.1       2.0
11 C  pz              0.3       0.0       0.2       0.2       0.0       0.0
11 C  px              3.3       0.4       1.4       0.9       0.0       0.1
11 C  py              0.5       0.2       0.2       0.5       0.0       0.2
12 C  s               3.5       2.7      11.4       1.2       0.0       0.1
12 C  pz              0.1       0.0       0.0       0.0       0.0       0.0
12 C  px              1.3       0.1       1.9       3.6       0.1       3.1
12 C  py              0.9       0.0       0.4       0.8       0.0       0.5
12 C  dx2y2           0.0       0.0       0.1       0.1       0.0       0.0
13 C  s               9.1       0.2       0.0       8.8       0.2       3.3
13 C  pz              0.0       0.2       1.5       0.0       0.0       0.1
13 C  px              0.2       0.0       0.0       0.1       0.0       0.6
13 C  py              0.0       1.0       6.4       0.0       0.0       0.3
13 C  dxy             0.0       0.0       0.2       0.0       0.0       0.0
14 C  s               3.7       1.3      12.7       1.3       0.0       0.5
14 C  pz              0.3       0.1       0.1       0.4       0.0       0.3
14 C  px              1.1       0.6       1.4       3.4       0.1       1.7
14 C  py              0.7       0.1       0.2       0.6       0.0       0.6
15 C  s               0.6       3.0      11.6       3.3       0.1       0.9
15 C  px              3.4       0.0       1.8       1.0       0.0       1.7
15 C  py              0.7       0.0       0.4       0.6       0.0       0.1
15 C  dx2y2           0.0       0.0       0.1       0.0       0.0       0.0
16 C  s               0.9       0.0       0.0       0.3       6.4       1.2
16 C  pz              2.1       0.0       0.0       0.7       1.0       0.1
16 C  px              0.2       0.0       0.0       0.0       0.7       0.2
16 C  py              0.5       0.0       0.0       0.2       4.9       1.4
17 O  s               0.3       0.0       0.0       0.1       0.8       0.3
17 O  py              0.0       0.0       0.0       0.0       0.4       0.2
[...]
15 C  dxz             0.0       0.0       0.1       0.9       0.0       0.0
15 C  dyz             0.0       0.0       0.0       0.1       0.1       0.0
15 C  dx2y2           0.0       0.1       0.7       2.2       0.4       0.0
15 C  dxy             0.0       0.0       2.2       6.2       0.1       0.0
16 C  s               2.4       1.5       0.0       0.0       0.0       0.1
16 C  pz              1.1       0.7       0.0       0.0       0.0       0.2
16 C  px              0.2       0.1       0.0       0.0       0.0       0.0
16 C  py              0.6       0.3       0.0       0.0       0.0       3.7
16 C  dz2             4.3       2.6       0.1       0.0       0.0       2.3
16 C  dxz             1.8       1.0       0.1       0.0       0.0       0.7
16 C  dyz             0.1       0.0       0.0       0.0       0.1      13.3
16 C  dx2y2           0.5       0.3       0.0       0.0       0.0       3.1
16 C  dxy             0.1       0.0       0.0       0.0       0.0       2.1
17 O  s               0.4       0.2       0.0       0.0       0.0       1.2
17 O  pz              0.2       0.1       0.0       0.0       0.0       0.2
17 O  py              0.2       0.1       0.0       0.0       0.0       1.1
17 O  dz2             3.3       2.2       0.0       0.0       0.1      11.3
17 O  dxz             0.1       0.0       0.0       0.0       0.0       1.3
17 O  dyz             4.0       2.6       0.0       0.0       0.0       2.4
17 O  dx2y2           6.6       4.0       0.1       0.0       0.1      15.8
17 O  dxy             0.2       0.1       0.0       0.0       0.0       0.2
18 O  s               1.4       0.9       0.0       0.0       0.0       2.0
18 O  pz              0.4       0.2       0.0       0.0       0.0       1.7
18 O  px              0.0       0.0       0.0       0.0       0.0       0.2
18 O  py              0.8       0.5       0.0       0.0       0.0       1.2
18 O  dz2             7.3       4.0       0.1       0.0       0.0       0.0
18 O  dxz             0.1       0.1       0.0       0.0       0.0       0.8
18 O  dyz             6.4       3.8       0.0       0.0       0.1      23.6
18 O  dx2y2          17.4      10.2       0.1       0.0       0.0       4.3
18 O  dxy             0.5       0.2       0.0       0.0       0.0       3.4
22 H  s               0.0       0.0       0.4       0.1       0.0       0.0
23 H  s               0.0       0.0       0.3       0.1       0.0       0.0
24 H  s               0.0       0.0       0.3       0.1       0.0       0.0
25 H  s               0.0       0.0       0.1       0.4       0.0       0.0
26 H  s               0.0       0.0       0.2       0.4       0.0       0.0
27 H  s               0.0       0.0       0.2       0.3       0.0       0.0
28 H  s               0.0       0.0       0.2       0.4       0.0       0.0
29 H  s               0.0       0.0       0.1       0.4       0.0       0.0
30 H  s               0.5       0.3       0.0       0.0       0.0       0.2

                    276       277   
                   3.53449   3.74183
                   0.00000   0.00000
                  --------  --------
 1 C  pz              0.2       0.0
 1 C  dyz             0.4       0.0
 3 C  dx2y2           0.0       0.8
 4 C  dx2y2           0.0       0.2
 4 C  dxy             0.0       0.3
 5 C  dx2y2           0.0       0.2
 5 C  dxy             0.0       0.5
 6 C  py              0.0       0.1
 6 C  dyz             0.0       0.2
 6 C  dx2y2           0.0       2.4
 7 C  s               0.0       1.3
 7 C  pz              0.0       0.4
 7 C  px              0.0       0.5
 7 C  py              0.0       2.1
 7 C  dz2             0.0       0.2
 7 C  dxz             0.0       0.6
 7 C  dyz             0.0       2.4
 7 C  dx2y2           0.0       4.6
 7 C  dxy             0.0       5.2
 8 C  s               0.0       0.1
 8 C  dxz             0.0       0.3
 8 C  dx2y2           0.0       0.4
 8 C  dxy             0.0       1.5
 9 F  s               0.0       5.3
 9 F  pz              0.0       0.4
 9 F  px              0.0       0.6
 9 F  py              0.0       2.2
 9 F  dz2             0.0       5.0
 9 F  dxz             0.0       4.4
 9 F  dyz             0.0      17.1
 9 F  dx2y2           0.0      15.2
 9 F  dxy             0.0      23.5
10 C  dx2y2           0.0       0.3
10 C  dxy             0.0       0.1
16 C  s               7.3       0.0
16 C  pz              1.0       0.0
16 C  px              0.3       0.0
16 C  py              3.8       0.0
16 C  dz2             3.3       0.0
16 C  dyz             0.1       0.0
16 C  dx2y2           7.0       0.0
16 C  dxy             0.2       0.0
17 O  s               4.8       0.0
17 O  pz              0.8       0.0
17 O  px              0.2       0.0
17 O  py              2.6       0.0
17 O  dz2             2.7       0.0
17 O  dxz             1.6       0.0
17 O  dyz            27.2       0.0
17 O  dx2y2          20.0       0.0
17 O  dxy             7.7       0.0
18 O  s               0.2       0.0
18 O  pz              0.3       0.0
18 O  dz2             2.3       0.0
18 O  dxz             1.3       0.0
18 O  dyz             3.3       0.0
18 O  dx2y2           0.1       0.0
18 O  dxy             0.7       0.0
24 H  s               0.0       0.1


                      *****************************
                      * MAYER POPULATION ANALYSIS *
                      *****************************

  NA   - Mulliken gross atomic population
  ZA   - Total nuclear charge
  QA   - Mulliken gross atomic charge
  VA   - Mayer's total valence
  BVA  - Mayer's bonded valence
  FA   - Mayer's free valence

  ATOM       NA         ZA         QA         VA         BVA        FA
  0 C      6.2219     6.0000    -0.2219     3.9565     3.9565    -0.0000
  1 C      6.1171     6.0000    -0.1171     3.8973     3.8973     0.0000
  2 H      0.9231     1.0000     0.0769     0.9708     0.9708    -0.0000
  3 C      5.8979     6.0000     0.1021     3.8858     3.8858     0.0000
  4 C      6.1021     6.0000    -0.1021     3.8034     3.8034    -0.0000
  5 C      6.1191     6.0000    -0.1191     3.8300     3.8300     0.0000
  6 C      5.9699     6.0000     0.0301     3.7430     3.7430     0.0000
  7 C      5.7266     6.0000     0.2734     3.9085     3.9085    -0.0000
  8 C      6.2306     6.0000    -0.2306     3.7330     3.7330     0.0000
  9 F      9.1709     9.0000    -0.1709     1.2263     1.2263     0.0000
 10 C      5.8875     6.0000     0.1125     3.8534     3.8534     0.0000
 11 C      6.1111     6.0000    -0.1111     3.8373     3.8373    -0.0000
 12 C      6.0493     6.0000    -0.0493     3.8304     3.8304     0.0000
 13 C      6.0455     6.0000    -0.0455     3.8160     3.8160     0.0000
 14 C      6.0523     6.0000    -0.0523     3.8339     3.8339     0.0000
 15 C      6.0960     6.0000    -0.0960     3.8402     3.8402     0.0000
 16 C      5.8888     6.0000     0.1112     4.3927     4.3927     0.0000
 17 O      8.1887     8.0000    -0.1887     2.2885     2.2885     0.0000
 18 O      8.2797     8.0000    -0.2797     2.2182     2.2182     0.0000
 19 H      0.8921     1.0000     0.1079     0.9528     0.9528    -0.0000
 20 H      0.8754     1.0000     0.1246     0.9762     0.9762    -0.0000
 21 H      0.8896     1.0000     0.1104     0.9563     0.9563    -0.0000
 22 H      0.9605     1.0000     0.0395     0.9619     0.9619    -0.0000
 23 H      0.9501     1.0000     0.0499     0.9623     0.9623     0.0000
 24 H      0.9322     1.0000     0.0678     0.9979     0.9979     0.0000
 25 H      0.9520     1.0000     0.0480     0.9595     0.9595     0.0000
 26 H      0.9471     1.0000     0.0529     0.9495     0.9495     0.0000
 27 H      0.9453     1.0000     0.0547     0.9492     0.9492     0.0000
 28 H      0.9456     1.0000     0.0544     0.9495     0.9495    -0.0000
 29 H      0.9493     1.0000     0.0507     0.9672     0.9672    -0.0000
 30 H      0.6828     1.0000     0.3172     0.9023     0.9023     0.0000

  Mayer bond orders larger than 0.100000
B(  0-C ,  1-C ) :   1.1023 B(  0-C , 19-H ) :   0.9494 B(  0-C , 20-H ) :   0.9364 
B(  0-C , 21-H ) :   0.9486 B(  1-C ,  2-H ) :   0.8708 B(  1-C ,  3-C ) :   1.0132 
B(  1-C , 16-C ) :   0.9245 B(  3-C ,  4-C ) :   1.3839 B(  3-C ,  8-C ) :   1.3078 
B(  4-C ,  5-C ) :   1.3456 B(  4-C , 22-H ) :   0.9647 B(  5-C ,  6-C ) :   1.3678 
B(  5-C , 23-H ) :   0.9571 B(  6-C ,  7-C ) :   1.3303 B(  6-C , 10-C ) :   0.9728 
B(  7-C ,  8-C ) :   1.3271 B(  7-C ,  9-F ) :   1.1071 B(  8-C , 24-H ) :   0.9535 
B( 10-C , 11-C ) :   1.3793 B( 10-C , 15-C ) :   1.3785 B( 11-C , 12-C ) :   1.3716 
B( 11-C , 25-H ) :   0.9585 B( 12-C , 13-C ) :   1.3768 B( 12-C , 26-H ) :   0.9636 
B( 13-C , 14-C ) :   1.3740 B( 13-C , 27-H ) :   0.9655 B( 14-C , 15-C ) :   1.3755 
B( 14-C , 28-H ) :   0.9631 B( 15-C , 29-H ) :   0.9606 B( 16-C , 17-O ) :   2.0712 
B( 16-C , 18-O ) :   1.3120 B( 18-O , 30-H ) :   0.8187 

-------
TIMINGS
-------

Total SCF time: 0 days 0 hours 0 min 14 sec 

Total time                  ....      14.066 sec
Sum of individual times     ....      14.022 sec  ( 99.7%)

SCF preparation             ....       0.680 sec  (  4.8%)
Fock matrix formation       ....      11.475 sec  ( 81.6%)
  Startup                   ....       0.012 sec  (  0.1% of F)
  Split-RI-J                ....       6.798 sec  ( 59.2% of F)
  XC integration            ....       4.523 sec  ( 39.4% of F)
    Basis function eval.    ....       1.814 sec  ( 40.1% of XC)
    Density eval.           ....       1.141 sec  ( 25.2% of XC)
    XC-Functional eval.     ....       0.253 sec  (  5.6% of XC)
    XC-Potential eval.      ....       1.059 sec  ( 23.4% of XC)
Diagonalization             ....       0.000 sec  (  0.0%)
Density matrix formation    ....       0.055 sec  (  0.4%)
Total Energy calculation    ....       0.003 sec  (  0.0%)
Population analysis         ....       1.515 sec  ( 10.8%)
Orbital Transformation      ....       0.039 sec  (  0.3%)
Orbital Orthonormalization  ....       0.000 sec  (  0.0%)
DIIS solution               ....       0.208 sec  (  1.5%)
  MO trafo                  ....       0.000 sec  (  0.0 % of DIIS)
  Orb grad                  ....       0.000 sec  (  0.0 % of DIIS)
  Energy W gradient         ....       0.000 sec  (  0.0 % of DIIS)
  DIIS error                ....       0.020 sec  (  9.5 % of DIIS)
  DIIS work                 ....       0.167 sec  ( 80.2 % of DIIS)
  Form Q                    ....       0.000 sec  (  0.0 % of DIIS)
  Form QpQm                 ....       0.000 sec  (  0.0 % of DIIS)
  Exp/Cayley                ....       0.000 sec  (  0.0 % of DIIS)
  Orb update                ....       0.000 sec  (  0.0 % of DIIS)
  Wake-sleep                ....       0.002 sec  (  0.8 % of DIIS)
SOSCF solution              ....       0.046 sec  (  0.3%)
  MO trafo                  ....       0.030 sec  ( 64.6 % of SOSCF)
  Orb grad                  ....       0.000 sec  (  0.6 % of SOSCF)
  Rot update                ....       0.002 sec  (  5.1 % of SOSCF)
  Step                      ....       0.013 sec  ( 29.5 % of SOSCF)
Finished LeanSCF after  16.0 sec

Maximum memory used throughout the entire LEANSCF-calculation: 27.0 MB


-------------------------------------------------------------------------------
                          DFT DISPERSION CORRECTION                            
                                                                               
                                DFTD4 V3.4.0                                   
-------------------------------------------------------------------------------
The PBE functional is recognized
Active option DFTDOPT                   ...         5   

-------------------------   ----------------
Dispersion correction           -0.040039490
-------------------------   ----------------

------------------   -----------------
gCP correction             0.129997553
------------------   -----------------

-------------------------   --------------------
FINAL SINGLE POINT ENERGY      -828.019275763250
-------------------------   --------------------


------------------------------------------------------------------------------
                              ORCA PROPERTY CALCULATIONS
------------------------------------------------------------------------------

GBWName                                 ... sp.gbw
Number of atoms                         ...     31
Number of basis functions               ...    278
Max core memory                         ...   1024 MB

Electric properties:
Dipole moment                           ... YES
Quadrupole moment                       ...  NO
Static polarizability (Dipole/Dipole)   ...  NO
Static polarizability (Dipole/Quad.)    ...  NO
Static polarizability (Quad./Quad.)     ...  NO
Static polarizability (Velocity)        ...  NO

Atomic electric properties:
Dipole moment                           ...  NO
Quadrupole moment                       ...  NO
Static polarizability                   ...  NO

Choice of electric origin               ... Center of mass
Position of electric origin             ...     0.000023    -0.000009    -0.000014

General magnetic properties:
Magnetizability                         ...  NO

EPR properties:
g-Tensor (aka g-matrix)                 ...  NO
Zero-Field splitting spin-orbit         ...  NO
Zero-field splitting spin-spin          ...  NO
Hyperfine couplings                     ...  NO (   0 nuclei)
Quadrupole couplings                    ...  NO (   0 nuclei)
Contact density                         ...  NO (   0 nuclei)

NMR properties:
Chemical shifts                         ...  NO (   0 nuclei)
Spin-rotation constants                 ...  NO (   0 nuclei)
Spin-spin couplings                     ...  NO (   0 nuclei,    0 pairs)

Choice of magnetic origin               ... GIAO
Position of magnetic origin             ...     0.000000     0.000000     0.000000

Properties with geometric perturbations:
SCF Hessian                             ...  NO
IR spectrum                             ...  NO
VCD spectrum                            ...  NO
X-ray spectroscopy properties:
SCF XES/XAS/RIXS spectra                ...  NO


-------------
DIPOLE MOMENT
-------------

Method             : SCF
Type of density    : Electron Density
Multiplicity       :   1
Irrep              :   0
Energy             :  -828.1092338265007129 Eh
Relativity type    : 
Basis              : AO
                                X                 Y                 Z
Electronic contribution:      0.730819822       4.356240482       6.111486195
Nuclear contribution   :     -0.889043554      -5.300411724      -6.259227477
                        -----------------------------------------
Total Dipole Moment    :     -0.158223732      -0.944171241      -0.147741283
                        -----------------------------------------
Magnitude (a.u.)       :      0.968670000
Magnitude (Debye)      :      2.462163469



--------------------
Rotational spectrum 
--------------------
 
Rotational constants in cm-1:             0.038426             0.006430             0.006150 
Rotational constants in MHz :          1151.973890           192.774075           184.366187 

Dipole components along the rotational axes: 
x,y,z [a.u.] :     0.158224    -0.944170    -0.147748 
x,y,z [Debye]:     0.402173    -2.399890    -0.375546 

 

Dipole moment calculation done in   0.8 sec 

Maximum memory used throughout the entire PROP-calculation: 18.8 MB

--------------------------------
SUGGESTED CITATIONS FOR THIS RUN
--------------------------------

Below you find a list of papers that are relevant to this ORCA run
We neither can nor want to force you to cite these papers, but we appreciate if you do
You receive ORCA, which is the product of decades of hard work by many enthusiastic individuals, for free
The only thing we kindly ask in return is that you cite our papers,
We deeply appreciate it, if you show your appreciation for ORCA by not just citing the generic ORCA reference.

Please note that relegating all ORCA citations to the supporting information does *not* help us.
SI sections are not indexed - citations you put there will not count into any citation statistics
But we need these citations in order to attract the funding resources that allow us to do what we are doing

Therefore, if you are a happy ORCA user, please consider citing a few of the papers listed below in the main body of your paper

In addition to the list printed below, the program has created the file sp.bibtex that contains the list in bibtex format
You can import this file easily into all common literature databanks and citation aid programs


List of essential papers. We consider these as the minimum necessary citations

  1. Neese,F.
     Software update: the ORCA program system, version 5.0
     WIRES Comput. Molec. Sci., 2022 12(1)e1606
     doi.org/10.1002/wcms.1606

List of papers to cite with high priority. The work reported in these papers was absolutely
necessary for this run to complete.
Our perspective: the developers of density functionals and basis sets usually get cited in chemistry papers
Good! But without the algorithms to do something with them, the functionals or basis sets would not do anything.
Hence, in our opinion, the algorithm design and method developments papers are equally worthy of getting cited

  1. Neese,F.
     An improvement of the resolution of the identity approximation for the formation of the Coulomb matrix
     J. Comp. Chem., 2003 24(14)1740-1747
     doi.org/10.1002/jcc.10318
  2. Neese,F.
     The SHARK Integral Generation and Digestion System
     J. Comp. Chem., 2022  1-16
     doi.org/10.1002/jcc.26942
  3. Caldeweyher,E.; Bannwarth,C.; Grimme,S.
     Extension of the D3 dispersion coefficient model
     J. Chem. Phys., 2017 147 034112
     doi.org/10.1063/1.4993215
  4. Caldeweyher,E.; Ehlert,S.; Hansen,A.; Neugebauer,H.; Spicher,S.; Bannwarth,C.; Grimme,S.
     A generally applicable atomic-charge dependent London dispersion correction
     J. Chem. Phys., 2019 150 154122
     doi.org/10.1063/1.5090222
  5. Caldeweyher,E.; Mewes,J.; Ehlert,S.; Grimme,S.
     Extension and evaluation of the D4 London-dispersion model for periodic systems
     Phys. Chem. Chem. Phys., 2020 22(16)8499-8512
     doi.org/10.1039/D0CP00502A
  6. Wittmann,L.; Gordiy,I.; Friede,M.; Helmich-Paris,B.; Grimme,S.; Hansen,A.; Bursch,M.
     Extension of the D3 and D4 London Dispersion Corrections to the full Actinides Series
     Phys. Chem. Chem. Phys., 2024 26(32)21379-21394
     doi.org/https://doi.org/10.1039/D4CP01514B 

List of suggested additional citations. These are papers that are important in the 'surrounding' of 
of this run, or papers that preceded the highly important papers. If you like your results we are grateful for a citation.

  1. Neese,F.
     The ORCA program system
     WIRES Comput. Molec. Sci., 2012 2(1)73-78
     doi.org/10.1002/wcms.81
  2. Neese,F.
     Software update: the ORCA program system, version 4.0
     WIRES Comput. Molec. Sci., 2018 8(1)1-6
     doi.org/10.1002/wcms.1327
  3. Neese,F.; Wennmohs,F.; Becker,U.; Riplinger,C.
     The ORCA quantum chemistry program package
     J. Chem. Phys., 2020 152 Art. No. L224108
     doi.org/10.1063/5.0004608

List of optional additional citations

  1. Neese,F.
     Approximate second-order SCF convergence for spin unrestricted wavefunctions
     Chem. Phys. Lett., 2000 325(1-3)93-98
     doi.org/10.1016/s0009-2614(00)00662-x

Timings for individual modules:

Sum of individual times          ...       39.803 sec (=   0.663 min)
Startup calculation              ...       21.672 sec (=   0.361 min)  54.4 %
SCF iterations                   ...       17.279 sec (=   0.288 min)  43.4 %
Property calculations            ...        0.852 sec (=   0.014 min)   2.1 %
                             ****ORCA TERMINATED NORMALLY****
TOTAL RUN TIME: 0 days 0 hours 0 minutes 42 seconds 126 msec
