 Entering Gaussian System
 *********************************************
 Gaussian 98:
 frequency output generated by the xtb code
 *********************************************
                         Standard orientation:
 --------------------------------------------------------------------
  Center     Atomic     Atomic              Coordinates (Angstroms)
  Number     Number      Type              X           Y           Z
 --------------------------------------------------------------------
    1          6             0       -3.781649    0.939867   -1.638298
    2          6             0       -3.307096   -0.102842   -0.624893
    3          1             0       -3.582012   -1.108178   -0.951524
    4          6             0       -1.808404   -0.040292   -0.430322
    5          6             0       -1.203171    1.097420    0.091907
    6          6             0        0.166822    1.157848    0.251696
    7          6             0        0.989797    0.086491   -0.095354
    8          6             0        0.356204   -1.039024   -0.610490
    9          6             0       -1.011116   -1.120126   -0.781605
   10          9             0        1.100122   -2.117317   -0.997392
   11          6             0        2.448784    0.164359    0.079413
   12          6             0        3.162707   -0.890607    0.641362
   13          6             0        4.532336   -0.796874    0.809030
   14          6             0        5.206711    0.346812    0.415543
   15          6             0        4.503975    1.400822   -0.145216
   16          6             0        3.134298    1.313148   -0.309748
   17          6             0       -3.937782    0.129738    0.734588
   18          8             0       -4.174460    1.215457    1.214273
   19          8             0       -4.173860   -1.005161    1.369878
   20          1             0       -3.632399    1.940742   -1.243207
   21          1             0       -3.222680    0.835066   -2.563399
   22          1             0       -4.840067    0.805980   -1.845009
   23          1             0       -1.814504    1.935820    0.388331
   24          1             0        0.619228    2.042773    0.670878
   25          1             0       -1.434655   -2.022604   -1.192852
   26          1             0        2.642646   -1.782139    0.958889
   27          1             0        5.073906   -1.620515    1.249256
   28          1             0        6.276042    0.415995    0.544704
   29          1             0        5.025388    2.293244   -0.456827
   30          1             0        2.590026    2.129136   -0.760950
   31          1             0       -4.546963   -0.873251    2.263751
 --------------------------------------------------------------------
     1 basis functions        1 primitive gaussians
     1 alpha electrons        1 beta electrons
 
 Harmonic frequencies (cm**-1), IR intensities (km*mol⁻¹),
 Raman scattering activities (A**4/amu), Raman depolarization ratios,
 reduced masses (AMU), force constants (mDyne/A) and normal coordinates:
                      1                      2                      3
                        a                      a                      a 
 Frequencies --    25.2307                32.0726                43.7089
 Red. masses --    12.3064                13.9984                13.3160
 Frc consts  --     0.0000                 0.0000                 0.0000
 IR Inten    --     1.5730                 4.0727                 3.6268
 Raman Activ --     0.0000                 0.0000                 0.0000
 Depolar     --     0.0000                 0.0000                 0.0000
 Atom AN      X      Y      Z        X      Y      Z        X      Y      Z
   1   6    -0.10   0.28   0.13    -0.13  -0.06  -0.00     0.16   0.22  -0.04
   2   6    -0.01   0.12  -0.08    -0.04  -0.01  -0.00     0.02   0.11  -0.09
   3   1    -0.00   0.05  -0.07    -0.01  -0.01   0.02     0.01   0.04  -0.06
   4   6    -0.01   0.11  -0.11    -0.03   0.01  -0.09     0.00   0.04   0.06
   5   6     0.02   0.15  -0.22    -0.02   0.02  -0.11     0.00  -0.00   0.15
   6   6     0.02   0.12  -0.20    -0.02   0.03  -0.11    -0.00  -0.03   0.20
   7   6    -0.01   0.05  -0.06    -0.03   0.02  -0.10    -0.01  -0.03   0.18
   8   6    -0.04   0.02   0.06    -0.02   0.03  -0.12    -0.01  -0.02   0.17
   9   6    -0.04   0.04   0.03    -0.02   0.02  -0.11    -0.01   0.02   0.10
  10   9    -0.08  -0.07   0.27    -0.03   0.05  -0.17    -0.03  -0.04   0.24
  11   6    -0.01   0.02  -0.02    -0.03  -0.01  -0.02     0.00  -0.02   0.09
  12   6    -0.08   0.07   0.16    -0.09  -0.03   0.01     0.08  -0.02  -0.00
  13   6    -0.08   0.04   0.20    -0.10  -0.06   0.11     0.10  -0.02  -0.18
  14   6    -0.02  -0.05   0.04    -0.06  -0.06   0.19     0.05  -0.02  -0.27
  15   6     0.05  -0.11  -0.15     0.00  -0.04   0.15    -0.03  -0.01  -0.16
  16   6     0.05  -0.07  -0.18     0.01  -0.01   0.05    -0.05  -0.01   0.02
  17   6     0.07  -0.14   0.00     0.09   0.02   0.05    -0.09  -0.02  -0.13
  18   8     0.12  -0.26   0.25    -0.24   0.02  -0.12    -0.52  -0.08  -0.22
  19   8     0.15  -0.29  -0.21     0.69   0.05   0.34     0.31  -0.07  -0.08
  20   1    -0.06   0.06   0.09    -0.03  -0.01  -0.02     0.04   0.05   0.02
  21   1    -0.03   0.15   0.03    -0.06  -0.03  -0.01     0.07   0.09   0.00
  22   1    -0.03   0.06   0.03    -0.04  -0.02   0.03     0.05   0.08  -0.05
  23   1     0.01   0.06  -0.09    -0.01   0.01  -0.03     0.00   0.00   0.04
  24   1     0.01   0.05  -0.08    -0.01   0.01  -0.03    -0.00  -0.01   0.07
  25   1    -0.02   0.00   0.04    -0.01   0.01  -0.03    -0.00   0.01   0.02
  26   1    -0.04   0.04   0.08    -0.04  -0.01  -0.01     0.03  -0.01   0.02
  27   1    -0.04   0.02   0.10    -0.04  -0.02   0.04     0.05  -0.01  -0.08
  28   1    -0.01  -0.02   0.02    -0.02  -0.02   0.08     0.02  -0.01  -0.12
  29   1     0.03  -0.05  -0.08     0.01  -0.01   0.06    -0.02  -0.00  -0.06
  30   1     0.03  -0.03  -0.09     0.02   0.00   0.01    -0.03  -0.00   0.03
  31   1     0.06  -0.12  -0.04     0.21   0.02   0.10     0.06  -0.04  -0.02
                      4                      5                      6
                        a                      a                      a 
 Frequencies --    60.1331                78.9535                98.7333
 Red. masses --    12.0043                11.1532                12.4487
 Frc consts  --     0.0000                 0.0000                 0.0000
 IR Inten    --     0.5345                 0.2874                 0.7080
 Raman Activ --     0.0000                 0.0000                 0.0000
 Depolar     --     0.0000                 0.0000                 0.0000
 Atom AN      X      Y      Z        X      Y      Z        X      Y      Z
   1   6    -0.04   0.10  -0.00    -0.15  -0.26  -0.07    -0.11  -0.03  -0.13
   2   6    -0.02   0.05  -0.06     0.00  -0.10   0.02    -0.03  -0.01  -0.16
   3   1    -0.02   0.02  -0.02     0.03  -0.05   0.03    -0.02  -0.01  -0.03
   4   6    -0.02   0.01  -0.08    -0.00   0.07  -0.01    -0.03  -0.01  -0.15
   5   6     0.03   0.04  -0.20    -0.05   0.15  -0.12    -0.11  -0.05   0.03
   6   6     0.02  -0.01  -0.17    -0.05   0.22  -0.09    -0.14  -0.07   0.23
   7   6     0.00  -0.08  -0.04     0.00   0.22   0.05    -0.10  -0.04   0.23
   8   6    -0.05  -0.12   0.09     0.05   0.17   0.10    -0.03   0.01   0.03
   9   6    -0.06  -0.07   0.08     0.06   0.09   0.08    -0.00   0.02  -0.16
  10   9    -0.16  -0.28   0.30     0.11   0.22   0.20     0.06   0.08   0.05
  11   6    -0.01  -0.04  -0.04     0.00   0.14   0.09    -0.11  -0.01   0.23
  12   6     0.10  -0.12  -0.30    -0.09  -0.01  -0.08    -0.04   0.01   0.18
  13   6     0.09  -0.03  -0.27    -0.06  -0.25  -0.22    -0.01   0.00  -0.05
  14   6    -0.01   0.14   0.05     0.07  -0.31  -0.17    -0.07  -0.03  -0.22
  15   6    -0.11   0.22   0.31     0.16  -0.12   0.07    -0.15  -0.02  -0.12
  16   6    -0.10   0.12   0.26     0.13   0.10   0.20    -0.17  -0.01   0.12
  17   6     0.07   0.03  -0.01    -0.03  -0.08  -0.00     0.20   0.03  -0.06
  18   8     0.18   0.03   0.05    -0.05  -0.08  -0.03     0.54   0.06   0.02
  19   8     0.09   0.02  -0.03    -0.08  -0.08   0.00     0.23   0.05  -0.04
  20   1    -0.01   0.02   0.01    -0.08  -0.06  -0.05    -0.01  -0.01  -0.06
  21   1    -0.02   0.04  -0.00    -0.04  -0.08  -0.02    -0.06  -0.03  -0.06
  22   1    -0.01   0.03   0.00    -0.04  -0.12  -0.01    -0.04   0.00  -0.00
  23   1     0.02   0.03  -0.08    -0.03   0.05  -0.06    -0.04  -0.03   0.01
  24   1     0.01   0.00  -0.07    -0.03   0.08  -0.05    -0.05  -0.03   0.11
  25   1    -0.03  -0.03   0.06     0.03   0.01   0.04     0.01   0.02  -0.08
  26   1     0.06  -0.07  -0.15    -0.05   0.01  -0.03    -0.00   0.01   0.08
  27   1     0.05  -0.03  -0.14    -0.04  -0.11  -0.11     0.02   0.00  -0.03
  28   1    -0.01   0.06   0.03     0.03  -0.14  -0.09    -0.01  -0.01  -0.12
  29   1    -0.06   0.10   0.16     0.07  -0.04   0.04    -0.05  -0.01  -0.07
  30   1    -0.04   0.05   0.12     0.06   0.07   0.10    -0.07  -0.01   0.05
  31   1     0.04   0.00   0.00    -0.03  -0.02  -0.00     0.12   0.02   0.02
                      7                      8                      9
                        a                      a                      a 
 Frequencies --   158.0552               171.2260               187.4714
 Red. masses --     7.6345                 4.3954                11.3076
 Frc consts  --     0.0000                 0.0000                 0.0000
 IR Inten    --     0.1291                 0.3845                 2.3748
 Raman Activ --     0.0000                 0.0000                 0.0000
 Depolar     --     0.0000                 0.0000                 0.0000
 Atom AN      X      Y      Z        X      Y      Z        X      Y      Z
   1   6     0.39   0.12  -0.02    -0.27  -0.08   0.04     0.01  -0.28  -0.33
   2   6     0.00  -0.06  -0.02    -0.01  -0.00   0.01     0.02   0.04  -0.03
   3   1    -0.02  -0.00  -0.03     0.03  -0.02   0.02     0.06  -0.02   0.03
   4   6    -0.03  -0.17   0.14     0.01   0.11  -0.07    -0.01   0.19   0.14
   5   6    -0.10  -0.09   0.04     0.07   0.08  -0.08     0.03   0.10   0.31
   6   6    -0.11   0.04  -0.05     0.07  -0.03   0.01     0.05   0.02   0.21
   7   6    -0.08   0.08  -0.07     0.04  -0.08   0.08     0.00   0.05  -0.02
   8   6    -0.00  -0.02   0.05    -0.01   0.00  -0.03    -0.09   0.07   0.05
   9   6    -0.01  -0.17   0.18    -0.01   0.10  -0.09    -0.08   0.18   0.09
  10   9     0.12   0.10  -0.03    -0.09  -0.04  -0.09    -0.33  -0.05   0.08
  11   6    -0.09   0.10  -0.10     0.05  -0.10   0.11     0.03  -0.01  -0.18
  12   6    -0.19   0.05  -0.09     0.14  -0.05   0.10    -0.01  -0.04  -0.19
  13   6    -0.20  -0.05  -0.04     0.15   0.04   0.03    -0.04  -0.00   0.01
  14   6    -0.12  -0.08   0.02     0.08   0.06  -0.04    -0.02   0.04   0.17
  15   6    -0.03  -0.01   0.03    -0.01   0.01  -0.03     0.04  -0.01  -0.00
  16   6    -0.03   0.08  -0.04    -0.01  -0.07   0.06     0.07  -0.03  -0.19
  17   6     0.04  -0.02  -0.02    -0.03   0.00   0.01     0.04   0.00  -0.04
  18   8     0.20   0.02  -0.02    -0.06   0.03  -0.06     0.13  -0.06   0.12
  19   8     0.09   0.02   0.06    -0.06   0.04   0.05     0.16  -0.09  -0.16
  20   1    -0.13   0.01   0.16    -0.52  -0.03   0.20    -0.07  -0.04  -0.16
  21   1     0.38   0.23   0.13     0.21   0.30   0.15     0.06  -0.12  -0.06
  22   1     0.19  -0.09  -0.31     0.02  -0.36  -0.29     0.02  -0.15  -0.15
  23   1    -0.05  -0.03  -0.00     0.03   0.04  -0.04     0.02   0.02   0.13
  24   1    -0.04   0.03  -0.04     0.03  -0.02   0.01     0.04  -0.01   0.08
  25   1     0.00  -0.06   0.08    -0.01   0.04  -0.04    -0.04   0.06   0.02
  26   1    -0.08   0.02  -0.03     0.06  -0.02   0.04    -0.01  -0.01  -0.08
  27   1    -0.08  -0.03  -0.01     0.06   0.02   0.01    -0.02   0.00   0.02
  28   1    -0.04  -0.04   0.02     0.02   0.03  -0.03    -0.02   0.03   0.12
  29   1     0.01  -0.01   0.03    -0.02   0.01  -0.02     0.02  -0.00   0.01
  30   1     0.01   0.04  -0.01    -0.02  -0.03   0.02     0.03  -0.01  -0.08
  31   1     0.06   0.02   0.03    -0.03   0.02   0.01     0.07  -0.06  -0.02
                     10                     11                     12
                        a                      a                      a 
 Frequencies --   209.0801               239.3801               253.0236
 Red. masses --    12.1723                11.4521                13.0317
 Frc consts  --     0.0000                 0.0000                 0.0000
 IR Inten    --     1.0827                 3.9798                 3.5708
 Raman Activ --     0.0000                 0.0000                 0.0000
 Depolar     --     0.0000                 0.0000                 0.0000
 Atom AN      X      Y      Z        X      Y      Z        X      Y      Z
   1   6    -0.19   0.11   0.18    -0.34   0.10   0.12    -0.07   0.07  -0.01
   2   6    -0.03  -0.05  -0.05    -0.04  -0.02  -0.14    -0.14  -0.05  -0.10
   3   1    -0.02  -0.01  -0.03    -0.00   0.00  -0.06    -0.05  -0.00  -0.05
   4   6    -0.01  -0.06  -0.13    -0.04  -0.04   0.04    -0.14  -0.10   0.05
   5   6    -0.08  -0.20   0.27    -0.03  -0.01  -0.03    -0.10  -0.12   0.07
   6   6    -0.06  -0.07   0.14    -0.05  -0.03   0.17    -0.09  -0.10  -0.01
   7   6     0.01   0.08  -0.12    -0.01   0.01   0.15     0.05   0.01  -0.08
   8   6     0.05   0.05  -0.11    -0.02  -0.02   0.24    -0.05  -0.02   0.02
   9   6     0.08   0.06  -0.35    -0.03  -0.16   0.40    -0.08  -0.07   0.16
  10   9     0.11  -0.13   0.46     0.16   0.26  -0.15    -0.43  -0.21  -0.22
  11   6     0.03   0.10  -0.17     0.04  -0.05  -0.10     0.09   0.21   0.02
  12   6    -0.05   0.05  -0.16     0.06  -0.09  -0.19     0.06   0.24   0.14
  13   6    -0.07  -0.02  -0.02     0.04  -0.03  -0.03     0.08   0.08   0.08
  14   6     0.02  -0.03   0.10     0.02   0.06   0.19     0.25  -0.09  -0.12
  15   6     0.11  -0.01   0.02     0.04  -0.03  -0.02     0.28   0.02   0.03
  16   6     0.12   0.06  -0.12     0.06  -0.10  -0.18     0.23   0.20   0.17
  17   6     0.01  -0.03  -0.04     0.02  -0.03  -0.13    -0.04  -0.04  -0.07
  18   8     0.03   0.04  -0.18     0.12   0.03  -0.25     0.12  -0.00  -0.11
  19   8    -0.06   0.06   0.08     0.03   0.03  -0.06     0.03  -0.00   0.02
  20   1    -0.10   0.01   0.13    -0.09   0.02   0.07     0.01   0.01   0.02
  21   1    -0.05   0.13   0.04    -0.18   0.09  -0.02    -0.03   0.03  -0.01
  22   1    -0.05  -0.01   0.05    -0.11   0.01   0.12    -0.03   0.05   0.01
  23   1    -0.04  -0.11   0.17    -0.01   0.02  -0.07    -0.02  -0.03   0.03
  24   1    -0.04  -0.03   0.08    -0.02   0.00   0.04    -0.04  -0.02  -0.01
  25   1     0.04   0.03  -0.15    -0.00  -0.07   0.15    -0.01  -0.04   0.06
  26   1    -0.03   0.02  -0.06     0.03  -0.04  -0.08    -0.00   0.09   0.05
  27   1    -0.04  -0.02   0.00     0.01  -0.01  -0.00    -0.01   0.01   0.03
  28   1     0.00  -0.02   0.07    -0.01   0.05   0.13     0.08  -0.08  -0.09
  29   1     0.05  -0.01   0.03     0.01  -0.01   0.00     0.10  -0.01   0.00
  30   1     0.06   0.03  -0.04     0.02  -0.04  -0.08     0.10   0.09   0.07
  31   1    -0.02   0.05   0.01     0.02   0.02  -0.01     0.06   0.02   0.02
                     13                     14                     15
                        a                      a                      a 
 Frequencies --   285.3896               299.9245               370.7344
 Red. masses --    12.4579                11.9151                 9.5813
 Frc consts  --     0.0000                 0.0000                 0.0000
 IR Inten    --     4.9696                 1.4310                 0.5036
 Raman Activ --     0.0000                 0.0000                 0.0000
 Depolar     --     0.0000                 0.0000                 0.0000
 Atom AN      X      Y      Z        X      Y      Z        X      Y      Z
   1   6     0.03  -0.02   0.25     0.26   0.05   0.04     0.06  -0.01   0.01
   2   6     0.25  -0.13   0.02    -0.11  -0.18  -0.03     0.05  -0.00   0.02
   3   1     0.13  -0.04  -0.03    -0.01  -0.04  -0.05     0.00  -0.00   0.02
   4   6     0.19   0.17   0.10    -0.12   0.03  -0.02     0.06   0.01  -0.17
   5   6     0.16   0.19   0.10    -0.12   0.08  -0.10     0.00   0.05  -0.21
   6   6     0.16   0.08   0.03    -0.11   0.13  -0.07    -0.05  -0.07   0.20
   7   6     0.02  -0.00  -0.04    -0.04   0.08   0.14    -0.00  -0.02   0.16
   8   6     0.05  -0.02  -0.01    -0.10   0.18   0.01     0.07  -0.02   0.04
   9   6     0.07   0.12   0.08    -0.07   0.16  -0.16     0.07  -0.02  -0.03
  10   9    -0.22  -0.18  -0.11    -0.24   0.17   0.07    -0.06  -0.11  -0.04
  11   6    -0.06   0.03   0.00     0.02  -0.12   0.10    -0.01   0.13   0.03
  12   6    -0.16   0.01   0.05     0.18  -0.13  -0.07    -0.00  -0.09  -0.41
  13   6    -0.17  -0.02   0.01     0.18   0.00  -0.02    -0.11   0.11   0.26
  14   6    -0.19  -0.04  -0.09     0.11   0.10   0.13    -0.04   0.00   0.09
  15   6    -0.15   0.04  -0.01     0.04  -0.05  -0.05     0.08  -0.15  -0.35
  16   6    -0.14   0.08   0.03     0.04  -0.18  -0.06    -0.02   0.21   0.24
  17   6     0.13  -0.18  -0.09    -0.05  -0.21  -0.02     0.04   0.01   0.05
  18   8     0.14  -0.06  -0.44     0.16  -0.12  -0.21    -0.07  -0.02   0.07
  19   8    -0.05  -0.05   0.09    -0.10  -0.07   0.31    -0.04   0.02   0.05
  20   1     0.04  -0.02   0.11     0.17  -0.01   0.05     0.02  -0.00  -0.00
  21   1    -0.06   0.03   0.03     0.10  -0.01   0.03     0.03  -0.01   0.01
  22   1    -0.01   0.01   0.15     0.07   0.14  -0.03     0.02   0.00  -0.01
  23   1     0.05   0.06   0.04    -0.04   0.02  -0.03    -0.01   0.03  -0.11
  24   1     0.09   0.00   0.01    -0.05   0.06  -0.04    -0.03  -0.04   0.11
  25   1    -0.02   0.05   0.03     0.01   0.05  -0.08     0.03  -0.01   0.01
  26   1    -0.07   0.02   0.02     0.09  -0.06  -0.04     0.00  -0.07  -0.25
  27   1    -0.04  -0.00   0.00     0.07   0.00  -0.02    -0.06   0.06   0.17
  28   1    -0.05  -0.03  -0.05     0.02   0.07   0.08    -0.02   0.00   0.06
  29   1    -0.03   0.00   0.00    -0.01  -0.01  -0.04     0.06  -0.10  -0.22
  30   1    -0.05   0.02   0.02     0.01  -0.07  -0.04    -0.01   0.11   0.16
  31   1    -0.06   0.05  -0.01     0.02   0.07   0.08    -0.05   0.01  -0.00
                     16                     17                     18
                        a                      a                      a 
 Frequencies --   375.6840               413.6556               444.1238
 Red. masses --    10.6127                11.1622                11.2595
 Frc consts  --     0.0000                 0.0000                 0.0000
 IR Inten    --     1.3644                 2.7959                11.5872
 Raman Activ --     0.0000                 0.0000                 0.0000
 Depolar     --     0.0000                 0.0000                 0.0000
 Atom AN      X      Y      Z        X      Y      Z        X      Y      Z
   1   6     0.09  -0.01  -0.00    -0.00  -0.09   0.20    -0.11   0.14  -0.25
   2   6     0.05  -0.00   0.02     0.10  -0.07   0.11    -0.11   0.12  -0.16
   3   1    -0.00  -0.00   0.02    -0.01  -0.02   0.07    -0.00   0.04  -0.10
   4   6     0.07   0.02  -0.24     0.03  -0.19   0.14    -0.03   0.07   0.09
   5   6    -0.00   0.07  -0.29    -0.11  -0.13   0.12     0.05  -0.01   0.19
   6   6    -0.07  -0.11   0.29    -0.09   0.18  -0.27     0.10   0.02  -0.25
   7   6    -0.01  -0.05   0.25    -0.03   0.05   0.22     0.06  -0.14   0.17
   8   6     0.08  -0.05   0.08     0.06  -0.02   0.21     0.08  -0.24   0.33
   9   6     0.09  -0.01  -0.05     0.12   0.01  -0.16     0.08   0.15  -0.09
  10   9    -0.13  -0.18  -0.11    -0.20  -0.08  -0.13     0.20  -0.13  -0.15
  11   6    -0.00   0.20   0.06    -0.04   0.10   0.23     0.02   0.11   0.06
  12   6    -0.10   0.19   0.10     0.01  -0.02  -0.05    -0.04   0.03  -0.05
  13   6    -0.04  -0.12  -0.28     0.02  -0.04  -0.10    -0.06  -0.04  -0.02
  14   6    -0.04   0.01   0.13    -0.02   0.07   0.16    -0.08  -0.01   0.05
  15   6     0.05   0.08   0.15     0.01  -0.05  -0.10     0.00   0.00  -0.05
  16   6     0.10   0.02  -0.34     0.01  -0.02  -0.05    -0.01   0.10  -0.02
  17   6     0.04  -0.00   0.07     0.09   0.17   0.01    -0.13  -0.12  -0.05
  18   8    -0.08  -0.03   0.09    -0.04   0.17  -0.00     0.04  -0.16   0.07
  19   8    -0.06   0.02   0.10     0.14   0.02  -0.35    -0.11   0.01   0.30
  20   1     0.03  -0.00  -0.00    -0.02  -0.03   0.08    -0.03   0.05  -0.10
  21   1     0.04  -0.01   0.01    -0.03   0.01   0.04    -0.03   0.01  -0.07
  22   1     0.03   0.01  -0.02    -0.00  -0.05   0.09    -0.03   0.03  -0.08
  23   1    -0.01   0.04  -0.15    -0.06  -0.06   0.03     0.04   0.02   0.06
  24   1    -0.03  -0.05   0.14    -0.04   0.12  -0.20     0.06   0.05  -0.21
  25   1     0.04  -0.01  -0.01     0.08   0.03  -0.16     0.02   0.10  -0.16
  26   1    -0.07   0.09   0.07     0.01  -0.03  -0.06    -0.03   0.01  -0.04
  27   1    -0.02  -0.09  -0.17     0.01  -0.04  -0.08    -0.02  -0.02  -0.02
  28   1    -0.02  -0.00   0.09    -0.01   0.04   0.09    -0.02  -0.00   0.03
  29   1     0.04   0.03   0.10     0.01  -0.04  -0.08     0.03  -0.02  -0.03
  30   1     0.06  -0.03  -0.19     0.01  -0.02  -0.06     0.01   0.03  -0.02
  31   1    -0.06   0.02   0.00    -0.02  -0.11  -0.09     0.06   0.12   0.10
                     19                     20                     21
                        a                      a                      a 
 Frequencies --   481.5900               495.4537               536.1343
 Red. masses --    10.8668                12.5308                10.0679
 Frc consts  --     0.0000                 0.0000                 0.0000
 IR Inten    --     7.6295                13.1917                25.3863
 Raman Activ --     0.0000                 0.0000                 0.0000
 Depolar     --     0.0000                 0.0000                 0.0000
 Atom AN      X      Y      Z        X      Y      Z        X      Y      Z
   1   6     0.08  -0.08   0.10    -0.06   0.06  -0.10     0.02  -0.07   0.12
   2   6     0.08  -0.03   0.08     0.01   0.03  -0.10    -0.29  -0.16   0.08
   3   1     0.02  -0.02   0.04    -0.03   0.02  -0.03    -0.07  -0.05   0.04
   4   6     0.02   0.02  -0.08     0.06  -0.21  -0.16    -0.20  -0.02   0.21
   5   6     0.07  -0.02  -0.06     0.19  -0.33  -0.03     0.11   0.02  -0.19
   6   6     0.05  -0.02   0.02     0.17   0.08   0.01     0.12  -0.19   0.04
   7   6    -0.10  -0.16   0.20     0.25   0.17   0.02     0.20  -0.12   0.14
   8   6    -0.25  -0.17   0.39     0.08   0.25   0.16     0.07   0.08  -0.06
   9   6    -0.16  -0.02  -0.25     0.16  -0.12   0.01     0.03   0.21  -0.04
  10   9    -0.04   0.26   0.00    -0.38   0.21   0.03     0.06   0.01   0.06
  11   6    -0.01  -0.08  -0.39     0.19  -0.08  -0.06     0.18   0.04  -0.04
  12   6     0.00   0.11  -0.07    -0.03  -0.17   0.06    -0.00  -0.04  -0.00
  13   6    -0.03   0.09   0.15    -0.06  -0.07   0.08    -0.04  -0.10   0.06
  14   6     0.11  -0.11  -0.19    -0.22  -0.02  -0.10    -0.18  -0.05  -0.04
  15   6     0.03   0.03   0.18    -0.09   0.12  -0.00    -0.04   0.08  -0.01
  16   6     0.03   0.04  -0.02    -0.04   0.04  -0.04    -0.02   0.16  -0.08
  17   6     0.09   0.01   0.05     0.03  -0.00  -0.02    -0.33   0.06  -0.03
  18   8    -0.01   0.04  -0.06    -0.06  -0.08   0.12     0.10   0.18  -0.07
  19   8     0.02  -0.02  -0.06    -0.05   0.07   0.09     0.05  -0.09  -0.18
  20   1     0.02  -0.02   0.03    -0.03   0.02  -0.03     0.06  -0.05   0.09
  21   1     0.03  -0.02   0.03    -0.02   0.03  -0.03     0.03  -0.01   0.05
  22   1     0.02  -0.02   0.02    -0.02  -0.00  -0.02     0.00   0.07  -0.01
  23   1     0.02   0.01  -0.06     0.03  -0.12   0.00     0.10   0.07  -0.09
  24   1     0.03   0.02  -0.08    -0.03   0.06   0.01     0.02  -0.05   0.00
  25   1    -0.05   0.05  -0.19     0.16  -0.08  -0.00     0.03   0.06  -0.04
  26   1    -0.01   0.07   0.05    -0.04  -0.02   0.03    -0.05   0.02  -0.00
  27   1    -0.05   0.05   0.15     0.02   0.02   0.05     0.01  -0.01   0.03
  28   1     0.04  -0.05  -0.08    -0.06  -0.01  -0.04    -0.05  -0.01  -0.01
  29   1    -0.00   0.05   0.15    -0.01   0.04   0.04     0.03   0.01   0.03
  30   1     0.03   0.07   0.07    -0.07  -0.01   0.02    -0.03   0.03  -0.01
  31   1    -0.08  -0.04  -0.04    -0.03   0.08   0.01     0.32  -0.15   0.10
                     22                     23                     24
                        a                      a                      a 
 Frequencies --   544.1410               587.2091               600.5618
 Red. masses --    11.5523                11.1649                 9.5294
 Frc consts  --     0.0000                 0.0000                 0.0000
 IR Inten    --    11.3256                 1.6321                53.1366
 Raman Activ --     0.0000                 0.0000                 0.0000
 Depolar     --     0.0000                 0.0000                 0.0000
 Atom AN      X      Y      Z        X      Y      Z        X      Y      Z
   1   6     0.01   0.00   0.02    -0.01   0.02  -0.03    -0.05   0.04  -0.03
   2   6    -0.03  -0.07  -0.05     0.04   0.02  -0.02     0.16   0.06  -0.06
   3   1    -0.02  -0.02  -0.00     0.01   0.01  -0.01     0.06   0.02  -0.05
   4   6    -0.01   0.03  -0.03     0.02  -0.04   0.06     0.14  -0.23   0.39
   5   6    -0.31   0.15   0.03    -0.02  -0.00   0.01     0.11   0.03  -0.11
   6   6    -0.28   0.11   0.03    -0.02   0.04  -0.03     0.06   0.19   0.13
   7   6    -0.01   0.17   0.06    -0.01  -0.00   0.06    -0.16  -0.01   0.23
   8   6     0.30   0.00   0.10     0.03   0.07  -0.12    -0.01   0.09  -0.27
   9   6     0.29   0.19   0.09     0.02  -0.02   0.03     0.01  -0.17  -0.13
  10   9     0.06  -0.31  -0.14    -0.03  -0.00   0.02    -0.06  -0.07   0.05
  11   6     0.05  -0.19  -0.23    -0.00   0.14  -0.09    -0.13  -0.02  -0.04
  12   6     0.04  -0.14  -0.06     0.31   0.28  -0.09    -0.06   0.05  -0.09
  13   6     0.01   0.07   0.17     0.34  -0.27   0.19    -0.07   0.14  -0.01
  14   6     0.02  -0.07  -0.22     0.01  -0.18   0.05     0.14  -0.00  -0.06
  15   6    -0.06   0.07   0.16    -0.33  -0.32   0.11     0.04  -0.02   0.08
  16   6    -0.00  -0.14  -0.08    -0.32   0.24  -0.16     0.04  -0.11  -0.00
  17   6    -0.02   0.04  -0.02     0.04  -0.01  -0.02    -0.11  -0.01  -0.18
  18   8    -0.03   0.00   0.10    -0.01  -0.04   0.02    -0.01  -0.12   0.10
  19   8     0.01   0.06  -0.03     0.00   0.03   0.02    -0.09   0.11   0.01
  20   1     0.02  -0.01   0.04    -0.02   0.01  -0.02    -0.06   0.03  -0.03
  21   1    -0.00   0.03  -0.00    -0.02   0.01  -0.01    -0.08   0.04  -0.05
  22   1    -0.00   0.03   0.00    -0.00  -0.01   0.01    -0.02  -0.07   0.07
  23   1    -0.11   0.03   0.00    -0.02  -0.00  -0.01    -0.01   0.03  -0.17
  24   1    -0.10   0.04   0.01    -0.01   0.02  -0.01     0.03   0.07  -0.03
  25   1     0.10   0.05   0.02     0.01  -0.01   0.02     0.01  -0.02  -0.09
  26   1     0.01  -0.01   0.07     0.03   0.11  -0.03     0.01   0.01   0.01
  27   1     0.01   0.08   0.16     0.04  -0.10   0.07    -0.05   0.04   0.04
  28   1     0.01  -0.01  -0.07     0.00   0.09  -0.05     0.04  -0.02   0.00
  29   1    -0.05   0.08   0.15    -0.04  -0.11   0.06    -0.03   0.03   0.04
  30   1    -0.03  -0.02   0.06    -0.04   0.10  -0.04     0.03  -0.00   0.02
  31   1     0.03   0.02   0.01    -0.05   0.03  -0.02     0.35   0.13   0.14
                     25                     26                     27
                        a                      a                      a 
 Frequencies --   612.7566               635.8943               667.0812
 Red. masses --     7.9435                 9.9785                10.0049
 Frc consts  --     0.0000                 0.0000                 0.0000
 IR Inten    --    90.7678                82.2117                 6.0898
 Raman Activ --     0.0000                 0.0000                 0.0000
 Depolar     --     0.0000                 0.0000                 0.0000
 Atom AN      X      Y      Z        X      Y      Z        X      Y      Z
   1   6    -0.09   0.13  -0.15    -0.04   0.09  -0.08    -0.02   0.03  -0.02
   2   6    -0.06   0.21   0.09    -0.03   0.25   0.21    -0.01   0.02  -0.00
   3   1    -0.05   0.08  -0.02    -0.03   0.09   0.02    -0.01   0.01  -0.01
   4   6    -0.08  -0.15   0.33     0.09  -0.01  -0.18    -0.00  -0.10   0.18
   5   6    -0.03  -0.01  -0.08     0.05  -0.07   0.01    -0.01   0.05  -0.12
   6   6    -0.04  -0.04   0.00     0.02   0.19   0.07    -0.03   0.03   0.14
   7   6     0.02  -0.06   0.21    -0.05   0.14  -0.05     0.00   0.11  -0.14
   8   6     0.05   0.11  -0.23     0.05  -0.02   0.11     0.04  -0.03   0.15
   9   6     0.02   0.02  -0.02     0.06  -0.12  -0.03     0.08   0.05  -0.10
  10   9     0.02  -0.06   0.05    -0.01  -0.09  -0.07    -0.01  -0.04  -0.02
  11   6     0.06  -0.01  -0.00    -0.07  -0.01   0.00     0.04  -0.19  -0.40
  12   6    -0.03  -0.07  -0.04     0.02   0.04  -0.03    -0.03   0.10   0.26
  13   6    -0.06   0.03   0.05     0.03   0.03   0.01     0.07  -0.12  -0.30
  14   6    -0.04  -0.02  -0.08     0.07  -0.01  -0.00    -0.01   0.11   0.24
  15   6     0.05   0.10   0.03    -0.05  -0.07   0.04     0.01  -0.16  -0.29
  16   6     0.06  -0.00  -0.06    -0.04  -0.06   0.00    -0.06   0.07   0.27
  17   6     0.11  -0.06   0.18    -0.06  -0.06   0.29    -0.05  -0.00  -0.01
  18   8     0.09   0.08  -0.20     0.06   0.24  -0.30     0.03   0.01   0.00
  19   8     0.12  -0.19   0.11    -0.16  -0.34   0.02     0.04  -0.01   0.02
  20   1    -0.07   0.09  -0.16    -0.05   0.08  -0.15    -0.02   0.01  -0.02
  21   1    -0.00  -0.06  -0.02     0.03  -0.09   0.01    -0.01   0.00  -0.01
  22   1    -0.01  -0.02  -0.06     0.00  -0.03  -0.06    -0.01  -0.01   0.00
  23   1     0.00   0.04  -0.13    -0.04  -0.07   0.03    -0.02   0.02  -0.08
  24   1    -0.02   0.02  -0.06    -0.01   0.05   0.06    -0.02   0.02   0.03
  25   1     0.02   0.02  -0.05     0.03  -0.06   0.02     0.04   0.03  -0.08
  26   1    -0.02  -0.01   0.00     0.02   0.00  -0.00    -0.02   0.09   0.22
  27   1    -0.01   0.03   0.04    -0.01  -0.00   0.01     0.01   0.00   0.01
  28   1    -0.01  -0.02  -0.00     0.02   0.01  -0.01    -0.02   0.10   0.19
  29   1     0.02   0.04   0.05    -0.03  -0.01   0.01    -0.02  -0.00   0.00
  30   1    -0.00   0.00   0.01     0.00  -0.01  -0.00    -0.04   0.08   0.22
  31   1    -0.52  -0.12  -0.20     0.34  -0.26   0.19    -0.07  -0.01  -0.03
                     28                     29                     30
                        a                      a                      a 
 Frequencies --   683.6450               689.4550               727.9344
 Red. masses --    10.0397                10.2531                11.4678
 Frc consts  --     0.0000                 0.0000                 0.0000
 IR Inten    --    76.4726                27.7589                25.8286
 Raman Activ --     0.0000                 0.0000                 0.0000
 Depolar     --     0.0000                 0.0000                 0.0000
 Atom AN      X      Y      Z        X      Y      Z        X      Y      Z
   1   6     0.03   0.01   0.00    -0.01  -0.04   0.02    -0.02   0.03  -0.04
   2   6     0.15   0.10   0.04    -0.17  -0.13  -0.04    -0.03  -0.02  -0.03
   3   1     0.02   0.03   0.02    -0.03  -0.05   0.01    -0.03  -0.00   0.01
   4   6     0.00   0.08  -0.10     0.00   0.12  -0.32    -0.08  -0.02   0.05
   5   6    -0.19   0.00   0.13     0.15  -0.11   0.17     0.03  -0.11  -0.04
   6   6    -0.16  -0.13  -0.22     0.19   0.23  -0.12     0.01  -0.34  -0.12
   7   6     0.00  -0.19   0.29    -0.06  -0.10   0.41     0.12  -0.11  -0.03
   8   6    -0.03   0.08  -0.25     0.05   0.11  -0.24     0.18   0.09   0.02
   9   6    -0.06  -0.01   0.13     0.01  -0.07   0.16     0.24   0.26   0.13
  10   9    -0.01   0.07   0.05     0.03  -0.10  -0.02    -0.13   0.19   0.08
  11   6     0.16  -0.05  -0.14    -0.09  -0.05  -0.13    -0.18  -0.01  -0.03
  12   6     0.01  -0.07   0.10    -0.07   0.11  -0.03    -0.12   0.17  -0.08
  13   6     0.02  -0.14  -0.05    -0.07   0.08  -0.14    -0.14   0.24  -0.12
  14   6    -0.15   0.01   0.02     0.12   0.01   0.03     0.26   0.02   0.04
  15   6     0.10   0.11  -0.15     0.00  -0.11  -0.04    -0.12  -0.24   0.10
  16   6     0.07   0.13   0.02    -0.02  -0.06   0.05    -0.11  -0.18   0.07
  17   6     0.36  -0.02   0.11    -0.23   0.03  -0.03     0.25   0.01   0.10
  18   8    -0.11  -0.06  -0.07     0.06   0.08   0.05    -0.08  -0.01  -0.03
  19   8    -0.19   0.01  -0.05     0.11  -0.02   0.02    -0.08  -0.00  -0.03
  20   1    -0.03   0.03  -0.05     0.06  -0.05   0.08    -0.00   0.01  -0.01
  21   1    -0.00  -0.02  -0.00     0.03   0.02   0.02     0.00   0.00  -0.01
  22   1     0.01  -0.05   0.02    -0.00   0.09  -0.05    -0.00   0.02  -0.02
  23   1    -0.04   0.02   0.02     0.04  -0.05   0.10     0.09   0.03  -0.03
  24   1    -0.04  -0.02  -0.10     0.05   0.06  -0.03     0.01  -0.09  -0.06
  25   1    -0.04   0.01   0.04     0.01  -0.05   0.10     0.13   0.06   0.01
  26   1    -0.05   0.04   0.12    -0.02   0.07   0.11     0.02   0.02  -0.02
  27   1     0.03   0.03   0.07    -0.07   0.05   0.07    -0.12   0.01  -0.05
  28   1    -0.06   0.03   0.12     0.02   0.04   0.13     0.07  -0.01  -0.01
  29   1     0.06   0.05   0.07    -0.05   0.03   0.08    -0.11  -0.04  -0.03
  30   1    -0.02   0.07   0.12     0.01   0.05   0.12     0.02  -0.04  -0.01
  31   1     0.29   0.05   0.12    -0.16  -0.07  -0.07     0.08   0.00   0.03
                     31                     32                     33
                        a                      a                      a 
 Frequencies --   759.1742               765.5155               834.7730
 Red. masses --     5.9807                10.3966                 5.6498
 Frc consts  --     0.0000                 0.0000                 0.0000
 IR Inten    --    19.9322                45.4586                 4.9285
 Raman Activ --     0.0000                 0.0000                 0.0000
 Depolar     --     0.0000                 0.0000                 0.0000
 Atom AN      X      Y      Z        X      Y      Z        X      Y      Z
   1   6     0.03  -0.00   0.03    -0.07   0.01  -0.05     0.01  -0.00  -0.11
   2   6     0.13   0.10   0.06    -0.29  -0.18  -0.09     0.11  -0.16  -0.20
   3   1     0.06   0.03  -0.02    -0.13  -0.06   0.05     0.06  -0.06  -0.03
   4   6     0.06   0.00   0.02    -0.17  -0.04   0.12     0.10   0.05  -0.12
   5   6    -0.02   0.00  -0.05     0.16  -0.02  -0.02    -0.03   0.00   0.20
   6   6    -0.05  -0.18  -0.10     0.18   0.22   0.15    -0.03  -0.10   0.18
   7   6     0.04  -0.01  -0.15    -0.01   0.13  -0.09    -0.02   0.03  -0.18
   8   6    -0.00  -0.05   0.07    -0.07  -0.02   0.04    -0.00   0.00  -0.10
   9   6     0.03   0.02  -0.04    -0.13   0.02  -0.03     0.01  -0.12   0.19
  10   9    -0.06   0.11   0.02     0.13  -0.17  -0.06    -0.05   0.05   0.05
  11   6    -0.06   0.14   0.33    -0.03   0.07   0.17    -0.02   0.03   0.08
  12   6     0.02  -0.05  -0.16     0.02  -0.03  -0.07     0.02  -0.02  -0.01
  13   6     0.01  -0.02  -0.09     0.02  -0.02  -0.03     0.03  -0.04  -0.00
  14   6     0.04  -0.07  -0.16     0.01  -0.03  -0.08    -0.02  -0.01  -0.04
  15   6     0.00  -0.05  -0.07    -0.01  -0.02  -0.03     0.00   0.01  -0.02
  16   6     0.01  -0.08  -0.16     0.00  -0.03  -0.07     0.01  -0.00   0.01
  17   6    -0.21  -0.02  -0.09     0.52   0.02   0.14    -0.08   0.06   0.14
  18   8     0.07   0.00   0.01    -0.15  -0.07  -0.04    -0.03   0.17   0.07
  19   8     0.05  -0.01   0.04    -0.11   0.06  -0.10    -0.03  -0.10   0.08
  20   1    -0.04   0.03  -0.04     0.07  -0.05   0.07     0.03  -0.06   0.11
  21   1    -0.02  -0.01  -0.01     0.05   0.02   0.03    -0.06   0.14  -0.08
  22   1     0.01  -0.08   0.05    -0.02   0.14  -0.11    -0.01   0.06   0.02
  23   1    -0.00  -0.03   0.08     0.06   0.02  -0.03     0.04   0.19  -0.38
  24   1    -0.02  -0.10   0.07     0.04   0.07   0.05     0.06   0.13  -0.36
  25   1    -0.00  -0.02   0.06    -0.04   0.02  -0.04     0.03   0.15  -0.37
  26   1    -0.04   0.10   0.22    -0.02   0.05   0.10     0.00   0.00   0.02
  27   1    -0.05   0.13   0.31    -0.02   0.06   0.14     0.01   0.02   0.06
  28   1    -0.05   0.16   0.37    -0.03   0.08   0.16    -0.02   0.04   0.07
  29   1    -0.05   0.13   0.31    -0.02   0.06   0.14    -0.00   0.02   0.03
  30   1    -0.04   0.10   0.23    -0.01   0.04   0.09     0.01  -0.01  -0.02
  31   1    -0.02  -0.00  -0.01     0.06   0.06   0.01    -0.02  -0.19   0.04
                     34                     35                     36
                        a                      a                      a 
 Frequencies --   851.3387               873.8970               878.0667
 Red. masses --     7.8706                 3.2827                 3.2760
 Frc consts  --     0.0000                 0.0000                 0.0000
 IR Inten    --    52.0062                 1.7510                 1.6261
 Raman Activ --     0.0000                 0.0000                 0.0000
 Depolar     --     0.0000                 0.0000                 0.0000
 Atom AN      X      Y      Z        X      Y      Z        X      Y      Z
   1   6    -0.03   0.07  -0.26     0.00   0.00  -0.01     0.00  -0.00  -0.00
   2   6     0.12  -0.27  -0.29     0.00  -0.02  -0.01     0.01  -0.01  -0.01
   3   1     0.05  -0.09  -0.04     0.00  -0.00  -0.01     0.00  -0.00  -0.01
   4   6     0.12  -0.07   0.18     0.01  -0.00  -0.00    -0.00   0.01  -0.01
   5   6    -0.02   0.19  -0.07    -0.01  -0.04   0.11     0.00  -0.05   0.10
   6   6     0.01   0.03  -0.14    -0.02  -0.06   0.15    -0.00  -0.04   0.09
   7   6    -0.06  -0.10   0.06    -0.01  -0.00  -0.00    -0.00   0.01  -0.01
   8   6    -0.00  -0.07   0.02     0.00  -0.02   0.03    -0.00  -0.00   0.02
   9   6     0.07  -0.02  -0.14     0.03   0.12  -0.29     0.01   0.08  -0.17
  10   9    -0.07   0.10   0.02    -0.01   0.01  -0.01     0.01  -0.00  -0.01
  11   6    -0.01  -0.01  -0.02    -0.01  -0.00   0.00     0.01   0.01   0.01
  12   6     0.01   0.01   0.01     0.02  -0.05  -0.10    -0.03   0.08   0.18
  13   6     0.01  -0.02   0.02     0.02  -0.05  -0.10    -0.03   0.08   0.17
  14   6    -0.03  -0.00   0.01    -0.01  -0.01  -0.03    -0.00  -0.00  -0.01
  15   6     0.04   0.04  -0.01    -0.01   0.05   0.09     0.02  -0.09  -0.17
  16   6     0.02   0.01  -0.02    -0.02   0.05   0.14     0.02  -0.08  -0.17
  17   6     0.04   0.08   0.22     0.00   0.01   0.01    -0.00   0.00   0.00
  18   8    -0.07   0.23   0.08    -0.00   0.01   0.01    -0.00   0.01   0.00
  19   8    -0.06  -0.13   0.10    -0.00  -0.01   0.00    -0.00  -0.00   0.00
  20   1     0.03  -0.07   0.16     0.00  -0.00   0.01    -0.00  -0.00   0.00
  21   1    -0.11   0.26  -0.16    -0.01   0.01  -0.01    -0.00   0.00  -0.00
  22   1    -0.04   0.09   0.03    -0.00   0.01   0.00     0.00   0.00   0.00
  23   1    -0.04  -0.06   0.26     0.02   0.07  -0.16     0.02   0.07  -0.16
  24   1     0.03  -0.14   0.24     0.04   0.14  -0.35     0.01   0.10  -0.21
  25   1    -0.02  -0.09   0.19    -0.06  -0.24   0.58    -0.04  -0.13   0.34
  26   1     0.00  -0.00  -0.01    -0.03   0.09   0.19     0.07  -0.16  -0.35
  27   1     0.01  -0.02  -0.02    -0.03   0.09   0.22     0.05  -0.14  -0.33
  28   1    -0.00  -0.02  -0.02    -0.01   0.02   0.04    -0.00   0.01   0.01
  29   1     0.02   0.00  -0.00     0.03  -0.07  -0.17    -0.06   0.15   0.35
  30   1    -0.00   0.02   0.03     0.05  -0.11  -0.26    -0.04   0.16   0.34
  31   1    -0.02  -0.25   0.05    -0.00  -0.01   0.00    -0.00  -0.01   0.00
                     37                     38                     39
                        a                      a                      a 
 Frequencies --   903.5742               924.7220               929.1466
 Red. masses --     3.6937                 4.7433                 8.7329
 Frc consts  --     0.0000                 0.0000                 0.0000
 IR Inten    --     0.4795                24.4676                66.2108
 Raman Activ --     0.0000                 0.0000                 0.0000
 Depolar     --     0.0000                 0.0000                 0.0000
 Atom AN      X      Y      Z        X      Y      Z        X      Y      Z
   1   6     0.01  -0.01   0.00     0.09  -0.03   0.01    -0.18   0.05   0.02
   2   6     0.01  -0.00  -0.01     0.11   0.01  -0.07    -0.26  -0.04   0.14
   3   1     0.01  -0.00  -0.01     0.05   0.01  -0.05    -0.12  -0.01   0.09
   4   6    -0.01   0.01  -0.01    -0.12   0.02  -0.00     0.25  -0.04  -0.00
   5   6     0.01  -0.05   0.06    -0.00  -0.23   0.19    -0.07   0.24   0.24
   6   6     0.01  -0.01  -0.01     0.01   0.11  -0.21     0.02   0.02  -0.10
   7   6     0.01   0.02  -0.03     0.05   0.05   0.02    -0.12  -0.12  -0.06
   8   6    -0.01  -0.01   0.01    -0.07   0.05   0.07     0.15  -0.15  -0.03
   9   6    -0.02   0.02  -0.02    -0.09   0.13  -0.04     0.23  -0.20  -0.09
  10   9     0.01  -0.01  -0.01     0.08  -0.09  -0.03    -0.18   0.21   0.07
  11   6    -0.01   0.03   0.08     0.04  -0.01  -0.03    -0.08  -0.01  -0.01
  12   6     0.04  -0.09  -0.22    -0.04   0.03   0.12     0.03   0.07   0.03
  13   6     0.01   0.00   0.02    -0.01  -0.00  -0.10     0.05  -0.09   0.00
  14   6    -0.04   0.13   0.29     0.05  -0.03  -0.07    -0.08  -0.02  -0.03
  15   6    -0.01   0.02   0.04    -0.04   0.03   0.16     0.05   0.11   0.03
  16   6     0.04  -0.11  -0.22    -0.01  -0.01  -0.08     0.05  -0.06  -0.03
  17   6    -0.00   0.00   0.00    -0.02   0.01   0.03     0.02  -0.02  -0.07
  18   8    -0.00   0.01   0.00    -0.00   0.03   0.02     0.01  -0.06  -0.03
  19   8    -0.00  -0.00   0.00    -0.01  -0.02   0.03     0.03   0.03  -0.06
  20   1    -0.00  -0.00   0.01    -0.04  -0.00   0.01     0.07   0.01  -0.03
  21   1    -0.01   0.01  -0.01    -0.05   0.04  -0.05     0.12  -0.12   0.12
  22   1     0.00  -0.00   0.01     0.01  -0.08   0.10    -0.03   0.18  -0.20
  23   1     0.02   0.05  -0.12     0.06   0.16  -0.47    -0.01   0.17  -0.21
  24   1    -0.02   0.00   0.00    -0.12  -0.14   0.42     0.15  -0.15   0.15
  25   1    -0.02  -0.01   0.04    -0.05   0.01   0.08     0.10  -0.09   0.00
  26   1    -0.08   0.20   0.42     0.03  -0.08  -0.17     0.03  -0.02  -0.06
  27   1     0.02  -0.04  -0.09    -0.03   0.06   0.12     0.01   0.00   0.05
  28   1     0.07  -0.19  -0.46    -0.01   0.06   0.14    -0.03   0.01   0.05
  29   1     0.01  -0.06  -0.14     0.03  -0.12  -0.25     0.04  -0.03  -0.11
  30   1    -0.06   0.19   0.43    -0.03   0.05   0.10    -0.00   0.03   0.09
  31   1     0.00  -0.01   0.00    -0.00  -0.04   0.01     0.00   0.09  -0.03
                     40                     41                     42
                        a                      a                      a 
 Frequencies --   930.0644               931.3895               961.3253
 Red. masses --     3.9512                 2.9683                11.2147
 Frc consts  --     0.0000                 0.0000                 0.0000
 IR Inten    --     0.2976                 0.0772                 7.7369
 Raman Activ --     0.0000                 0.0000                 0.0000
 Depolar     --     0.0000                 0.0000                 0.0000
 Atom AN      X      Y      Z        X      Y      Z        X      Y      Z
   1   6    -0.01   0.00  -0.01     0.00  -0.00   0.00     0.05  -0.01   0.02
   2   6    -0.00  -0.00   0.00    -0.00  -0.00   0.00     0.04   0.02  -0.03
   3   1     0.00  -0.00   0.01    -0.00   0.00  -0.00     0.02   0.01  -0.04
   4   6     0.01   0.00   0.00     0.00  -0.00   0.00    -0.10  -0.00  -0.01
   5   6     0.02   0.06  -0.14    -0.01  -0.02   0.05     0.12  -0.22  -0.08
   6   6    -0.01  -0.06   0.14     0.00   0.02  -0.05     0.03   0.02   0.01
   7   6     0.00   0.00   0.00     0.00  -0.00  -0.00    -0.20  -0.02  -0.03
   8   6     0.00   0.01  -0.03    -0.00  -0.00   0.01     0.04  -0.05  -0.02
   9   6    -0.01  -0.02   0.03     0.00   0.00  -0.01     0.09   0.23   0.10
  10   9     0.00  -0.00   0.00     0.00   0.00   0.00    -0.01   0.02   0.01
  11   6     0.01   0.01   0.01    -0.01   0.03   0.06    -0.29  -0.02  -0.04
  12   6    -0.03   0.08   0.20    -0.01   0.03   0.07     0.16   0.36  -0.12
  13   6     0.03  -0.08  -0.22     0.03  -0.09  -0.22     0.13  -0.23   0.11
  14   6    -0.00   0.00   0.01    -0.03   0.10   0.24    -0.35  -0.02  -0.04
  15   6    -0.04   0.08   0.22     0.03  -0.08  -0.17     0.13   0.25  -0.09
  16   6     0.03  -0.09  -0.21    -0.01   0.03   0.03     0.17  -0.33   0.17
  17   6     0.01  -0.00   0.00    -0.00   0.00  -0.00    -0.00  -0.00   0.01
  18   8    -0.00  -0.00  -0.00     0.00  -0.00   0.00    -0.00   0.00   0.00
  19   8    -0.00   0.00  -0.00     0.00   0.00  -0.00    -0.00   0.00   0.01
  20   1     0.00  -0.00   0.01    -0.00   0.00  -0.00    -0.03   0.01  -0.01
  21   1     0.00   0.01  -0.00     0.00  -0.00   0.00    -0.03   0.01  -0.02
  22   1    -0.00   0.01  -0.01     0.00   0.00  -0.00     0.01  -0.07   0.06
  23   1    -0.02  -0.11   0.27     0.01   0.04  -0.09     0.04  -0.06  -0.00
  24   1     0.02   0.12  -0.27    -0.00  -0.04   0.10    -0.01   0.01   0.01
  25   1     0.00   0.01  -0.03     0.00  -0.01   0.01     0.02   0.07   0.02
  26   1     0.06  -0.15  -0.32     0.05  -0.11  -0.22     0.03   0.09  -0.06
  27   1    -0.05   0.15   0.34    -0.07   0.20   0.46     0.01  -0.07   0.05
  28   1     0.00  -0.00  -0.02     0.07  -0.21  -0.47    -0.09  -0.01  -0.01
  29   1     0.05  -0.15  -0.34    -0.05   0.17   0.39     0.01   0.08  -0.03
  30   1    -0.04   0.16   0.34     0.02  -0.08  -0.17     0.03  -0.10   0.04
  31   1     0.00  -0.00   0.00    -0.00   0.00  -0.00     0.00  -0.01   0.00
                     43                     44                     45
                        a                      a                      a 
 Frequencies --  1025.5770              1031.4696              1066.2871
 Red. masses --     5.4179                10.5678                 4.6812
 Frc consts  --     0.0000                 0.0000                 0.0000
 IR Inten    --    55.8009                14.3820                65.8712
 Raman Activ --     0.0000                 0.0000                 0.0000
 Depolar     --     0.0000                 0.0000                 0.0000
 Atom AN      X      Y      Z        X      Y      Z        X      Y      Z
   1   6    -0.17   0.01  -0.28     0.05  -0.01   0.07    -0.30   0.05   0.11
   2   6     0.14   0.12   0.32    -0.04  -0.03  -0.09     0.23  -0.09  -0.11
   3   1     0.20  -0.14   0.45    -0.05   0.04  -0.12     0.31  -0.03  -0.22
   4   6     0.06   0.06   0.04     0.01   0.00   0.00     0.08   0.04   0.08
   5   6    -0.01  -0.11  -0.03    -0.13   0.28   0.10     0.03  -0.13  -0.06
   6   6    -0.08  -0.09  -0.04     0.00  -0.10  -0.04    -0.06  -0.05  -0.03
   7   6     0.10   0.08   0.04     0.36   0.08   0.07     0.02   0.04   0.02
   8   6    -0.06   0.09   0.04    -0.08   0.23   0.09    -0.06   0.03   0.00
   9   6    -0.08  -0.02  -0.02    -0.17  -0.28  -0.13    -0.04   0.05   0.01
  10   9     0.05  -0.07  -0.03     0.07  -0.12  -0.04     0.03  -0.03  -0.01
  11   6     0.05   0.00  -0.01     0.19   0.01   0.02     0.01   0.00  -0.00
  12   6     0.03   0.10  -0.04     0.10   0.32  -0.12     0.00   0.01  -0.00
  13   6    -0.02   0.01  -0.01    -0.10   0.07  -0.04    -0.00  -0.00   0.00
  14   6    -0.06  -0.00  -0.01    -0.20  -0.01  -0.03     0.00  -0.00   0.00
  15   6    -0.03  -0.02   0.00    -0.10  -0.08   0.02    -0.00   0.00  -0.00
  16   6     0.03  -0.10   0.06     0.11  -0.31   0.15     0.00  -0.01   0.01
  17   6    -0.04  -0.01  -0.08     0.02   0.00   0.02    -0.03  -0.05   0.05
  18   8     0.04  -0.05  -0.05    -0.01   0.01   0.01    -0.01  -0.04   0.03
  19   8     0.02  -0.09  -0.01    -0.01   0.02   0.01    -0.00   0.26  -0.00
  20   1     0.15  -0.15   0.25    -0.03   0.03  -0.05     0.14   0.03  -0.10
  21   1     0.01   0.23  -0.07    -0.00  -0.05   0.02     0.23  -0.26   0.24
  22   1    -0.07   0.31  -0.12     0.02  -0.08   0.03    -0.03   0.25  -0.34
  23   1     0.01  -0.02  -0.04     0.03   0.11   0.05    -0.03  -0.06  -0.02
  24   1    -0.14   0.03   0.01     0.01  -0.03  -0.01    -0.13   0.03   0.01
  25   1    -0.04   0.00  -0.00     0.05  -0.12  -0.04    -0.08   0.04   0.02
  26   1    -0.01   0.04  -0.02    -0.04   0.12  -0.06    -0.01   0.01  -0.00
  27   1    -0.03  -0.01   0.00    -0.11  -0.03  -0.01    -0.01  -0.01   0.00
  28   1    -0.02   0.00  -0.00    -0.06   0.00  -0.01     0.00   0.00  -0.00
  29   1    -0.04   0.01  -0.01    -0.12   0.01  -0.02    -0.01   0.00  -0.00
  30   1    -0.02  -0.05   0.00    -0.03  -0.13   0.05    -0.01  -0.02  -0.00
  31   1     0.02   0.18  -0.03    -0.01  -0.05   0.01     0.00  -0.35   0.06
                     46                     47                     48
                        a                      a                      a 
 Frequencies --  1084.3282              1097.3430              1114.9022
 Red. masses --     6.9136                 9.7016                 6.0282
 Frc consts  --     0.0000                 0.0000                 0.0000
 IR Inten    --     2.5321               169.5134                37.4747
 Raman Activ --     0.0000                 0.0000                 0.0000
 Depolar     --     0.0000                 0.0000                 0.0000
 Atom AN      X      Y      Z        X      Y      Z        X      Y      Z
   1   6    -0.01   0.01  -0.01    -0.07  -0.31   0.21     0.04  -0.17  -0.00
   2   6     0.01  -0.01   0.01    -0.01   0.33  -0.36    -0.04   0.28  -0.03
   3   1    -0.00  -0.00   0.01     0.08   0.09  -0.16     0.12   0.03  -0.00
   4   6     0.00  -0.01  -0.00     0.02   0.00   0.07    -0.14   0.02   0.01
   5   6    -0.00  -0.04  -0.01     0.01  -0.02  -0.02     0.03   0.06   0.02
   6   6     0.00   0.04   0.01    -0.03  -0.02  -0.02    -0.01  -0.11  -0.05
   7   6    -0.03  -0.02  -0.01    -0.01   0.02   0.01    -0.12   0.04   0.02
   8   6     0.02  -0.07  -0.03     0.02  -0.01  -0.01    -0.08   0.22   0.08
   9   6     0.01   0.04   0.02     0.02  -0.02  -0.02     0.01  -0.09  -0.04
  10   9    -0.02   0.03   0.01    -0.01   0.00   0.00     0.06  -0.10  -0.04
  11   6     0.02   0.00   0.00    -0.01   0.00  -0.01    -0.21   0.04  -0.05
  12   6     0.15   0.01   0.01    -0.00  -0.01   0.00    -0.10  -0.13   0.04
  13   6    -0.06   0.33  -0.15     0.01   0.00  -0.00     0.10  -0.08   0.05
  14   6    -0.44  -0.02  -0.06    -0.01   0.00  -0.00    -0.01   0.07  -0.03
  15   6    -0.06  -0.34   0.14     0.00  -0.01   0.00     0.02  -0.02   0.01
  16   6     0.16  -0.00   0.03     0.01   0.00   0.00     0.05   0.03  -0.01
  17   6    -0.00  -0.00  -0.00     0.06   0.15  -0.07     0.01  -0.08   0.05
  18   8     0.00  -0.00  -0.00    -0.05   0.25   0.07     0.02  -0.13  -0.05
  19   8     0.00   0.01  -0.00    -0.04  -0.44   0.10    -0.01   0.20   0.00
  20   1    -0.00   0.01  -0.01     0.15  -0.14   0.15     0.06  -0.11   0.16
  21   1     0.00  -0.00  -0.00     0.13  -0.09   0.14    -0.00   0.08  -0.02
  22   1    -0.00   0.00  -0.00    -0.01   0.12  -0.10    -0.01   0.04   0.04
  23   1    -0.04  -0.03  -0.02     0.03   0.00   0.02     0.16   0.11   0.06
  24   1     0.00   0.00   0.02    -0.05   0.01   0.01     0.16  -0.12  -0.02
  25   1    -0.06   0.04   0.01     0.00  -0.01   0.01     0.44  -0.22  -0.03
  26   1     0.25  -0.08   0.10     0.01  -0.01   0.00    -0.05  -0.03   0.00
  27   1     0.25   0.26  -0.08     0.02   0.01  -0.00     0.17   0.06  -0.00
  28   1    -0.13  -0.00  -0.02    -0.00   0.01  -0.00    -0.00   0.15  -0.07
  29   1     0.24  -0.22   0.13     0.01  -0.01   0.00    -0.01   0.00  -0.00
  30   1     0.29   0.14  -0.03     0.01   0.01  -0.00     0.22   0.14  -0.03
  31   1     0.00  -0.01   0.00     0.00   0.36  -0.04    -0.01  -0.23   0.04
                     49                     50                     51
                        a                      a                      a 
 Frequencies --  1122.2054              1127.1269              1166.5851
 Red. masses --     5.5663                 6.7222                 3.9232
 Frc consts  --     0.0000                 0.0000                 0.0000
 IR Inten    --    41.4644               114.4595                 8.1224
 Raman Activ --     0.0000                 0.0000                 0.0000
 Depolar     --     0.0000                 0.0000                 0.0000
 Atom AN      X      Y      Z        X      Y      Z        X      Y      Z
   1   6    -0.05   0.20  -0.01     0.06  -0.23   0.01    -0.01  -0.02  -0.01
   2   6     0.08  -0.28   0.06    -0.13   0.30  -0.09     0.05   0.04   0.02
   3   1     0.01  -0.06  -0.01    -0.16   0.10   0.03     0.22  -0.03  -0.05
   4   6     0.04   0.00  -0.01     0.08  -0.02   0.02    -0.16  -0.04  -0.03
   5   6     0.02  -0.02  -0.01    -0.04  -0.03  -0.02    -0.17  -0.00  -0.02
   6   6    -0.00  -0.04  -0.02     0.01   0.09   0.03     0.15   0.17   0.08
   7   6    -0.00   0.02   0.04     0.08  -0.03   0.01     0.05  -0.20  -0.07
   8   6    -0.04   0.04   0.01     0.16  -0.25  -0.09    -0.07  -0.05  -0.03
   9   6    -0.03   0.03   0.01     0.03  -0.00  -0.00    -0.03   0.15   0.06
  10   9     0.02  -0.02  -0.01    -0.09   0.13   0.05     0.02   0.02   0.01
  11   6    -0.02   0.13  -0.06     0.17   0.09  -0.01     0.17   0.01   0.05
  12   6    -0.19  -0.12   0.03    -0.08  -0.01  -0.01     0.03   0.04  -0.01
  13   6     0.09  -0.13   0.07    -0.00  -0.04   0.02    -0.05   0.03  -0.02
  14   6     0.01   0.15  -0.07     0.01   0.08  -0.03    -0.00   0.00  -0.00
  15   6    -0.08  -0.11   0.03    -0.09  -0.09   0.03    -0.04  -0.03   0.00
  16   6     0.18  -0.09   0.07     0.12  -0.10   0.06     0.03  -0.02   0.01
  17   6    -0.01   0.07  -0.02     0.01  -0.06  -0.00    -0.03  -0.06   0.11
  18   8    -0.02   0.12   0.05     0.03  -0.14  -0.06    -0.00   0.03   0.00
  19   8     0.01  -0.18  -0.02    -0.02   0.18   0.03     0.02   0.01  -0.06
  20   1    -0.06   0.12  -0.16     0.05  -0.13   0.18     0.02  -0.02   0.02
  21   1     0.01  -0.08   0.02    -0.02   0.10  -0.03     0.01   0.02   0.00
  22   1     0.01  -0.04  -0.05    -0.01   0.03   0.06    -0.01   0.05  -0.01
  23   1     0.01  -0.00   0.00    -0.12  -0.07  -0.04    -0.53  -0.29  -0.18
  24   1     0.02  -0.03   0.01    -0.08   0.06   0.03     0.41  -0.12  -0.02
  25   1    -0.06   0.03   0.00    -0.35   0.15   0.03     0.25  -0.07  -0.00
  26   1    -0.29   0.07  -0.09    -0.21   0.08  -0.08    -0.08   0.06  -0.03
  27   1     0.19   0.06   0.01     0.03   0.01   0.01    -0.06  -0.02  -0.00
  28   1    -0.00   0.37  -0.16    -0.00   0.20  -0.09    -0.00  -0.02   0.01
  29   1    -0.23   0.06  -0.06    -0.19   0.05  -0.05    -0.10   0.03  -0.03
  30   1     0.32   0.13  -0.02     0.09  -0.00   0.00    -0.00  -0.00   0.02
  31   1     0.02   0.23  -0.04    -0.02  -0.28   0.05     0.01   0.11  -0.02
                     52                     53                     54
                        a                      a                      a 
 Frequencies --  1179.8689              1187.4999              1199.8452
 Red. masses --     1.3759                 7.0020                 2.6333
 Frc consts  --     0.0000                 0.0000                 0.0000
 IR Inten    --     1.4252               124.8420                16.6285
 Raman Activ --     0.0000                 0.0000                 0.0000
 Depolar     --     0.0000                 0.0000                 0.0000
 Atom AN      X      Y      Z        X      Y      Z        X      Y      Z
   1   6    -0.01   0.00   0.01     0.04  -0.04  -0.09     0.01   0.04   0.03
   2   6     0.01   0.00  -0.01    -0.11  -0.03   0.12     0.01   0.00  -0.02
   3   1    -0.05   0.00   0.03     0.29   0.04  -0.36     0.06  -0.06   0.12
   4   6     0.02  -0.01  -0.00    -0.06   0.08   0.01    -0.09   0.03   0.00
   5   6     0.01  -0.00  -0.00     0.03   0.01   0.00    -0.00   0.01   0.00
   6   6    -0.01  -0.01  -0.01    -0.02   0.03   0.01     0.02   0.06   0.03
   7   6     0.01   0.01   0.00    -0.01   0.01   0.00    -0.05  -0.07  -0.03
   8   6     0.00   0.03   0.01     0.08  -0.19  -0.07    -0.01  -0.11  -0.05
   9   6    -0.01   0.00   0.00     0.04  -0.11  -0.04     0.01   0.01   0.00
  10   9     0.01  -0.01  -0.00    -0.06   0.07   0.03    -0.01   0.04   0.02
  11   6    -0.02   0.06  -0.03     0.05   0.03  -0.01     0.08   0.04   0.00
  12   6     0.08  -0.00   0.01    -0.01   0.01  -0.00    -0.10   0.06  -0.04
  13   6     0.03   0.00   0.00     0.00   0.02  -0.01     0.06   0.07  -0.02
  14   6     0.00  -0.08   0.03     0.00  -0.01   0.00     0.04   0.00   0.01
  15   6    -0.04   0.02  -0.02    -0.01  -0.03   0.01     0.06  -0.08   0.04
  16   6    -0.07  -0.00  -0.01     0.01  -0.02   0.01    -0.06  -0.08   0.02
  17   6     0.01   0.02  -0.04    -0.12  -0.27   0.44     0.06   0.10  -0.15
  18   8     0.00  -0.01   0.00     0.00   0.05  -0.03    -0.01  -0.01   0.02
  19   8    -0.01  -0.01   0.02     0.09   0.16  -0.25    -0.03  -0.06   0.08
  20   1     0.00   0.00  -0.00    -0.00  -0.04   0.05    -0.01   0.03  -0.03
  21   1     0.00  -0.01   0.01    -0.05   0.08  -0.07     0.01  -0.04   0.02
  22   1     0.00   0.00  -0.01    -0.01   0.01   0.04     0.01  -0.03   0.00
  23   1     0.01   0.00   0.00     0.15   0.09   0.05     0.04   0.02   0.02
  24   1     0.01  -0.01   0.00    -0.24   0.12   0.03    -0.09   0.07   0.01
  25   1    -0.04   0.02   0.00     0.04  -0.05  -0.02     0.18  -0.08  -0.01
  26   1    -0.09   0.05  -0.04    -0.08   0.03  -0.03    -0.41   0.19  -0.17
  27   1     0.36   0.22  -0.04     0.09   0.06  -0.01     0.39   0.24  -0.04
  28   1     0.01  -0.63   0.27     0.00  -0.05   0.02     0.01  -0.02   0.01
  29   1    -0.43   0.20  -0.15    -0.03   0.01  -0.01     0.27  -0.14   0.10
  30   1     0.17   0.11  -0.03    -0.05  -0.04   0.00    -0.39  -0.24   0.05
  31   1    -0.00  -0.04   0.01     0.03   0.34  -0.09    -0.01  -0.10   0.03
                     55                     56                     57
                        a                      a                      a 
 Frequencies --  1207.6563              1249.3888              1255.8260
 Red. masses --     5.6281                 5.7734                 6.0397
 Frc consts  --     0.0000                 0.0000                 0.0000
 IR Inten    --    71.9784                 6.4312                67.6153
 Raman Activ --     0.0000                 0.0000                 0.0000
 Depolar     --     0.0000                 0.0000                 0.0000
 Atom AN      X      Y      Z        X      Y      Z        X      Y      Z
   1   6    -0.03  -0.09  -0.04    -0.06   0.03  -0.01    -0.13  -0.07  -0.03
   2   6     0.02  -0.00   0.01     0.25   0.03   0.02     0.43  -0.02  -0.02
   3   1    -0.25   0.12  -0.15     0.09  -0.02   0.05    -0.57   0.18   0.00
   4   6     0.23  -0.08  -0.01    -0.38  -0.17  -0.10    -0.08  -0.16  -0.06
   5   6     0.02  -0.02  -0.01    -0.14  -0.06  -0.04     0.05   0.09   0.04
   6   6    -0.03  -0.15  -0.06    -0.02   0.12   0.05    -0.04   0.14   0.05
   7   6     0.00   0.12   0.04    -0.10   0.16   0.05    -0.02  -0.24  -0.10
   8   6    -0.05   0.33   0.13     0.20  -0.11  -0.03    -0.08  -0.01  -0.01
   9   6    -0.01   0.04   0.01     0.01  -0.07  -0.03    -0.07   0.17   0.06
  10   9     0.06  -0.11  -0.04    -0.05   0.05   0.02     0.02   0.00   0.00
  11   6    -0.16  -0.01  -0.03     0.15   0.03  -0.01     0.09  -0.03   0.05
  12   6    -0.07   0.01  -0.01     0.04  -0.00   0.01     0.03   0.00  -0.00
  13   6     0.08  -0.01   0.02    -0.03   0.03  -0.02    -0.02   0.03  -0.02
  14   6     0.04  -0.00   0.01    -0.01  -0.00  -0.00    -0.01   0.01  -0.01
  15   6     0.07   0.02   0.00    -0.02  -0.04   0.02    -0.02  -0.02   0.00
  16   6    -0.09  -0.03  -0.00     0.02  -0.01   0.01     0.03   0.01  -0.00
  17   6    -0.09  -0.14   0.20    -0.04  -0.00   0.02    -0.14  -0.09   0.13
  18   8     0.01   0.00  -0.03     0.01  -0.01  -0.00     0.03  -0.02  -0.03
  19   8     0.04   0.08  -0.10     0.00  -0.00  -0.00     0.03   0.04  -0.05
  20   1     0.03  -0.05   0.05     0.05  -0.00  -0.00     0.09  -0.05   0.03
  21   1    -0.00   0.06  -0.01     0.04  -0.03   0.04     0.06   0.03   0.04
  22   1    -0.02   0.07  -0.03    -0.00   0.01  -0.04    -0.02   0.11  -0.11
  23   1    -0.13  -0.09  -0.05     0.37   0.24   0.14     0.10   0.08   0.05
  24   1     0.30  -0.18  -0.05     0.48  -0.19  -0.04    -0.16   0.11   0.03
  25   1    -0.33   0.16   0.03    -0.23   0.08   0.01     0.24  -0.06   0.00
  26   1    -0.12   0.04  -0.04    -0.01   0.01  -0.01    -0.08   0.04  -0.03
  27   1     0.21   0.11  -0.02    -0.04  -0.01  -0.00    -0.06  -0.02   0.00
  28   1     0.01  -0.02   0.01    -0.00  -0.01   0.00    -0.00   0.00   0.00
  29   1     0.23  -0.09   0.07    -0.05   0.01  -0.01    -0.02   0.00  -0.00
  30   1    -0.15  -0.07   0.02    -0.09  -0.06   0.02     0.04   0.02  -0.00
  31   1     0.01   0.13  -0.03     0.01   0.02   0.00     0.02   0.08  -0.01
                     58                     59                     60
                        a                      a                      a 
 Frequencies --  1282.3302              1299.0879              1305.7039
 Red. masses --     3.5011                 7.7753                 9.0461
 Frc consts  --     0.0000                 0.0000                 0.0000
 IR Inten    --     1.2940                83.6717                50.5669
 Raman Activ --     0.0000                 0.0000                 0.0000
 Depolar     --     0.0000                 0.0000                 0.0000
 Atom AN      X      Y      Z        X      Y      Z        X      Y      Z
   1   6     0.01   0.01  -0.00     0.01   0.08   0.12    -0.05  -0.06  -0.10
   2   6    -0.03   0.02   0.01     0.10   0.09  -0.37     0.11  -0.05   0.33
   3   1     0.11  -0.03  -0.00     0.05  -0.18   0.47     0.05   0.13  -0.36
   4   6    -0.04  -0.04  -0.02    -0.18  -0.05  -0.01    -0.24  -0.12  -0.10
   5   6    -0.03   0.02   0.01    -0.06   0.12   0.04    -0.07   0.14   0.05
   6   6    -0.01   0.04   0.02     0.11   0.03   0.02     0.08   0.10   0.05
   7   6     0.07  -0.01  -0.03     0.29  -0.07   0.00     0.35  -0.15  -0.02
   8   6     0.07   0.01   0.02     0.15  -0.01   0.00     0.23  -0.00   0.02
   9   6     0.00  -0.03  -0.01    -0.06  -0.09  -0.05    -0.15  -0.05  -0.03
  10   9    -0.01   0.01   0.00    -0.02   0.03   0.01    -0.02   0.04   0.01
  11   6    -0.05  -0.29   0.11    -0.26  -0.02  -0.02    -0.29  -0.03  -0.02
  12   6     0.11  -0.01   0.02    -0.13   0.04  -0.03    -0.16   0.06  -0.05
  13   6     0.10   0.08  -0.02     0.04  -0.08   0.04     0.05  -0.08   0.04
  14   6     0.02   0.14  -0.06     0.05  -0.04   0.02     0.05  -0.06   0.03
  15   6    -0.08   0.11  -0.06     0.03   0.08  -0.03     0.03   0.10  -0.04
  16   6    -0.17  -0.06  -0.00    -0.05  -0.01  -0.01    -0.05  -0.00  -0.01
  17   6     0.01   0.01  -0.01    -0.13  -0.17   0.25     0.10   0.15  -0.22
  18   8    -0.00   0.00   0.00     0.02  -0.00  -0.03    -0.01   0.00   0.03
  19   8    -0.00  -0.00   0.01     0.03   0.08  -0.08    -0.03  -0.08   0.07
  20   1    -0.00   0.00   0.00     0.01   0.06  -0.07     0.03  -0.05   0.05
  21   1    -0.00  -0.01  -0.00     0.03  -0.12   0.06     0.01   0.10  -0.02
  22   1     0.00  -0.01   0.01     0.03  -0.09  -0.01    -0.03   0.09  -0.00
  23   1     0.03   0.03   0.01    -0.10  -0.02  -0.01    -0.08   0.01  -0.01
  24   1    -0.02   0.02   0.01    -0.10   0.07   0.02    -0.06   0.07   0.02
  25   1    -0.08   0.03   0.00    -0.10   0.00   0.00    -0.09   0.01  -0.02
  26   1    -0.42   0.20  -0.17     0.11  -0.06   0.05     0.14  -0.07   0.05
  27   1    -0.24  -0.14   0.03     0.14   0.05  -0.00     0.17   0.07  -0.00
  28   1     0.01  -0.21   0.09     0.02   0.03  -0.01     0.02   0.05  -0.02
  29   1     0.34  -0.13   0.11     0.07  -0.00   0.01     0.07   0.00   0.01
  30   1     0.40   0.25  -0.05     0.04   0.04  -0.01     0.04   0.04  -0.01
  31   1    -0.00  -0.01   0.00     0.01   0.10  -0.02    -0.00  -0.07   0.02
                     61                     62                     63
                        a                      a                      a 
 Frequencies --  1316.6977              1326.9084              1398.8188
 Red. masses --    11.9172                10.9688                 5.2202
 Frc consts  --     0.0000                 0.0000                 0.0000
 IR Inten    --     0.1773                 5.0587                 6.3927
 Raman Activ --     0.0000                 0.0000                 0.0000
 Depolar     --     0.0000                 0.0000                 0.0000
 Atom AN      X      Y      Z        X      Y      Z        X      Y      Z
   1   6    -0.00  -0.00  -0.00    -0.03  -0.02  -0.01     0.09  -0.23   0.24
   2   6     0.01  -0.01   0.00     0.17  -0.05   0.04     0.05  -0.03  -0.03
   3   1    -0.05   0.01  -0.00    -0.24   0.08  -0.04    -0.06   0.00   0.04
   4   6     0.00   0.08   0.03    -0.15   0.33   0.11    -0.08   0.14   0.05
   5   6    -0.10  -0.06  -0.03    -0.33  -0.11  -0.08     0.19  -0.00   0.02
   6   6     0.09  -0.04  -0.00     0.40  -0.14  -0.01    -0.13  -0.07  -0.04
   7   6    -0.03   0.11   0.03     0.09   0.33   0.14    -0.04   0.14   0.06
   8   6    -0.11  -0.04  -0.02    -0.23  -0.23  -0.12     0.25  -0.10  -0.02
   9   6     0.12  -0.03   0.00     0.26  -0.15  -0.03    -0.20  -0.05  -0.04
  10   9     0.00  -0.01  -0.00    -0.02   0.02   0.01    -0.03   0.03   0.01
  11   6     0.03  -0.38   0.16    -0.09   0.08  -0.05     0.01   0.04  -0.03
  12   6    -0.33   0.16  -0.12     0.05  -0.04   0.03    -0.05  -0.03   0.01
  13   6     0.31   0.20  -0.04    -0.04  -0.07   0.03     0.09   0.02   0.01
  14   6    -0.00  -0.37   0.16     0.02   0.11  -0.05    -0.00   0.03  -0.01
  15   6    -0.32   0.14  -0.11     0.06   0.00   0.01    -0.09   0.00  -0.01
  16   6     0.34   0.21  -0.04    -0.13  -0.08   0.02     0.05  -0.02   0.02
  17   6    -0.00  -0.00   0.00    -0.01   0.01  -0.01    -0.00   0.01   0.01
  18   8     0.00  -0.00  -0.00     0.00  -0.01  -0.00     0.00  -0.01  -0.01
  19   8     0.00   0.00  -0.00     0.00  -0.01   0.01    -0.00  -0.00   0.00
  20   1     0.00  -0.00   0.00     0.02  -0.01  -0.01    -0.13   0.16  -0.40
  21   1     0.00   0.00  -0.00     0.01   0.03   0.00    -0.22   0.35  -0.15
  22   1    -0.00   0.00  -0.00    -0.01   0.04  -0.03     0.03   0.31  -0.28
  23   1     0.02   0.02   0.01    -0.07  -0.02  -0.01    -0.07  -0.08  -0.03
  24   1     0.02  -0.01  -0.00    -0.02   0.03   0.01     0.04  -0.06  -0.02
  25   1     0.00   0.01   0.00     0.05  -0.03  -0.01     0.07  -0.08  -0.02
  26   1    -0.01   0.01  -0.01     0.02  -0.01   0.00     0.00  -0.02   0.00
  27   1     0.02   0.02  -0.00     0.01  -0.01   0.00    -0.04  -0.04   0.01
  28   1    -0.00   0.02  -0.01     0.01  -0.05   0.02     0.00  -0.07   0.03
  29   1    -0.05   0.02  -0.01     0.08  -0.03   0.02     0.04  -0.03   0.02
  30   1    -0.00  -0.00  -0.00     0.05   0.03  -0.01    -0.01  -0.02   0.00
  31   1     0.00   0.00  -0.00     0.00   0.00   0.00    -0.00   0.00  -0.00
                     64                     65                     66
                        a                      a                      a 
 Frequencies --  1404.5866              1432.9343              1460.2719
 Red. masses --     7.6893                 9.1790                 8.6957
 Frc consts  --     0.0000                 0.0000                 0.0000
 IR Inten    --    28.7695                 7.6871                18.0540
 Raman Activ --     0.0000                 0.0000                 0.0000
 Depolar     --     0.0000                 0.0000                 0.0000
 Atom AN      X      Y      Z        X      Y      Z        X      Y      Z
   1   6     0.08  -0.15   0.17    -0.01   0.01  -0.01    -0.03  -0.02  -0.01
   2   6    -0.09   0.07   0.00     0.04  -0.03  -0.01     0.06   0.00   0.02
   3   1     0.16  -0.04   0.03    -0.07   0.02  -0.00     0.03  -0.00  -0.00
   4   6     0.09  -0.22  -0.08    -0.06   0.17   0.06    -0.26  -0.03  -0.04
   5   6    -0.28  -0.01  -0.03     0.11  -0.03   0.00     0.06   0.16   0.07
   6   6     0.17   0.12   0.06    -0.09  -0.05  -0.03     0.21  -0.14  -0.04
   7   6     0.05  -0.21  -0.08    -0.04   0.14   0.02    -0.16  -0.04  -0.03
   8   6    -0.32   0.14   0.02     0.17  -0.05  -0.00     0.09   0.19   0.08
   9   6     0.27   0.07   0.06    -0.10  -0.07  -0.04     0.14  -0.13  -0.04
  10   9     0.04  -0.04  -0.02    -0.02   0.02   0.01     0.00  -0.03  -0.01
  11   6    -0.01  -0.09   0.06     0.01  -0.35   0.13    -0.24  -0.01  -0.03
  12   6     0.08   0.06  -0.01     0.25   0.13  -0.02     0.16  -0.18   0.10
  13   6    -0.15  -0.02  -0.02    -0.32   0.04  -0.06     0.18   0.20  -0.06
  14   6     0.00  -0.07   0.03    -0.00  -0.28   0.12    -0.21   0.01  -0.03
  15   6     0.15   0.00   0.02     0.32   0.07   0.02     0.18  -0.19   0.11
  16   6    -0.09   0.04  -0.03    -0.24   0.11  -0.08     0.16   0.20  -0.06
  17   6     0.00   0.01   0.00    -0.00  -0.00   0.00     0.00   0.02  -0.01
  18   8     0.00  -0.01  -0.01    -0.00   0.00   0.00     0.00  -0.01  -0.00
  19   8    -0.00   0.00   0.00     0.00  -0.00  -0.00    -0.00  -0.01   0.01
  20   1    -0.10   0.11  -0.25     0.01  -0.00   0.01     0.05   0.02  -0.07
  21   1    -0.16   0.22  -0.11     0.01  -0.01   0.01     0.08   0.08   0.04
  22   1     0.02   0.19  -0.18    -0.00  -0.01   0.01    -0.01  -0.00   0.06
  23   1     0.17   0.15   0.08    -0.06  -0.06  -0.03    -0.15  -0.05  -0.04
  24   1    -0.04   0.08   0.02     0.03  -0.04  -0.02    -0.17   0.07   0.01
  25   1    -0.11   0.11   0.03     0.03  -0.05  -0.02    -0.15   0.04   0.00
  26   1    -0.01   0.03  -0.01    -0.10   0.12  -0.07    -0.21   0.06  -0.06
  27   1     0.07   0.06  -0.02     0.12   0.14  -0.05    -0.20  -0.09   0.01
  28   1    -0.00   0.12  -0.05    -0.00   0.30  -0.13    -0.06  -0.01  -0.00
  29   1    -0.06   0.05  -0.03    -0.13   0.13  -0.08    -0.19   0.06  -0.05
  30   1     0.02   0.04  -0.01     0.07   0.12  -0.04    -0.19  -0.08   0.01
  31   1    -0.00  -0.00   0.00    -0.00   0.00  -0.00     0.00  -0.00   0.00
                     67                     68                     69
                        a                      a                      a 
 Frequencies --  1476.9587              1485.7106              1498.8505
 Red. masses --     1.8903                 1.6003                10.1173
 Frc consts  --     0.0000                 0.0000                 0.0000
 IR Inten    --     3.4779                 4.5888                44.3489
 Raman Activ --     0.0000                 0.0000                 0.0000
 Depolar     --     0.0000                 0.0000                 0.0000
 Atom AN      X      Y      Z        X      Y      Z        X      Y      Z
   1   6    -0.15  -0.12  -0.08    -0.15   0.09   0.13    -0.02  -0.01  -0.01
   2   6    -0.05  -0.02  -0.03    -0.04   0.01   0.04    -0.07  -0.01  -0.02
   3   1     0.02  -0.03   0.03     0.01   0.01  -0.03    -0.03  -0.00   0.01
   4   6     0.02  -0.01  -0.00     0.01   0.01  -0.00     0.29   0.05   0.05
   5   6     0.02   0.00   0.00     0.01   0.00   0.00    -0.15  -0.19  -0.09
   6   6    -0.02  -0.00  -0.00    -0.00  -0.01  -0.00    -0.17   0.17   0.06
   7   6    -0.04   0.00  -0.00    -0.01  -0.01  -0.00     0.43   0.04   0.06
   8   6    -0.03   0.00  -0.00    -0.00   0.01   0.00    -0.05  -0.20  -0.09
   9   6     0.02   0.01   0.00     0.01  -0.01  -0.00    -0.21   0.13   0.03
  10   9     0.00  -0.00  -0.00     0.00  -0.00  -0.00    -0.00   0.03   0.02
  11   6     0.09   0.01   0.01     0.02   0.00   0.00    -0.36  -0.03  -0.04
  12   6    -0.03   0.04  -0.03    -0.01   0.01  -0.00     0.06  -0.11   0.06
  13   6    -0.05  -0.05   0.01    -0.01  -0.01   0.00     0.17   0.13  -0.03
  14   6     0.05  -0.00   0.01     0.01   0.00   0.00    -0.15  -0.00  -0.02
  15   6    -0.05   0.05  -0.03    -0.01   0.01  -0.00     0.17  -0.12   0.08
  16   6    -0.03  -0.05   0.02    -0.00  -0.01   0.00     0.06   0.13  -0.05
  17   6    -0.00  -0.00   0.01     0.01   0.02  -0.00    -0.00  -0.02   0.01
  18   8    -0.00   0.00  -0.00     0.00  -0.02  -0.01    -0.00   0.01   0.00
  19   8     0.00   0.00  -0.00    -0.00  -0.00   0.00     0.00   0.01  -0.01
  20   1     0.20   0.11  -0.38     0.65  -0.06  -0.07     0.05   0.01  -0.05
  21   1     0.49   0.43   0.25    -0.17   0.24  -0.11     0.06   0.06   0.03
  22   1    -0.10  -0.02   0.46     0.12  -0.54  -0.33    -0.01  -0.04   0.05
  23   1     0.01   0.00   0.00    -0.02  -0.01  -0.02     0.15   0.06   0.04
  24   1    -0.00  -0.00  -0.00    -0.01   0.00   0.00     0.18  -0.05  -0.01
  25   1     0.00   0.00   0.00    -0.00   0.00  -0.00     0.15  -0.05  -0.00
  26   1     0.05  -0.01   0.02     0.01  -0.00   0.00    -0.12   0.02  -0.04
  27   1     0.05   0.02  -0.00     0.01   0.00  -0.00    -0.11  -0.06   0.01
  28   1     0.02   0.00   0.00     0.00   0.00   0.00    -0.04  -0.01  -0.00
  29   1     0.05  -0.01   0.01     0.01  -0.00   0.00    -0.11   0.04  -0.03
  30   1     0.05   0.02  -0.00     0.01   0.00  -0.00    -0.12  -0.04   0.01
  31   1    -0.00   0.00  -0.00    -0.00  -0.00   0.00    -0.00   0.00  -0.00
                     70                     71                     72
                        a                      a                      a 
 Frequencies --  1563.0785              1582.1979              1595.0985
 Red. masses --    11.6516                11.5126                11.5325
 Frc consts  --     0.0000                 0.0000                 0.0000
 IR Inten    --    28.6942                 2.0368                 9.3639
 Raman Activ --     0.0000                 0.0000                 0.0000
 Depolar     --     0.0000                 0.0000                 0.0000
 Atom AN      X      Y      Z        X      Y      Z        X      Y      Z
   1   6    -0.00  -0.00   0.00     0.00  -0.00  -0.00    -0.00   0.00  -0.00
   2   6    -0.03   0.05   0.01     0.01  -0.01  -0.00    -0.01  -0.00  -0.01
   3   1     0.09  -0.02   0.00    -0.02   0.00  -0.00    -0.01  -0.00   0.00
   4   6     0.08  -0.51  -0.19    -0.02   0.10   0.04     0.15   0.03   0.03
   5   6     0.06   0.26   0.11    -0.02  -0.05  -0.03    -0.25  -0.09  -0.06
   6   6     0.20  -0.24  -0.08    -0.04   0.06   0.02     0.25  -0.04   0.01
   7   6    -0.03   0.42   0.16     0.02  -0.13  -0.03    -0.20  -0.05  -0.04
   8   6    -0.10  -0.26  -0.12    -0.01   0.06   0.02     0.24   0.09   0.07
   9   6    -0.19   0.28   0.10     0.06  -0.06  -0.02    -0.24   0.05  -0.01
  10   9     0.00   0.01   0.01     0.00  -0.00  -0.00    -0.00  -0.00  -0.00
  11   6    -0.01   0.05  -0.04    -0.02   0.43  -0.17     0.25   0.02   0.03
  12   6     0.06  -0.05   0.03     0.15  -0.24   0.13    -0.35   0.07  -0.09
  13   6     0.02   0.08  -0.03     0.12   0.28  -0.11     0.34   0.12  -0.00
  14   6    -0.00  -0.13   0.06     0.00  -0.50   0.22    -0.16  -0.02  -0.02
  15   6    -0.00   0.06  -0.03    -0.11   0.26  -0.13     0.34  -0.07   0.08
  16   6    -0.06  -0.05   0.01    -0.15  -0.25   0.09    -0.35  -0.12   0.00
  17   6    -0.00  -0.01  -0.00     0.00   0.00   0.00     0.00  -0.02   0.00
  18   8     0.00   0.00   0.00     0.00  -0.00  -0.00    -0.00   0.01   0.01
  19   8     0.00   0.00  -0.00    -0.00  -0.00   0.00     0.00   0.00  -0.00
  20   1     0.00  -0.00   0.01    -0.00   0.00  -0.00     0.00   0.00  -0.00
  21   1    -0.00  -0.00  -0.00     0.00   0.00   0.00     0.00   0.00   0.00
  22   1     0.00  -0.00  -0.01     0.00   0.00   0.00    -0.00  -0.00   0.01
  23   1    -0.06   0.02  -0.00     0.01  -0.00   0.00     0.05   0.04   0.02
  24   1    -0.08   0.00  -0.00     0.01   0.00   0.01    -0.05   0.04   0.01
  25   1     0.09   0.02   0.01    -0.02   0.00  -0.00     0.04  -0.03  -0.01
  26   1    -0.03   0.01  -0.01    -0.09  -0.00  -0.01     0.06  -0.05   0.04
  27   1    -0.02   0.01  -0.01    -0.07   0.01  -0.02    -0.06  -0.06   0.02
  28   1    -0.00   0.04  -0.02    -0.00   0.12  -0.05    -0.04  -0.00  -0.01
  29   1     0.01   0.01  -0.00     0.07   0.03   0.00    -0.06   0.05  -0.03
  30   1     0.03   0.01  -0.01     0.08   0.01   0.01     0.06   0.06  -0.02
  31   1     0.00  -0.00   0.00    -0.00   0.00  -0.00     0.00  -0.00  -0.00
                     73                     74                     75
                        a                      a                      a 
 Frequencies --  1603.4639              1718.6446              2974.4720
 Red. masses --    11.6099                13.2874                 1.7648
 Frc consts  --     0.0000                 0.0000                 0.0000
 IR Inten    --    10.9592               705.2556                24.4126
 Raman Activ --     0.0000                 0.0000                 0.0000
 Depolar     --     0.0000                 0.0000                 0.0000
 Atom AN      X      Y      Z        X      Y      Z        X      Y      Z
   1   6    -0.00   0.00  -0.00     0.00  -0.00   0.00     0.01   0.01   0.01
   2   6    -0.02  -0.01  -0.01    -0.00   0.04   0.06    -0.07  -0.24  -0.08
   3   1    -0.01  -0.00   0.00    -0.04  -0.00   0.05     0.24   0.88   0.30
   4   6     0.21   0.03   0.03    -0.04  -0.00  -0.01    -0.00  -0.01  -0.00
   5   6    -0.35  -0.12  -0.09     0.02   0.01   0.01    -0.00   0.00   0.00
   6   6     0.35  -0.06   0.01    -0.01   0.00   0.00     0.00  -0.00  -0.00
   7   6    -0.20  -0.05  -0.04     0.00  -0.00  -0.00     0.00   0.00   0.00
   8   6     0.34   0.13   0.09    -0.02  -0.00  -0.00    -0.00  -0.00  -0.00
   9   6    -0.34   0.07  -0.01     0.02  -0.01  -0.00     0.00   0.00   0.00
  10   9    -0.01  -0.01  -0.00     0.00  -0.00  -0.00    -0.00   0.00   0.00
  11   6    -0.12   0.01  -0.02     0.00   0.00  -0.00     0.00   0.00   0.00
  12   6     0.27  -0.06   0.07    -0.00   0.00   0.00     0.00   0.00  -0.00
  13   6    -0.26  -0.08  -0.00     0.00   0.00  -0.00     0.00  -0.00   0.00
  14   6     0.12  -0.00   0.02    -0.00  -0.00  -0.00     0.00   0.00   0.00
  15   6    -0.27   0.06  -0.07     0.00   0.00   0.00     0.00   0.00  -0.00
  16   6     0.26   0.08   0.00    -0.00  -0.00   0.00     0.00  -0.00   0.00
  17   6     0.00  -0.03   0.00     0.16  -0.70  -0.34    -0.00  -0.01  -0.00
  18   8    -0.00   0.02   0.01    -0.12   0.53   0.24    -0.00   0.00   0.00
  19   8     0.00   0.01  -0.00    -0.00   0.07  -0.00    -0.00   0.00   0.00
  20   1     0.01   0.00  -0.00     0.01   0.00  -0.01    -0.01  -0.05  -0.02
  21   1     0.01   0.00   0.00    -0.01   0.02  -0.01     0.01   0.00  -0.01
  22   1    -0.00  -0.01   0.01     0.00  -0.00  -0.01    -0.03  -0.00  -0.00
  23   1     0.06   0.06   0.03     0.01   0.01  -0.00     0.00  -0.00  -0.00
  24   1    -0.06   0.05   0.02     0.00  -0.00  -0.00    -0.00   0.00   0.00
  25   1     0.05  -0.04  -0.01    -0.01   0.00   0.00    -0.00  -0.01  -0.00
  26   1    -0.05   0.04  -0.03    -0.00   0.00  -0.00    -0.00  -0.00   0.00
  27   1     0.04   0.04  -0.01    -0.00   0.00  -0.00    -0.00   0.00  -0.00
  28   1     0.03   0.00   0.00    -0.00  -0.00   0.00    -0.00  -0.00  -0.00
  29   1     0.04  -0.04   0.02     0.00  -0.00   0.00    -0.00  -0.00   0.00
  30   1    -0.04  -0.04   0.01     0.00  -0.00   0.00    -0.00   0.00  -0.00
  31   1     0.00  -0.00  -0.00    -0.01  -0.07   0.02     0.00  -0.00  -0.01
                     76                     77                     78
                        a                      a                      a 
 Frequencies --  3044.1796              3052.9293              3057.4448
 Red. masses --     1.8691                 1.8081                 1.4861
 Frc consts  --     0.0000                 0.0000                 0.0000
 IR Inten    --    50.0458                29.6934                21.3962
 Raman Activ --     0.0000                 0.0000                 0.0000
 Depolar     --     0.0000                 0.0000                 0.0000
 Atom AN      X      Y      Z        X      Y      Z        X      Y      Z
   1   6    -0.27  -0.08  -0.03    -0.10   0.09   0.24    -0.00  -0.21  -0.03
   2   6    -0.01  -0.01  -0.00     0.00   0.01   0.01    -0.00  -0.02  -0.00
   3   1     0.01   0.04   0.01    -0.01  -0.03  -0.01     0.01   0.04   0.01
   4   6     0.00   0.00  -0.00     0.00   0.00   0.00    -0.00  -0.00  -0.00
   5   6    -0.00   0.00   0.00     0.00  -0.00   0.00    -0.01   0.01   0.00
   6   6    -0.00  -0.00  -0.00    -0.00   0.00   0.00    -0.00  -0.00  -0.00
   7   6     0.00   0.00   0.00    -0.00  -0.00  -0.00    -0.00   0.00   0.00
   8   6     0.00  -0.00  -0.00    -0.00   0.00   0.00    -0.00   0.00   0.00
   9   6     0.00   0.00   0.00    -0.00  -0.00  -0.00     0.00   0.00   0.00
  10   9    -0.00   0.00   0.00     0.00  -0.00  -0.00     0.00  -0.00  -0.00
  11   6     0.00   0.00   0.00    -0.00   0.00  -0.00    -0.00   0.00  -0.00
  12   6     0.00   0.00  -0.00    -0.00  -0.00   0.00    -0.00  -0.00   0.00
  13   6    -0.00   0.00  -0.00    -0.00  -0.00   0.00    -0.00   0.00  -0.00
  14   6    -0.00   0.00  -0.00    -0.00   0.00  -0.00    -0.00   0.00  -0.00
  15   6    -0.00  -0.00   0.00     0.00   0.00  -0.00    -0.00  -0.00   0.00
  16   6     0.00  -0.00   0.00    -0.00   0.00  -0.00    -0.00   0.00  -0.00
  17   6    -0.00  -0.00  -0.00     0.00   0.00  -0.00     0.00  -0.00  -0.00
  18   8     0.00  -0.00  -0.00     0.00  -0.00  -0.00    -0.00   0.00   0.00
  19   8    -0.00   0.00   0.00     0.00  -0.00  -0.00     0.00  -0.00  -0.00
  20   1    -0.01   0.18   0.08    -0.05  -0.21  -0.06     0.14   0.84   0.35
  21   1     0.04  -0.03  -0.12     0.49  -0.09  -0.79     0.11  -0.05  -0.19
  22   1     0.91   0.12   0.17    -0.10   0.00   0.02    -0.24  -0.06  -0.05
  23   1     0.01  -0.01  -0.00    -0.00   0.00   0.00     0.02  -0.03  -0.01
  24   1     0.00   0.00   0.00    -0.00  -0.00  -0.00     0.00   0.01   0.00
  25   1    -0.00  -0.00  -0.00     0.00   0.00   0.00    -0.00  -0.00  -0.00
  26   1    -0.00  -0.00   0.00     0.00   0.00  -0.00     0.00   0.00  -0.00
  27   1     0.00  -0.00   0.00     0.00  -0.00   0.00     0.00  -0.00   0.00
  28   1     0.00   0.00   0.00     0.00   0.00   0.00     0.00   0.00   0.00
  29   1     0.00   0.00  -0.00    -0.00  -0.00   0.00     0.00   0.00  -0.00
  30   1    -0.00   0.00  -0.00     0.00  -0.00   0.00     0.00  -0.00   0.00
  31   1     0.00  -0.00  -0.00    -0.00   0.00   0.00    -0.00   0.00   0.00
                     79                     80                     81
                        a                      a                      a 
 Frequencies --  3076.1775              3077.5756              3084.7276
 Red. masses --     1.7436                 1.7784                 1.8314
 Frc consts  --     0.0000                 0.0000                 0.0000
 IR Inten    --     6.1723                 1.9831                87.6571
 Raman Activ --     0.0000                 0.0000                 0.0000
 Depolar     --     0.0000                 0.0000                 0.0000
 Atom AN      X      Y      Z        X      Y      Z        X      Y      Z
   1   6    -0.00  -0.00   0.00     0.00  -0.00  -0.00    -0.00  -0.00   0.00
   2   6     0.00   0.00   0.00     0.00   0.00  -0.00     0.00   0.00   0.00
   3   1    -0.00  -0.00  -0.00     0.00  -0.00  -0.00    -0.00  -0.00  -0.00
   4   6     0.00  -0.00  -0.00     0.00   0.00   0.00     0.00  -0.00   0.00
   5   6     0.00  -0.00  -0.00     0.00  -0.00  -0.00     0.00  -0.00  -0.00
   6   6     0.00   0.00   0.00     0.00   0.01   0.00     0.00   0.01   0.00
   7   6     0.00  -0.00   0.00     0.00   0.00  -0.00    -0.00  -0.00  -0.00
   8   6    -0.00  -0.00  -0.00     0.00  -0.00  -0.00    -0.00  -0.00  -0.00
   9   6     0.00   0.00   0.00    -0.00  -0.00  -0.00     0.00   0.00   0.00
  10   9     0.00  -0.00   0.00    -0.00   0.00  -0.00     0.00  -0.00   0.00
  11   6     0.01   0.00   0.00     0.00  -0.00   0.00     0.01   0.00   0.00
  12   6     0.05   0.08  -0.03    -0.05  -0.09   0.03     0.07   0.13  -0.05
  13   6     0.09  -0.13   0.07    -0.05   0.07  -0.04    -0.00   0.01  -0.00
  14   6    -0.13  -0.01  -0.02    -0.04   0.00  -0.01     0.16   0.01   0.02
  15   6     0.04   0.08  -0.03     0.08   0.14  -0.05     0.01   0.02  -0.01
  16   6     0.02  -0.02   0.01     0.07  -0.10   0.06     0.07  -0.11   0.06
  17   6    -0.00  -0.00   0.00    -0.00   0.00   0.00     0.00  -0.00  -0.00
  18   8     0.00   0.00  -0.00     0.00  -0.00  -0.00    -0.00   0.00   0.00
  19   8     0.00   0.00  -0.00     0.00  -0.00   0.00     0.00  -0.00  -0.00
  20   1     0.00   0.00   0.00     0.00   0.00   0.00     0.00   0.00   0.00
  21   1     0.00  -0.00  -0.00    -0.00   0.00   0.00     0.00  -0.00  -0.00
  22   1    -0.00  -0.00  -0.00     0.00   0.00   0.00    -0.00  -0.00  -0.00
  23   1    -0.00   0.00   0.00    -0.01   0.01   0.00    -0.01   0.01   0.00
  24   1    -0.00  -0.00  -0.00    -0.01  -0.02  -0.01    -0.01  -0.02  -0.01
  25   1    -0.00  -0.00  -0.00     0.00   0.00   0.00    -0.00  -0.00  -0.00
  26   1    -0.18  -0.31   0.11     0.19   0.32  -0.11    -0.27  -0.46   0.16
  27   1    -0.32   0.49  -0.26     0.17  -0.26   0.14     0.02  -0.02   0.01
  28   1     0.49   0.03   0.06     0.17   0.01   0.02    -0.57  -0.04  -0.07
  29   1    -0.17  -0.29   0.10    -0.31  -0.52   0.18    -0.03  -0.05   0.02
  30   1    -0.07   0.10  -0.05    -0.25   0.37  -0.20    -0.26   0.40  -0.22
  31   1    -0.00  -0.00   0.00    -0.00   0.00   0.00    -0.00   0.00   0.00
                     82                     83                     84
                        a                      a                      a 
 Frequencies --  3088.9418              3095.8341              3098.1415
 Red. masses --     1.8807                 1.7862                 1.9229
 Frc consts  --     0.0000                 0.0000                 0.0000
 IR Inten    --   215.8655                 5.7670                84.9484
 Raman Activ --     0.0000                 0.0000                 0.0000
 Depolar     --     0.0000                 0.0000                 0.0000
 Atom AN      X      Y      Z        X      Y      Z        X      Y      Z
   1   6     0.00   0.00   0.00     0.00   0.01   0.00     0.00   0.00   0.00
   2   6    -0.00  -0.00   0.00     0.00   0.00   0.00    -0.00   0.00   0.00
   3   1    -0.00  -0.00  -0.00    -0.00  -0.00  -0.00    -0.00  -0.00  -0.00
   4   6    -0.00  -0.00  -0.00    -0.01   0.00   0.00    -0.00   0.00   0.00
   5   6    -0.00   0.01   0.00    -0.12   0.16   0.06    -0.01   0.02   0.01
   6   6    -0.01  -0.01  -0.00    -0.07  -0.13  -0.06    -0.00   0.00  -0.00
   7   6    -0.00   0.00  -0.00    -0.00  -0.00  -0.00     0.00  -0.00  -0.00
   8   6    -0.00   0.00  -0.00     0.00   0.00   0.00    -0.00   0.00   0.00
   9   6     0.00   0.00   0.00     0.00   0.01   0.00    -0.00  -0.00  -0.00
  10   9     0.00  -0.00   0.00     0.00  -0.00  -0.00     0.00  -0.00   0.00
  11   6    -0.00  -0.00   0.00    -0.00   0.00   0.00     0.01   0.00   0.00
  12   6     0.07   0.12  -0.04    -0.00  -0.01   0.00     0.04   0.07  -0.03
  13   6    -0.07   0.10  -0.06     0.01  -0.01   0.01    -0.06   0.10  -0.05
  14   6    -0.01  -0.00  -0.00     0.01   0.00   0.00    -0.17  -0.01  -0.02
  15   6     0.06   0.11  -0.04     0.00   0.01  -0.00    -0.07  -0.12   0.04
  16   6    -0.08   0.12  -0.06     0.00  -0.01   0.00     0.05  -0.07   0.04
  17   6     0.00  -0.00  -0.00     0.00  -0.00  -0.00     0.00  -0.00  -0.00
  18   8    -0.00   0.00   0.00    -0.00  -0.00   0.00    -0.00   0.00   0.00
  19   8     0.00   0.00   0.00    -0.00   0.00   0.00    -0.00  -0.00   0.00
  20   1    -0.00  -0.00  -0.00    -0.00  -0.03  -0.01    -0.00  -0.00  -0.00
  21   1     0.00   0.00  -0.00    -0.00   0.00   0.01     0.00   0.00   0.00
  22   1    -0.00   0.00  -0.00    -0.00   0.00   0.00    -0.00  -0.00  -0.00
  23   1     0.02  -0.02  -0.01     0.43  -0.59  -0.21     0.04  -0.05  -0.02
  24   1     0.02   0.03   0.02     0.25   0.48   0.23     0.00   0.00   0.00
  25   1    -0.00  -0.00  -0.00    -0.01  -0.02  -0.01     0.00   0.00   0.00
  26   1    -0.23  -0.40   0.14     0.02   0.03  -0.01    -0.14  -0.25   0.09
  27   1     0.23  -0.35   0.19    -0.02   0.03  -0.02     0.22  -0.33   0.18
  28   1     0.05   0.00   0.01    -0.04  -0.00  -0.01     0.56   0.04   0.07
  29   1    -0.21  -0.36   0.13    -0.01  -0.02   0.01     0.22   0.38  -0.13
  30   1     0.27  -0.40   0.22    -0.02   0.03  -0.01    -0.17   0.25  -0.14
  31   1     0.00  -0.00  -0.00     0.00  -0.00  -0.00     0.00  -0.00  -0.00
                     85                     86                     87
                        a                      a                      a 
 Frequencies --  3106.3144              3108.0038              3329.3539
 Red. masses --     1.8779                 1.8440                 1.8503
 Frc consts  --     0.0000                 0.0000                 0.0000
 IR Inten    --    49.4106                 9.3953               189.6645
 Raman Activ --     0.0000                 0.0000                 0.0000
 Depolar     --     0.0000                 0.0000                 0.0000
 Atom AN      X      Y      Z        X      Y      Z        X      Y      Z
   1   6     0.00   0.00   0.00    -0.00   0.00   0.00    -0.00   0.00  -0.00
   2   6     0.00   0.00   0.00     0.00   0.00   0.00    -0.00  -0.00   0.00
   3   1    -0.00  -0.00  -0.00    -0.00  -0.01  -0.00     0.00   0.01   0.00
   4   6    -0.00  -0.00  -0.00     0.01   0.00   0.00     0.00  -0.00   0.00
   5   6    -0.10   0.13   0.05     0.03  -0.04  -0.01    -0.00   0.00   0.00
   6   6     0.09   0.18   0.08    -0.02  -0.04  -0.02     0.00   0.00   0.00
   7   6     0.01  -0.00   0.00    -0.00  -0.00  -0.00     0.00   0.00   0.00
   8   6    -0.00   0.00  -0.00    -0.01   0.01   0.00     0.00  -0.00  -0.00
   9   6     0.03   0.06   0.03     0.11   0.22   0.10    -0.00  -0.00  -0.00
  10   9     0.00   0.00   0.00     0.00  -0.00  -0.00    -0.00   0.00   0.00
  11   6    -0.00   0.00  -0.00     0.00   0.00   0.00    -0.00   0.00   0.00
  12   6    -0.00  -0.00   0.00     0.00   0.00  -0.00    -0.00  -0.00  -0.00
  13   6     0.00  -0.00   0.00    -0.00   0.00  -0.00    -0.00   0.00  -0.00
  14   6     0.00   0.00   0.00    -0.00  -0.00  -0.00    -0.00   0.00  -0.00
  15   6     0.00   0.00  -0.00    -0.00  -0.00   0.00    -0.00  -0.00  -0.00
  16   6    -0.01   0.01  -0.00     0.00  -0.00   0.00    -0.00   0.00  -0.00
  17   6     0.00   0.00   0.00     0.00   0.00  -0.00     0.00   0.01  -0.01
  18   8    -0.00  -0.00  -0.00    -0.00   0.00   0.00     0.00  -0.00  -0.00
  19   8     0.00   0.00   0.00     0.00  -0.00  -0.00     0.09  -0.04  -0.22
  20   1    -0.00  -0.02  -0.01     0.00   0.00   0.00    -0.00  -0.00  -0.00
  21   1    -0.00   0.00   0.00     0.00  -0.00  -0.00    -0.00   0.00   0.00
  22   1    -0.00   0.00   0.00    -0.00  -0.00  -0.00     0.00   0.00   0.00
  23   1     0.32  -0.44  -0.15    -0.09   0.13   0.05     0.00  -0.00  -0.00
  24   1    -0.31  -0.61  -0.29     0.07   0.14   0.07     0.00   0.00   0.00
  25   1    -0.10  -0.20  -0.09    -0.37  -0.78  -0.35     0.00   0.00   0.00
  26   1     0.00   0.01  -0.00    -0.00  -0.00   0.00     0.00   0.00  -0.00
  27   1    -0.01   0.01  -0.01     0.00  -0.01   0.00     0.00  -0.00   0.00
  28   1    -0.02  -0.00  -0.00     0.01   0.00   0.00     0.00   0.00   0.00
  29   1    -0.01  -0.01   0.00     0.00   0.01  -0.00     0.00   0.00  -0.00
  30   1     0.02  -0.03   0.02    -0.01   0.01  -0.00     0.00  -0.00   0.00
  31   1     0.00  -0.00  -0.00    -0.00   0.00   0.00    -0.37   0.12   0.89
