      -----------------------------------------------------------      
     |                   =====================                   |     
     |                           x T B                           |     
     |                   =====================                   |     
     |                         S. Grimme                         |     
     |          Mulliken Center for Theoretical Chemistry        |     
     |                    University of Bonn                     |     
      -----------------------------------------------------------      

   * xtb version 6.7.1 (edcfbbe) compiled by 'albert@albert-system' on 2024-07-22

   xtb is free software: you can redistribute it and/or modify it under
   the terms of the GNU Lesser General Public License as published by
   the Free Software Foundation, either version 3 of the License, or
   (at your option) any later version.
   
   xtb is distributed in the hope that it will be useful,
   but WITHOUT ANY WARRANTY; without even the implied warranty of
   MERCHANTABILITY or FITNESS FOR A PARTICULAR PURPOSE.  See the
   GNU Lesser General Public License for more details.
   
   Cite this work as:
   * C. Bannwarth, E. Caldeweyher, S. Ehlert, A. Hansen, P. Pracht,
     J. Seibert, S. Spicher, S. Grimme, WIREs Comput. Mol. Sci., 2020, 11,
     e01493. DOI: 10.1002/wcms.1493
   
   for GFN2-xTB:
   * C. Bannwarth, S. Ehlert and S. Grimme., J. Chem. Theory Comput., 2019,
     15, 1652-1671. DOI: 10.1021/acs.jctc.8b01176
   for GFN1-xTB:
   * S. Grimme, C. Bannwarth, P. Shushkov, J. Chem. Theory Comput., 2017,
     13, 1989-2009. DOI: 10.1021/acs.jctc.7b00118
   for GFN0-xTB:
   * P. Pracht, E. Caldeweyher, S. Ehlert, S. Grimme, ChemRxiv, 2019, preprint.
     DOI: 10.26434/chemrxiv.8326202.v1
   for GFN-FF:
   * S. Spicher and S. Grimme, Angew. Chem. Int. Ed., 2020, 59, 15665-15673.
     DOI: 10.1002/anie.202004239
   
   for ALPB and GBSA implicit solvation:
   * S. Ehlert, M. Stahn, S. Spicher, S. Grimme, J. Chem. Theory Comput.,
     2021, 17, 4250-4261. DOI: 10.1021/acs.jctc.1c00471
   
   for ddCOSMO and CPCM-X implicit solvation:
   * M. Stahn, S. Ehlert, S. Grimme, J. Phys. Chem. A,
     2023, XX, XXXX-XXXX. DOI: 10.1021/acs.jpca.3c04382
   
   for DFT-D4:
   * E. Caldeweyher, C. Bannwarth and S. Grimme, J. Chem. Phys., 2017,
     147, 034112. DOI: 10.1063/1.4993215
   * E. Caldeweyher, S. Ehlert, A. Hansen, H. Neugebauer, S. Spicher,
     C. Bannwarth and S. Grimme, J. Chem. Phys., 2019, 150, 154122.
     DOI: 10.1063/1.5090222
   * E. Caldeweyher, J.-M. Mewes, S. Ehlert and S. Grimme, Phys. Chem. Chem. Phys.
     2020, 22, 8499-8512. DOI: 10.1039/D0CP00502A
   
   for sTDA-xTB:
   * S. Grimme and C. Bannwarth, J. Chem. Phys., 2016, 145, 054103.
     DOI: 10.1063/1.4959605
   
   in the mass-spec context:
   * V. Asgeirsson, C. Bauer and S. Grimme, Chem. Sci., 2017, 8, 4879.
     DOI: 10.1039/c7sc00601b
   * J. Koopman and S. Grimme, ACS Omega 2019, 4, 12, 15120-15133.
     DOI: 10.1021/acsomega.9b02011
   
   for metadynamics refer to:
   * S. Grimme, J. Chem. Theory Comput., 2019, 155, 2847-2862
     DOI: 10.1021/acs.jctc.9b00143
   
   for SPH calculations refer to:
   * S. Spicher and S. Grimme, J. Chem. Theory Comput., 2021, 17, 1701-1714
     DOI: 10.1021/acs.jctc.0c01306
   
   for ONIOM refer to:
   * C. Plett, A. Katbashev, S. Ehlert, S. Grimme, M. Bursch,
     Phys. Chem. Chem. Phys., 2023, 25, 17860-17868. DOI: 10.1039/D3CP02178E
   
   for DIPRO refer to:
   * J. Kohn, N. Gildemeister, S. Grimme, D. Fazzi, A. Hansen,
     J. Chem. Phys., 2023, just accepted.
   
   for PTB refer to:
   * S. Grimme, M. Mueller, A. Hansen, J. Chem. Phys., 2023, 158, 124111.
     DOI: 10.1063/5.0137838
   
   with help from (in alphabetical order)
   P. Atkinson, C. Bannwarth, F. Bohle, G. Brandenburg, E. Caldeweyher
   M. Checinski, S. Dohm, S. Ehlert, S. Ehrlich, I. Gerasimov, C. Hölzer
   A. Katbashev, J. Kohn, J. Koopman, C. Lavigne, S. Lehtola, F. März, M. Müller,
   F. Musil, H. Neugebauer, J. Pisarek, C. Plett, P. Pracht, F. Pultar,
   J. Seibert, P. Shushkov, S. Spicher, M. Stahn, M. Steiner, T. Strunk,
   J. Stückrath, T. Rose, and J. Unsleber
   
 * started run on 2025/04/11 at 12:29:38.320     
   ID    Z sym.   atoms
    1    6 C      1-4
    2    7 N      5
    3    1 H      6-16

           -------------------------------------------------
          |                Calculation Setup                |
           -------------------------------------------------

          program call               : /srv/scratch/z5358697/.xtb/bin/xtb solv.coord --gfn2 --sp --chrg 0 --norestart --parallel 1 --alpb water reference -I xtb_sp-xcontrol-inp
          hostname                   : k077
          coordinate file            : solv.coord
          omp threads                :                     1


           -------------------------------------------------
          |                 G F N 2 - x T B                 |
           -------------------------------------------------

        Reference                      10.1021/acs.jctc.8b01176
      * Hamiltonian:
        H0-scaling (s, p, d)           1.850000    2.230000    2.230000
        zeta-weighting                 0.500000
      * Dispersion:
        s8                             2.700000
        a1                             0.520000
        a2                             5.000000
        s9                             5.000000
      * Repulsion:
        kExp                           1.500000    1.000000
        rExp                           1.000000
      * Coulomb:
        alpha                          2.000000
        third order                    shell-resolved
        anisotropic                    true
        a3                             3.000000
        a5                             4.000000
        cn-shift                       1.200000
        cn-exp                         4.000000
        max-rad                        5.000000

      * Solvation model:               ALPB
        Solvent                        water
        Parameter file                 internal GFN2-xTB/ALPB
        Dielectric constant                8.0200E+01
        Reference state                gsolv=reference [X=1]
        Free energy shift                  2.8945E-03 Eh       1.8164E+00 kcal/mol
        Temperature                        2.9815E+02 K
        Density                            1.0000E+00 kg/L
        Solvent mass                       1.8000E+01 g/mol
        Interaction kernel             P16
        Born radius scaling (c1)           1.4744E+00
        Born radii integrator          GBOBC
        Born offset                        0.0000E+00 a0       0.0000E+00 AA
        H-bond correction              true
        Ion screening                  false
        Surface tension                    1.0000E-05 Eh       1.5569E+01 dyn/cm
        Grid points                               974 per atom

          ...................................................
          :                      SETUP                      :
          :.................................................:
          :  # basis functions                  31          :
          :  # atomic orbitals                  31          :
          :  # shells                           21          :
          :  # electrons                        32          :
          :  max. iterations                   250          :
          :  Hamiltonian                  GFN2-xTB          :
          :  restarted?                      false          :
          :  GBSA solvation                   true          :
          :  PC potential                    false          :
          :  electronic temp.          300.0000000     K    :
          :  accuracy                    1.0000000          :
          :  -> integral cutoff          0.2500000E+02      :
          :  -> integral neglect         0.1000000E-07      :
          :  -> SCF convergence          0.1000000E-05 Eh   :
          :  -> wf. convergence          0.1000000E-03 e    :
          :  Broyden damping             0.4000000          :
          :  net charge                          0          :
          :  unpaired electrons                  0          :
          ...................................................

 iter      E             dE          RMSdq      gap      omega  full diag
   1    -17.3001861 -0.173002E+02  0.250E+00   11.28       0.0  T
   2    -17.3183821 -0.181960E-01  0.136E+00   11.34       1.0  T
   3    -17.3193082 -0.926156E-03  0.515E-01   11.36       1.0  T
   4    -17.3193982 -0.899536E-04  0.874E-02   11.32       1.0  T
   5    -17.3194066 -0.843319E-05  0.380E-02   11.30       1.0  T
   6    -17.3194075 -0.881873E-06  0.140E-02   11.30       1.8  T
   7    -17.3194077 -0.168798E-06  0.243E-03   11.31      10.3  T
   8    -17.3194077 -0.548775E-08  0.130E-03   11.31      19.2  T
   9    -17.3194077 -0.215895E-08  0.194E-04   11.31     128.7  T
  10    -17.3194077 -0.492477E-10  0.909E-05   11.31     275.0  T

   *** convergence criteria satisfied after 10 iterations ***

         #    Occupation            Energy/Eh            Energy/eV
      -------------------------------------------------------------
         1        2.0000           -0.6272552             -17.0685
       ...           ...                  ...                  ...
        10        2.0000           -0.4782355             -13.0135
        11        2.0000           -0.4581016             -12.4656
        12        2.0000           -0.4514739             -12.2852
        13        2.0000           -0.4299700             -11.7001
        14        2.0000           -0.4256512             -11.5826
        15        2.0000           -0.4228604             -11.5066
        16        2.0000           -0.3627431              -9.8707 (HOMO)
        17                          0.0527398               1.4351 (LUMO)
        18                          0.0919260               2.5014
        19                          0.1098878               2.9902
        20                          0.1215984               3.3089
        21                          0.1352887               3.6814
       ...                                ...                  ...
        31                          0.3111917               8.4680
      -------------------------------------------------------------
                  HL-Gap            0.4154829 Eh           11.3059 eV
             Fermi-level           -0.1550016 Eh           -4.2178 eV

 SCC (total)                   0 d,  0 h,  0 min,  0.010 sec
 SCC setup                      ...        0 min,  0.001 sec (  9.994%)
 Dispersion                     ...        0 min,  0.000 sec (  0.762%)
 classical contributions        ...        0 min,  0.000 sec (  0.197%)
 integral evaluation            ...        0 min,  0.001 sec (  9.655%)
 iterations                     ...        0 min,  0.005 sec ( 49.014%)
 molecular gradient             ...        0 min,  0.003 sec ( 28.787%)
 printout                       ...        0 min,  0.000 sec (  1.446%)

         :::::::::::::::::::::::::::::::::::::::::::::::::::::
         ::                     SUMMARY                     ::
         :::::::::::::::::::::::::::::::::::::::::::::::::::::
         :: total energy             -17.081550006072 Eh    ::
         :: total w/o Gsasa/hb       -17.080512132766 Eh    ::
         :: gradient norm              0.000117538284 Eh/a0 ::
         :: HOMO-LUMO gap             11.305866253319 eV    ::
         ::.................................................::
         :: SCC energy               -17.319389997451 Eh    ::
         :: -> isotropic ES            0.016409172663 Eh    ::
         :: -> anisotropic ES          0.006286311813 Eh    ::
         :: -> anisotropic XC          0.013237475814 Eh    ::
         :: -> dispersion             -0.008154288001 Eh    ::
         :: -> Gsolv                  -0.002313310154 Eh    ::
         ::    -> Gelec               -0.001275436848 Eh    ::
         ::    -> Gsasa               -0.001810881851 Eh    ::
         ::    -> Ghb                 -0.002121540616 Eh    ::
         ::    -> Gshift               0.002894549160 Eh    ::
         :: repulsion energy           0.237839991379 Eh    ::
         :: add. restraining           0.000000000000 Eh    ::
         :: total charge               0.000000000000 e     ::
         :::::::::::::::::::::::::::::::::::::::::::::::::::::

           -------------------------------------------------
          |                Property Printout                |
           -------------------------------------------------

    * Orbital Energies and Occupations

         #    Occupation            Energy/Eh            Energy/eV
      -------------------------------------------------------------
         1        2.0000           -0.6272552             -17.0685
       ...           ...                  ...                  ...
         4        2.0000           -0.5708348             -15.5332
         5        2.0000           -0.5448876             -14.8271
         6        2.0000           -0.5239555             -14.2576
         7        2.0000           -0.5182891             -14.1034
         8        2.0000           -0.4938547             -13.4385
         9        2.0000           -0.4890016             -13.3064
        10        2.0000           -0.4782355             -13.0135
        11        2.0000           -0.4581016             -12.4656
        12        2.0000           -0.4514739             -12.2852
        13        2.0000           -0.4299700             -11.7001
        14        2.0000           -0.4256512             -11.5826
        15        2.0000           -0.4228604             -11.5066
        16        2.0000           -0.3627431              -9.8707 (HOMO)
        17                          0.0527398               1.4351 (LUMO)
        18                          0.0919260               2.5014
        19                          0.1098878               2.9902
        20                          0.1215984               3.3089
        21                          0.1352887               3.6814
        22                          0.1375974               3.7442
        23                          0.1504654               4.0944
        24                          0.1877567               5.1091
        25                          0.1943085               5.2874
        26                          0.2197384               5.9794
        27                          0.2409500               6.5566
       ...                                ...                  ...
        31                          0.3111917               8.4680
      -------------------------------------------------------------
                  HL-Gap            0.4154829 Eh           11.3059 eV
             Fermi-level           -0.1550016 Eh           -4.2178 eV

     #   Z          covCN         q      C6AA      α(0)
     1   6 C        3.751    -0.109    22.650     6.787
     2   6 C        3.799    -0.056    21.590     6.616
     3   6 C        3.802    -0.072    21.871     6.658
     4   6 C        3.730     0.023    20.288     6.430
     5   7 N        2.629    -0.391    30.126     8.152
     6   1 H        0.925     0.037     2.491     2.468
     7   1 H        0.925     0.034     2.535     2.490
     8   1 H        0.925     0.037     2.491     2.468
     9   1 H        0.924     0.032     2.559     2.502
    10   1 H        0.924     0.034     2.534     2.490
    11   1 H        0.924     0.047     2.352     2.398
    12   1 H        0.924     0.037     2.489     2.467
    13   1 H        0.923     0.003     3.006     2.711
    14   1 H        0.924     0.029     2.603     2.523
    15   1 H        0.860     0.156     1.363     1.829
    16   1 H        0.860     0.161     1.330     1.807

 Mol. C6AA /au·bohr⁶  :       1658.945498
 Mol. C8AA /au·bohr⁸  :      33711.014086
 Mol. α(0) /au        :         60.795612


Wiberg/Mayer (AO) data.
largest (>0.10) Wiberg bond orders for each atom

 ---------------------------------------------------------------------------
     #   Z sym  total        # sym  WBO       # sym  WBO       # sym  WBO
 ---------------------------------------------------------------------------
     1   6 C    3.997 --     2 C    1.020     8 H    0.987     6 H    0.987
                             7 H    0.985
     2   6 C    3.998 --     1 C    1.020     3 C    1.008    10 H    0.978
                             9 H    0.975
     3   6 C    3.996 --     2 C    1.008     4 C    1.005    12 H    0.976
                            11 H    0.976
     4   6 C    3.987 --     5 N    1.022     3 C    1.005    14 H    0.976
                            13 H    0.967
     5   7 N    2.985 --     4 C    1.022    16 H    0.961    15 H    0.960
     6   1 H    0.999 --     1 C    0.987
     7   1 H    0.999 --     1 C    0.985
     8   1 H    0.999 --     1 C    0.987
     9   1 H    0.999 --     2 C    0.975
    10   1 H    0.999 --     2 C    0.978
    11   1 H    0.998 --     3 C    0.976
    12   1 H    0.999 --     3 C    0.976
    13   1 H    1.000 --     4 C    0.967
    14   1 H    0.999 --     4 C    0.976
    15   1 H    0.976 --     5 N    0.960
    16   1 H    0.974 --     5 N    0.961
 ---------------------------------------------------------------------------

Topologies differ in total number of bonds
Writing topology from bond orders to xtbtopo.mol

molecular dipole:
                 x           y           z       tot (Debye)
 q only:        0.135      -0.157      -0.016
   full:        0.248      -0.501      -0.110       1.448
molecular quadrupole (traceless):
                xx          xy          yy          xz          yz          zz
 q only:       -0.540       1.611       0.448       0.469      -0.672       0.092
  q+dip:       -1.981       3.496       1.671       1.553      -1.213       0.310
   full:       -1.732       3.601       1.369       1.498      -1.277       0.363


           -------------------------------------------------
          | TOTAL ENERGY              -17.081550006072 Eh   |
          | GRADIENT NORM               0.000117538284 Eh/α |
          | HOMO-LUMO GAP              11.305866253319 eV   |
           -------------------------------------------------

------------------------------------------------------------------------
 * finished run on 2025/04/11 at 12:29:38.385     
------------------------------------------------------------------------
 total:
 * wall-time:     0 d,  0 h,  0 min,  0.065 sec
 *  cpu-time:     0 d,  0 h,  0 min,  0.017 sec
 * ratio c/w:     0.265 speedup
 SCF:
 * wall-time:     0 d,  0 h,  0 min,  0.010 sec
 *  cpu-time:     0 d,  0 h,  0 min,  0.010 sec
 * ratio c/w:     0.988 speedup

