      -----------------------------------------------------------      
     |                   =====================                   |     
     |                           x T B                           |     
     |                   =====================                   |     
     |                         S. Grimme                         |     
     |          Mulliken Center for Theoretical Chemistry        |     
     |                    University of Bonn                     |     
      -----------------------------------------------------------      

   * xtb version 6.7.1 (edcfbbe) compiled by 'albert@albert-system' on 2024-07-22

   xtb is free software: you can redistribute it and/or modify it under
   the terms of the GNU Lesser General Public License as published by
   the Free Software Foundation, either version 3 of the License, or
   (at your option) any later version.
   
   xtb is distributed in the hope that it will be useful,
   but WITHOUT ANY WARRANTY; without even the implied warranty of
   MERCHANTABILITY or FITNESS FOR A PARTICULAR PURPOSE.  See the
   GNU Lesser General Public License for more details.
   
   Cite this work as:
   * C. Bannwarth, E. Caldeweyher, S. Ehlert, A. Hansen, P. Pracht,
     J. Seibert, S. Spicher, S. Grimme, WIREs Comput. Mol. Sci., 2020, 11,
     e01493. DOI: 10.1002/wcms.1493
   
   for GFN2-xTB:
   * C. Bannwarth, S. Ehlert and S. Grimme., J. Chem. Theory Comput., 2019,
     15, 1652-1671. DOI: 10.1021/acs.jctc.8b01176
   for GFN1-xTB:
   * S. Grimme, C. Bannwarth, P. Shushkov, J. Chem. Theory Comput., 2017,
     13, 1989-2009. DOI: 10.1021/acs.jctc.7b00118
   for GFN0-xTB:
   * P. Pracht, E. Caldeweyher, S. Ehlert, S. Grimme, ChemRxiv, 2019, preprint.
     DOI: 10.26434/chemrxiv.8326202.v1
   for GFN-FF:
   * S. Spicher and S. Grimme, Angew. Chem. Int. Ed., 2020, 59, 15665-15673.
     DOI: 10.1002/anie.202004239
   
   for ALPB and GBSA implicit solvation:
   * S. Ehlert, M. Stahn, S. Spicher, S. Grimme, J. Chem. Theory Comput.,
     2021, 17, 4250-4261. DOI: 10.1021/acs.jctc.1c00471
   
   for ddCOSMO and CPCM-X implicit solvation:
   * M. Stahn, S. Ehlert, S. Grimme, J. Phys. Chem. A,
     2023, XX, XXXX-XXXX. DOI: 10.1021/acs.jpca.3c04382
   
   for DFT-D4:
   * E. Caldeweyher, C. Bannwarth and S. Grimme, J. Chem. Phys., 2017,
     147, 034112. DOI: 10.1063/1.4993215
   * E. Caldeweyher, S. Ehlert, A. Hansen, H. Neugebauer, S. Spicher,
     C. Bannwarth and S. Grimme, J. Chem. Phys., 2019, 150, 154122.
     DOI: 10.1063/1.5090222
   * E. Caldeweyher, J.-M. Mewes, S. Ehlert and S. Grimme, Phys. Chem. Chem. Phys.
     2020, 22, 8499-8512. DOI: 10.1039/D0CP00502A
   
   for sTDA-xTB:
   * S. Grimme and C. Bannwarth, J. Chem. Phys., 2016, 145, 054103.
     DOI: 10.1063/1.4959605
   
   in the mass-spec context:
   * V. Asgeirsson, C. Bauer and S. Grimme, Chem. Sci., 2017, 8, 4879.
     DOI: 10.1039/c7sc00601b
   * J. Koopman and S. Grimme, ACS Omega 2019, 4, 12, 15120-15133.
     DOI: 10.1021/acsomega.9b02011
   
   for metadynamics refer to:
   * S. Grimme, J. Chem. Theory Comput., 2019, 155, 2847-2862
     DOI: 10.1021/acs.jctc.9b00143
   
   for SPH calculations refer to:
   * S. Spicher and S. Grimme, J. Chem. Theory Comput., 2021, 17, 1701-1714
     DOI: 10.1021/acs.jctc.0c01306
   
   for ONIOM refer to:
   * C. Plett, A. Katbashev, S. Ehlert, S. Grimme, M. Bursch,
     Phys. Chem. Chem. Phys., 2023, 25, 17860-17868. DOI: 10.1039/D3CP02178E
   
   for DIPRO refer to:
   * J. Kohn, N. Gildemeister, S. Grimme, D. Fazzi, A. Hansen,
     J. Chem. Phys., 2023, just accepted.
   
   for PTB refer to:
   * S. Grimme, M. Mueller, A. Hansen, J. Chem. Phys., 2023, 158, 124111.
     DOI: 10.1063/5.0137838
   
   with help from (in alphabetical order)
   P. Atkinson, C. Bannwarth, F. Bohle, G. Brandenburg, E. Caldeweyher
   M. Checinski, S. Dohm, S. Ehlert, S. Ehrlich, I. Gerasimov, C. Hölzer
   A. Katbashev, J. Kohn, J. Koopman, C. Lavigne, S. Lehtola, F. März, M. Müller,
   F. Musil, H. Neugebauer, J. Pisarek, C. Plett, P. Pracht, F. Pultar,
   J. Seibert, P. Shushkov, S. Spicher, M. Stahn, M. Steiner, T. Strunk,
   J. Stückrath, T. Rose, and J. Unsleber
   
 * started run on 2025/04/11 at 15:59:02.040     
   ID    Z sym.   atoms
    1    6 C      1-5, 8
    2    8 O      6, 7
    3    1 H      9-20

           -------------------------------------------------
          |                Calculation Setup                |
           -------------------------------------------------

          program call               : /srv/scratch/z5358697/.xtb/bin/xtb gas.coord --gfn2 --sp --chrg 0 --norestart --parallel 1
          hostname                   : k068
          coordinate file            : gas.coord
          omp threads                :                     1


           -------------------------------------------------
          |                 G F N 2 - x T B                 |
           -------------------------------------------------

        Reference                      10.1021/acs.jctc.8b01176
      * Hamiltonian:
        H0-scaling (s, p, d)           1.850000    2.230000    2.230000
        zeta-weighting                 0.500000
      * Dispersion:
        s8                             2.700000
        a1                             0.520000
        a2                             5.000000
        s9                             5.000000
      * Repulsion:
        kExp                           1.500000    1.000000
        rExp                           1.000000
      * Coulomb:
        alpha                          2.000000
        third order                    shell-resolved
        anisotropic                    true
        a3                             3.000000
        a5                             4.000000
        cn-shift                       1.200000
        cn-exp                         4.000000
        max-rad                        5.000000


          ...................................................
          :                      SETUP                      :
          :.................................................:
          :  # basis functions                  44          :
          :  # atomic orbitals                  44          :
          :  # shells                           28          :
          :  # electrons                        48          :
          :  max. iterations                   250          :
          :  Hamiltonian                  GFN2-xTB          :
          :  restarted?                      false          :
          :  GBSA solvation                  false          :
          :  PC potential                    false          :
          :  electronic temp.          300.0000000     K    :
          :  accuracy                    1.0000000          :
          :  -> integral cutoff          0.2500000E+02      :
          :  -> integral neglect         0.1000000E-07      :
          :  -> SCF convergence          0.1000000E-05 Eh   :
          :  -> wf. convergence          0.1000000E-03 e    :
          :  Broyden damping             0.4000000          :
          :  net charge                          0          :
          :  unpaired electrons                  0          :
          ...................................................

 iter      E             dE          RMSdq      gap      omega  full diag
   1    -27.3525849 -0.273526E+02  0.391E+00    5.93       0.0  T
   2    -27.4219288 -0.693439E-01  0.204E+00    4.71       1.0  T
   3    -27.4248614 -0.293267E-02  0.113E+00    5.19       1.0  T
   4    -27.4271906 -0.232918E-02  0.183E-01    4.89       1.0  T
   5    -27.4275098 -0.319211E-03  0.742E-02    4.97       1.0  T
   6    -27.4275153 -0.545726E-05  0.205E-02    4.96       1.1  T
   7    -27.4275161 -0.868292E-06  0.723E-03    4.96       3.1  T
   8    -27.4275163 -0.138571E-06  0.178E-03    4.96      12.5  T
   9    -27.4275163 -0.632891E-08  0.896E-04    4.96      24.9  T
  10    -27.4275163 -0.227815E-08  0.226E-04    4.96      99.1  T

   *** convergence criteria satisfied after 10 iterations ***

         #    Occupation            Energy/Eh            Energy/eV
      -------------------------------------------------------------
         1        2.0000           -0.7449774             -20.2719
       ...           ...                  ...                  ...
        18        2.0000           -0.4713154             -12.8251
        19        2.0000           -0.4514243             -12.2839
        20        2.0000           -0.4491529             -12.2221
        21        2.0000           -0.4478980             -12.1879
        22        2.0000           -0.4427834             -12.0487
        23        2.0000           -0.4294268             -11.6853
        24        2.0000           -0.4107608             -11.1774 (HOMO)
        25                         -0.2284334              -6.2160 (LUMO)
        26                          0.0028663               0.0780
        27                          0.0829999               2.2585
        28                          0.1040087               2.8302
        29                          0.1186150               3.2277
       ...                                ...                  ...
        44                          0.6273705              17.0716
      -------------------------------------------------------------
                  HL-Gap            0.1823274 Eh            4.9614 eV
             Fermi-level           -0.3195971 Eh           -8.6967 eV

 SCC (total)                   0 d,  0 h,  0 min,  0.019 sec
 SCC setup                      ...        0 min,  0.000 sec (  0.944%)
 Dispersion                     ...        0 min,  0.000 sec (  0.598%)
 classical contributions        ...        0 min,  0.000 sec (  0.123%)
 integral evaluation            ...        0 min,  0.002 sec (  7.844%)
 iterations                     ...        0 min,  0.012 sec ( 63.596%)
 molecular gradient             ...        0 min,  0.005 sec ( 25.971%)
 printout                       ...        0 min,  0.000 sec (  0.846%)

         :::::::::::::::::::::::::::::::::::::::::::::::::::::
         ::                     SUMMARY                     ::
         :::::::::::::::::::::::::::::::::::::::::::::::::::::
         :: total energy             -27.112198932287 Eh    ::
         :: gradient norm              0.027254614058 Eh/a0 ::
         :: HOMO-LUMO gap              4.961380367272 eV    ::
         ::.................................................::
         :: SCC energy               -27.427541925834 Eh    ::
         :: -> isotropic ES            0.046843761871 Eh    ::
         :: -> anisotropic ES          0.003358227808 Eh    ::
         :: -> anisotropic XC          0.007777537822 Eh    ::
         :: -> dispersion             -0.011271732165 Eh    ::
         :: repulsion energy           0.315342993547 Eh    ::
         :: add. restraining           0.000000000000 Eh    ::
         :: total charge              -0.000000000000 e     ::
         :::::::::::::::::::::::::::::::::::::::::::::::::::::

           -------------------------------------------------
          |                Property Printout                |
           -------------------------------------------------

    * Orbital Energies and Occupations

         #    Occupation            Energy/Eh            Energy/eV
      -------------------------------------------------------------
         1        2.0000           -0.7449774             -20.2719
       ...           ...                  ...                  ...
        12        2.0000           -0.5247333             -14.2787
        13        2.0000           -0.5163751             -14.0513
        14        2.0000           -0.5055268             -13.7561
        15        2.0000           -0.4945334             -13.4569
        16        2.0000           -0.4898736             -13.3301
        17        2.0000           -0.4797442             -13.0545
        18        2.0000           -0.4713154             -12.8251
        19        2.0000           -0.4514243             -12.2839
        20        2.0000           -0.4491529             -12.2221
        21        2.0000           -0.4478980             -12.1879
        22        2.0000           -0.4427834             -12.0487
        23        2.0000           -0.4294268             -11.6853
        24        2.0000           -0.4107608             -11.1774 (HOMO)
        25                         -0.2284334              -6.2160 (LUMO)
        26                          0.0028663               0.0780
        27                          0.0829999               2.2585
        28                          0.1040087               2.8302
        29                          0.1186150               3.2277
        30                          0.1300791               3.5396
        31                          0.1382249               3.7613
        32                          0.1518242               4.1313
        33                          0.1587896               4.3209
        34                          0.1737408               4.7277
        35                          0.1807838               4.9194
       ...                                ...                  ...
        44                          0.6273705              17.0716
      -------------------------------------------------------------
                  HL-Gap            0.1823274 Eh            4.9614 eV
             Fermi-level           -0.3195971 Eh           -8.6967 eV

     #   Z          covCN         q      C6AA      α(0)
     1   6 C        3.752    -0.105    22.561     6.773
     2   6 C        3.801    -0.055    21.554     6.610
     3   6 C        3.805    -0.053    21.527     6.605
     4   6 C        3.804    -0.091    22.235     6.713
     5   6 C        2.719     0.356    20.963     7.495
     6   8 O        0.856    -0.420    22.089     6.301
     7   8 O        1.704    -0.259    18.286     5.773
     8   6 C        3.649     0.030    20.394     6.487
     9   1 H        0.925     0.037     2.483     2.464
    10   1 H        0.925     0.038     2.475     2.460
    11   1 H        0.925     0.036     2.501     2.473
    12   1 H        0.924     0.035     2.516     2.480
    13   1 H        0.924     0.034     2.536     2.490
    14   1 H        0.924     0.051     2.303     2.373
    15   1 H        0.924     0.038     2.481     2.463
    16   1 H        0.925     0.058     2.220     2.330
    17   1 H        0.924     0.068     2.109     2.271
    18   1 H        0.924     0.065     2.138     2.287
    19   1 H        0.924     0.066     2.131     2.283
    20   1 H        0.925     0.071     2.077     2.254

 Mol. C6AA /au·bohr⁶  :       3023.448862
 Mol. C8AA /au·bohr⁸  :      64072.730303
 Mol. α(0) /au        :         81.386939


Wiberg/Mayer (AO) data.
largest (>0.10) Wiberg bond orders for each atom

 ---------------------------------------------------------------------------
     #   Z sym  total        # sym  WBO       # sym  WBO       # sym  WBO
 ---------------------------------------------------------------------------
     1   6 C    3.996 --     2 C    1.019    11 H    0.988    10 H    0.988
                             9 H    0.987
     2   6 C    3.997 --     1 C    1.019     3 C    1.006    13 H    0.978
                            12 H    0.978
     3   6 C    3.992 --     2 C    1.006     4 C    0.983    15 H    0.978
                            14 H    0.976
     4   6 C    3.994 --     3 C    0.983    16 H    0.976     5 C    0.974
                            17 H    0.959
     5   6 C    3.915 --     6 O    1.741     7 O    1.143     4 C    0.974
     6   8 O    2.020 --     5 C    1.741     7 O    0.173
     7   8 O    2.312 --     5 C    1.143     8 C    0.951     6 O    0.173
     8   6 C    3.925 --    20 H    0.982    19 H    0.978    18 H    0.978
                             7 O    0.951
     9   1 H    0.998 --     1 C    0.987
    10   1 H    0.999 --     1 C    0.988
    11   1 H    0.999 --     1 C    0.988
    12   1 H    0.999 --     2 C    0.978
    13   1 H    0.999 --     2 C    0.978
    14   1 H    0.997 --     3 C    0.976
    15   1 H    0.999 --     3 C    0.978
    16   1 H    0.997 --     4 C    0.976
    17   1 H    0.995 --     4 C    0.959
    18   1 H    0.996 --     8 C    0.978
    19   1 H    0.996 --     8 C    0.978
    20   1 H    0.995 --     8 C    0.982
 ---------------------------------------------------------------------------

Topologies differ in total number of bonds
Writing topology from bond orders to xtbtopo.mol

molecular dipole:
                 x           y           z       tot (Debye)
 q only:       -0.067      -0.438       0.643
   full:       -0.027      -0.460       0.732       2.199
molecular quadrupole (traceless):
                xx          xy          yy          xz          yz          zz
 q only:        7.363      -3.780      -2.177       1.938       2.759      -5.186
  q+dip:        5.364      -3.817      -0.368       2.412       2.942      -4.997
   full:        6.243      -3.538      -0.629       2.476       3.618      -5.613


           -------------------------------------------------
          | TOTAL ENERGY              -27.112198932287 Eh   |
          | GRADIENT NORM               0.027254614058 Eh/α |
          | HOMO-LUMO GAP               4.961380367272 eV   |
           -------------------------------------------------

------------------------------------------------------------------------
 * finished run on 2025/04/11 at 15:59:02.096     
------------------------------------------------------------------------
 total:
 * wall-time:     0 d,  0 h,  0 min,  0.055 sec
 *  cpu-time:     0 d,  0 h,  0 min,  0.022 sec
 * ratio c/w:     0.395 speedup
 SCF:
 * wall-time:     0 d,  0 h,  0 min,  0.020 sec
 *  cpu-time:     0 d,  0 h,  0 min,  0.014 sec
 * ratio c/w:     0.699 speedup

