
                                 *****************
                                 * O   R   C   A *
                                 *****************

                                            #,                                       
                                            ###                                      
                                            ####                                     
                                            #####                                    
                                            ######                                   
                                           ########,                                 
                                     ,,################,,,,,                         
                               ,,#################################,,                 
                          ,,##########################################,,             
                       ,#########################################, ''#####,          
                    ,#############################################,,   '####,        
                  ,##################################################,,,,####,       
                ,###########''''           ''''###############################       
              ,#####''   ,,,,##########,,,,          '''####'''          '####       
            ,##' ,,,,###########################,,,                        '##       
           ' ,,###''''                  '''############,,,                           
         ,,##''                                '''############,,,,        ,,,,,,###''
      ,#''                                            '''#######################'''  
     '                                                          ''''####''''         
             ,#######,   #######,   ,#######,      ##                                
            ,#'     '#,  ##    ##  ,#'     '#,    #''#        ,####,   ,####,        
            ##       ##  ##   ,#'  ##            #'  '#       #'       #'  '#        
            ##       ##  #######   ##           ,######,      #####,   #    #        
            '#,     ,#'  ##    ##  '#,     ,#' ,#      #,     #,   #   #,  ,#        
             '#######'   ##     ##  '#######'  #'      '#     '####' # '####'        



                #########################################################
                #                        -***-                          #
                #          Department of theory and spectroscopy        #
                #                                                       #
                #                      Frank Neese                      #
                #                                                       #
                #     Directorship, Architecture, Infrastructure        #
                #                    SHARK, DRIVERS                     #
                #        Core code/Algorithms in most modules           #
                #                                                       #
                #        Max Planck Institute fuer Kohlenforschung      #
                #                Kaiser Wilhelm Platz 1                 #
                #                 D-45470 Muelheim/Ruhr                 #
                #                      Germany                          #
                #                                                       #
                #                  All rights reserved                  #
                #                        -***-                          #
                #########################################################


                         Program Version 6.0.0  -   RELEASE  -


 With contributions from (in alphabetic order):
   Daniel Aravena         : Magnetic Suceptibility
   Michael Atanasov       : Ab Initio Ligand Field Theory (pilot matlab implementation)
   Alexander A. Auer      : GIAO ZORA, VPT2 properties, NMR spectrum
   Ute Becker             : All parallelization in ORCA, NUMFREQ, NUMCALC
   Giovanni Bistoni       : ED, misc. LED, open-shell LED, HFLD
   Martin Brehm           : Molecular dynamics
   Dmytro Bykov           : pre 5.0 version of the SCF Hessian
   Marcos Casanova-Páez   : Triplet and SCS-CIS(D). UHF-(DLPNO)-IP/EA/STEOM-CCSD. UHF-CVS-IP/STEOM-CCSD
   Vijay G. Chilkuri      : MRCI spin determinant printing, contributions to CSF-ICE
   Pauline Colinet        : FMM embedding
   Dipayan Datta          : RHF DLPNO-CCSD density
   Achintya Kumar Dutta   : EOM-CC, STEOM-CC
   Nicolas Foglia         : Exact transition moments, OPA infrastructure, MCD improvements
   Dmitry Ganyushin       : Spin-Orbit,Spin-Spin,Magnetic field MRCI
   Miquel Garcia          : C-PCM and meta-GGA Hessian, CCSD/C-PCM, Gaussian charge scheme
   Tiago L. C. Gouveia    : GS-ROHF, GS-ROCIS
   Yang Guo               : DLPNO-NEVPT2, F12-NEVPT2, CIM, IAO-localization
   Andreas Hansen         : Spin unrestricted coupled pair/coupled cluster methods
   Ingolf Harden          : AUTO-CI MPn and infrastructure 
   Benjamin Helmich-Paris : MC-RPA, TRAH-(SCF,CASSCF), AVAS, COSX integrals, SCF dyn. polar.
   Lee Huntington         : MR-EOM, pCC
   Robert Izsak           : Overlap fitted RIJCOSX, COSX-SCS-MP3, EOM
   Riya Kayal             : Wick's Theorem for AUTO-CI, AUTO-CI UHF-CCSDT
   Emily Kempfer          : AUTO-CI, RHF CISDT and CCSDT
   Christian Kollmar      : KDIIS, OOCD, Brueckner-CCSD(T), CCSD density, CASPT2, CASPT2-K, improved NEVPT2
   Axel Koslowski         : Symmetry handling
   Simone Kossmann        : Meta GGA functionals, TD-DFT gradient, OOMP2, (MP2 Hessian; deprecated post 5.0)
   Lucas Lang             : DCDCAS
   Marvin Lechner         : AUTO-CI (C++ implementation), FIC-MRCC
   Spencer Leger          : CASSCF response
   Dagmar Lenk            : GEPOL surface, SMD, ORCA-2-JSON
   Dimitrios Liakos       : Extrapolation schemes; Compound Job, initial MDCI parallelization
   Dimitrios Manganas     : Further ROCIS development; embedding schemes. LFT, Crystal Embedding
   Dimitrios Pantazis     : SARC Basis sets
   Anastasios Papadopoulos: AUTO-CI, single reference methods and gradients
   Taras Petrenko         : pre 6.0 DFT Hessian and TD-DFT gradient, (ASA, deprecated), ECA, 1-Electron XAS/XES, NRVS
   Peter Pinski           : DLPNO-MP2, DLPNO-MP2 Gradient
   Christoph Reimann      : Effective Core Potentials
   Marius Retegan         : Local ZFS, SOC
   Christoph Riplinger    : Optimizer, TS searches, QM/MM, DLPNO-CCSD(T), (RO)-DLPNO pert. Triples
   Michael Roemelt        : Original ROCIS implementation
   Masaaki Saitow         : Open-shell DLPNO-CCSD energy and density
   Barbara Sandhoefer     : DKH picture change effects
   Kantharuban Sivalingam : CASSCF convergence/infrastructure, NEVPT2 and variants, FIC-MRCI
   Bernardo de Souza      : ESD, SOC TD-DFT
   Georgi Stoychev        : AutoAux, RI-MP2 NMR, DLPNO-MP2 response, X2C
   Van Anh Tran           : RI-MP2 g-tensors
   Willem Van den Heuvel  : Paramagnetic NMR
   Zikuan Wang            : NOTCH, Electric field optimization 
   Frank Wennmohs         : Technical directorship and infrastructure
   Hang Xu                : AUTO-CI-Response properties 


 We gratefully acknowledge several colleagues who have allowed us to
 interface, adapt or use parts of their codes:
   Stefan Grimme, W. Hujo, H. Kruse, P. Pracht,  : VdW corrections, initial TS optimization,
                  C. Bannwarth, S. Ehlert,         DFT functionals, gCP, sTDA/sTD-DF
                  L. Wittmann, M. Mueller
   Ed Valeev, F. Pavosevic, A. Kumar             : LibInt (2-el integral package), F12 methods
   Garnet Chan, S. Sharma, J. Yang, R. Olivares  : DMRG
   Ulf Ekstrom                                   : XCFun DFT Library
   Mihaly Kallay                                 : mrcc  (arbitrary order and MRCC methods)
   Frank Weinhold                                : gennbo (NPA and NBO analysis)
   Simon Mueller                                 : openCOSMO-RS
   Christopher J. Cramer and Donald G. Truhlar   : smd solvation model
   Lars Goerigk                                  : TD-DFT with DH, B97 family of functionals
   V. Asgeirsson, H. Jonsson                     : NEB implementation
   FAccTs GmbH                                   : IRC, NEB, NEB-TS, DLPNO-Multilevel, CI-OPT
                                                   MM, QMMM, 2- and 3-layer-ONIOM, Crystal-QMMM,
                                                   LR-CPCM, SF, NACMEs, symmetry and pop. for TD-DFT,
                                                   nearIR, NL-DFT gradient (VV10), updates on ESD,
                                                   ML-optimized integration grids, MBIS, APM,
                                                   GOAT, DOCKER, SOLVATOR, interface openCOSMO-RS
   S Lehtola, MJT Oliveira, MAL Marques          : LibXC Library
   Liviu Ungur et al                             : ANISO software


 Your calculation uses the libint2 library for the computation of 2-el integrals
 For citations please refer to: http://libint.valeyev.net

 Your ORCA version has been built with support for libXC version: 6.2.2
 For citations please refer to: https://libxc.gitlab.io

 This ORCA versions uses:
   CBLAS   interface :  Fast vector & matrix operations
   LAPACKE interface :  Fast linear algebra routines
   SCALAPACK package :  Parallel linear algebra routines
   Shared memory     :  Shared parallel matrices
   BLAS/LAPACK       :  OpenBLAS 0.3.27  USE64BITINT DYNAMIC_ARCH NO_AFFINITY SkylakeX SINGLE_THREADED
        Core in use  :  SkylakeX
   Copyright (c) 2011-2014, The OpenBLAS Project


Your calculation utilizes the geometrical counterpoise correction gCP
Please cite in your paper:
H.Kruse, S. Grimme J.Chem.Phys., 136, (2012), 154101 
   

Your calculation utilizes the atom-pairwise dispersion correction
based on EEQ partial charges (D4)


Your calculation utilizes the SMD solvation module
Please cite in your paper:
A.V. Marenich, C.J. Cramer, D.G. Truhlar J. Phys. Chem. B, 113, (2009), 6378 

================================================================================

----- Orbital basis set information -----
Your calculation utilizes the basis: def2-mTZVPP
   Stefan Grimme, Andreas Hansen, Sebastian Ehlert, and Jan-Michael Mewes 
   J. Chem. Phys. 154, 064103 (2021). DOI: 10.1063/5.0040021

----- AuxJ basis set information -----
Your calculation utilizes the auxiliary basis: def2/J
   F. Weigend, Phys. Chem. Chem. Phys. 8, 1057 (2006).

================================================================================
                                        WARNINGS
                       Please study these warnings very carefully!
================================================================================

Using LibXC functional ID 497 : Re-regularized SCAN exchange by Furness et al
[ 1]  J. W. Furness, A. D. Kaplan, J. Ning, J. P. Perdew, and J. Sun.,  J. Phys. Chem. Lett. 11, 8208-8215 (2020)
[ 2]  J. W. Furness, A. D. Kaplan, J. Ning, J. P. Perdew, and J. Sun.,  J. Phys. Chem. Lett. 11, 9248-9248 (2020)
Using LibXC functional ID 498 : Re-regularized SCAN correlation by Furness et al
[ 1]  J. W. Furness, A. D. Kaplan, J. Ning, J. P. Perdew, and J. Sun.,  J. Phys. Chem. Lett. 11, 8208-8215 (2020)
[ 2]  J. W. Furness, A. D. Kaplan, J. Ning, J. P. Perdew, and J. Sun.,  J. Phys. Chem. Lett. 11, 9248-9248 (2020)
Using LibXC functional ID 497 : Re-regularized SCAN exchange by Furness et al
[ 1]  J. W. Furness, A. D. Kaplan, J. Ning, J. P. Perdew, and J. Sun.,  J. Phys. Chem. Lett. 11, 8208-8215 (2020)
[ 2]  J. W. Furness, A. D. Kaplan, J. Ning, J. P. Perdew, and J. Sun.,  J. Phys. Chem. Lett. 11, 9248-9248 (2020)
Using LibXC functional ID 498 : Re-regularized SCAN correlation by Furness et al
[ 1]  J. W. Furness, A. D. Kaplan, J. Ning, J. P. Perdew, and J. Sun.,  J. Phys. Chem. Lett. 11, 8208-8215 (2020)
[ 2]  J. W. Furness, A. D. Kaplan, J. Ning, J. P. Perdew, and J. Sun.,  J. Phys. Chem. Lett. 11, 9248-9248 (2020)

================================================================================
                                       INPUT FILE
================================================================================
NAME = sp_solv.inp
|  1> ! r2scan-3c def2/J RI DEFGRID2 scfconv6 printgap
|  2> %output
|  3>     printlevel normal
|  4> end
|  5> %cpcm
|  6>     smd true
|  7>     smdsolvent "water"
|  8> end
|  9> * xyz 0 1
| 10> C 2.7577635757 -0.9675657975 -0.115763293
| 11> C 2.3155941087 0.3049628546 0.5982525609
| 12> C 1.3945477193 1.1850462074 -0.2493242233
| 13> C 0.0798670495 0.5243859515 -0.6753036327
| 14> C -0.7870943355 0.1589828931 0.5165755472
| 15> Cl -2.3838711022 -0.4623279112 -0.0349570938
| 16> H 1.9183306143 -1.637047988 -0.2828904211
| 17> H 3.4955975521 -1.4966093872 0.4824976449
| 18> H 3.2050605063 -0.7277097149 -1.0776666684
| 19> H 1.8224076133 0.0454240062 1.5359598498
| 20> H 3.2013583472 0.8926356584 0.8491803452
| 21> H 1.9289045213 1.479518067 -1.1544371943
| 22> H 1.1663121719 2.0935061732 0.3116753373
| 23> H 0.2821230632 -0.3686786187 -1.266688141
| 24> H -0.4694029624 1.2231356833 -1.3092114766
| 25> H -0.350159145 -0.6378934892 1.11409311
| 26> H -0.9967647307 1.0266675154 1.1400528794
| 27> *
| 28> 
| 29>                          ****END OF INPUT****
================================================================================

                       ****************************
                       * Single Point Calculation *
                       ****************************

---------------------------------
CARTESIAN COORDINATES (ANGSTROEM)
---------------------------------
  C      2.757764   -0.967566   -0.115763
  C      2.315594    0.304963    0.598253
  C      1.394548    1.185046   -0.249324
  C      0.079867    0.524386   -0.675304
  C     -0.787094    0.158983    0.516576
  Cl    -2.383871   -0.462328   -0.034957
  H      1.918331   -1.637048   -0.282890
  H      3.495598   -1.496609    0.482498
  H      3.205061   -0.727710   -1.077667
  H      1.822408    0.045424    1.535960
  H      3.201358    0.892636    0.849180
  H      1.928905    1.479518   -1.154437
  H      1.166312    2.093506    0.311675
  H      0.282123   -0.368679   -1.266688
  H     -0.469403    1.223136   -1.309211
  H     -0.350159   -0.637893    1.114093
  H     -0.996765    1.026668    1.140053

----------------------------
CARTESIAN COORDINATES (A.U.)
----------------------------
  NO LB      ZA    FRAG     MASS         X           Y           Z
   0 C     6.0000    0    12.011    5.211418   -1.828434   -0.218761
   1 C     6.0000    0    12.011    4.375839    0.576296    1.130533
   2 C     6.0000    0    12.011    2.635313    2.239413   -0.471155
   3 C     6.0000    0    12.011    0.150927    0.990946   -1.276139
   4 C     6.0000    0    12.011   -1.487393    0.300434    0.976186
   5 Cl   17.0000    0    35.453   -4.504864   -0.873673   -0.066059
   6 H     1.0000    0     1.008    3.625119   -3.093572   -0.534585
   7 H     1.0000    0     1.008    6.605722   -2.828182    0.911788
   8 H     1.0000    0     1.008    6.056687   -1.375172   -2.036495
   9 H     1.0000    0     1.008    3.443851    0.085839    2.902543
  10 H     1.0000    0     1.008    6.049691    1.686837    1.604718
  11 H     1.0000    0     1.008    3.645101    2.795884   -2.181570
  12 H     1.0000    0     1.008    2.204011    3.956153    0.588981
  13 H     1.0000    0     1.008    0.533135   -0.696702   -2.393694
  14 H     1.0000    0     1.008   -0.887043    2.311391   -2.474051
  15 H     1.0000    0     1.008   -0.661705   -1.205444    2.105331
  16 H     1.0000    0     1.008   -1.883612    1.940120    2.154388

--------------------------------
INTERNAL COORDINATES (ANGSTROEM)
--------------------------------
 C      0   0   0     0.000000000000     0.00000000     0.00000000
 C      1   0   0     1.524684114032     0.00000000     0.00000000
 C      2   1   0     1.530117500200   113.27915435     0.00000000
 C      3   2   1     1.531768812355   114.99916846    60.62935752
 C      4   3   2     1.518458895607   112.05741750    62.47162722
 Cl     5   4   3     1.799975392138   110.42906098   174.41578528
 H      1   2   3     1.086639580095   111.23568568   293.32247893
 H      1   2   3     1.087291242653   110.19543461   173.57072204
 H      1   2   3     1.087595323680   110.44998479    53.88684969
 H      2   1   3     1.090820009319   109.57919321   123.15333314
 H      2   1   3     1.092200697429   108.75212100   240.14518567
 H      3   2   1     1.091549521649   108.65139033   299.72277581
 H      3   2   1     1.091838578523   108.64991523   182.82087131
 H      4   3   2     1.090049291675   110.18106856   300.22241866
 H      4   3   2     1.091690381116   108.49667063   182.63837146
 H      5   4   3     1.087635769557   112.21980058   292.15681732
 H      5   4   3     1.088835277793   111.56988202    56.49876062

---------------------------
INTERNAL COORDINATES (A.U.)
---------------------------
 C      0   0   0     0.000000000000     0.00000000     0.00000000
 C      1   0   0     2.881235416262     0.00000000     0.00000000
 C      2   1   0     2.891503028098   113.27915435     0.00000000
 C      3   2   1     2.894623555833   114.99916846    60.62935752
 C      4   3   2     2.869471458314   112.05741750    62.47162722
 Cl     5   4   3     3.401460538938   110.42906098   174.41578528
 H      1   2   3     2.053451212658   111.23568568   293.32247893
 H      1   2   3     2.054682676425   110.19543461   173.57072204
 H      1   2   3     2.055257306288   110.44998479    53.88684969
 H      2   1   3     2.061351079014   109.57919321   123.15333314
 H      2   1   3     2.063960201419   108.75212100   240.14518567
 H      3   2   1     2.062729657530   108.65139033   299.72277581
 H      3   2   1     2.063275895859   108.64991523   182.82087131
 H      4   3   2     2.059894633741   110.18106856   300.22241866
 H      4   3   2     2.062995843345   108.49667063   182.63837146
 H      5   4   3     2.055333737919   112.21980058   292.15681732
 H      5   4   3     2.057600479981   111.56988202    56.49876062

---------------------
BASIS SET INFORMATION
---------------------
There are 3 groups of distinct atoms

 Group   1 Type C   : 11s6p1d contracted to 5s3p1d pattern {62111/411/1}
 Group   2 Type Cl  : 14s9p2d contracted to 5s4p2d pattern {73211/6111/11}
 Group   3 Type H   : 4s1p contracted to 2s1p pattern {31/1}

Atom   0C    basis set group =>   1
Atom   1C    basis set group =>   1
Atom   2C    basis set group =>   1
Atom   3C    basis set group =>   1
Atom   4C    basis set group =>   1
Atom   5Cl   basis set group =>   2
Atom   6H    basis set group =>   3
Atom   7H    basis set group =>   3
Atom   8H    basis set group =>   3
Atom   9H    basis set group =>   3
Atom  10H    basis set group =>   3
Atom  11H    basis set group =>   3
Atom  12H    basis set group =>   3
Atom  13H    basis set group =>   3
Atom  14H    basis set group =>   3
Atom  15H    basis set group =>   3
Atom  16H    basis set group =>   3
---------------------------------
AUXILIARY/J BASIS SET INFORMATION
---------------------------------
There are 3 groups of distinct atoms

 Group   1 Type C   : 12s5p4d2f1g contracted to 6s4p3d1f1g pattern {711111/2111/211/2/1}
 Group   2 Type Cl  : 14s5p5d2f1g contracted to 8s4p3d1f1g pattern {71111111/2111/311/2/1}
 Group   3 Type H   : 5s2p1d contracted to 3s1p1d pattern {311/2/1}

Atom   0C    basis set group =>   1
Atom   1C    basis set group =>   1
Atom   2C    basis set group =>   1
Atom   3C    basis set group =>   1
Atom   4C    basis set group =>   1
Atom   5Cl   basis set group =>   2
Atom   6H    basis set group =>   3
Atom   7H    basis set group =>   3
Atom   8H    basis set group =>   3
Atom   9H    basis set group =>   3
Atom  10H    basis set group =>   3
Atom  11H    basis set group =>   3
Atom  12H    basis set group =>   3
Atom  13H    basis set group =>   3
Atom  14H    basis set group =>   3
Atom  15H    basis set group =>   3
Atom  16H    basis set group =>   3

Checking for AutoStart:
The File: sp_solv.gbw exists
Trying to determine its content:
     ... Fine, the file contains calculation information
     ... Fine, the calculation information was read
     ... Fine, the file contains a basis set
     ... Fine, the basis set was read
     ... Fine, the file contains a geometry
     ... Fine, the geometry was read
     ... Fine, the file contains a set of orbitals
     ... Fine, the orbitals can be read
     => possible old guess file was deleted
     => GBW file was renamed to GES file
     => GES file is set as startup file
     => Guess is set to MORead
     ... now leaving AutoStart

------------------------------------------------------------------------------
                             ORCA STARTUP CALCULATIONS
                           -- RI-GTO INTEGRALS CHOSEN --
------------------------------------------------------------------------------
------------------------------------------------------------------------------
                   ___                                                        
                  /   \      - P O W E R E D   B Y -                         
                 /     \                                                     
                 |  |  |   _    _      __       _____    __    __             
                 |  |  |  | |  | |    /  \     |  _  \  |  |  /  |          
                  \  \/   | |  | |   /    \    | | | |  |  | /  /          
                 / \  \   | |__| |  /  /\  \   | |_| |  |  |/  /          
                |  |  |   |  __  | /  /__\  \  |    /   |      \           
                |  |  |   | |  | | |   __   |  |    \   |  |\   \          
                \     /   | |  | | |  |  |  |  | |\  \  |  | \   \       
                 \___/    |_|  |_| |__|  |__|  |_| \__\ |__|  \__/        
                                                                              
                      - O R C A' S   B I G   F R I E N D -                    
                                      &                                       
                       - I N T E G R A L  F E E D E R -                       
                                                                              
 v1 FN, 2020, v2 2021, v3 2022-2024                                           
------------------------------------------------------------------------------


----------------------
SHARK INTEGRAL PACKAGE
----------------------

Number of atoms                             ...     17
Number of basis functions                   ...    177
Number of shells                            ...     89
Maximum angular momentum                    ...      2
Integral batch strategy                     ... SHARK/LIBINT Hybrid
RI-J (if used) integral strategy            ... SPLIT-RIJ (Revised 2003 algorithm where possible)
Printlevel                                  ...      1
Contraction scheme used                     ... SEGMENTED contraction
Prescreening option                         ... SCHWARTZ
   Thresh                                   ... 1.000e-10
   Tcut                                     ... 1.000e-11
   Tpresel                                  ... 1.000e-11 
Coulomb Range Separation                    ... NOT USED
Exchange Range Separation                   ... NOT USED
Multipole approximations                    ... NOT USED
Finite Nucleus Model                        ... NOT USED
CABS basis                                  ... NOT available
Auxiliary Coulomb fitting basis             ... AVAILABLE
   # of basis functions in Aux-J            ...    417
   # of shells in Aux-J                     ...    147
   Maximum angular momentum in Aux-J        ...      4
Auxiliary J/K fitting basis                 ... NOT available
Auxiliary Correlation fitting basis         ... NOT available
Auxiliary 'external' fitting basis          ... NOT available

Checking pre-screening integrals            ... done (  0.0 sec) Dimension = 89
Check shell pair data                       ... done (  0.0 sec)
Shell pair information
Shell pair cut-off parameter TPreSel        ...   1.0e-11
Total number of shell pairs                 ...      4005
Shell pairs after pre-screening             ...      3675
Total number of primitive shell pairs       ...     14718
Primitive shell pairs kept                  ...      9737
          la=0 lb=0:   1257 shell pairs
          la=1 lb=0:   1429 shell pairs
          la=1 lb=1:    431 shell pairs
          la=2 lb=0:    338 shell pairs
          la=2 lb=1:    194 shell pairs
          la=2 lb=2:     26 shell pairs

Calculating one electron integrals          ... done (  0.0 sec)
Calculating RI/J V-Matrix + Cholesky decomp.... done (  0.1 sec)
Calculating Nuclear repulsion               ... done (  0.0 sec) ENN=    294.152410082000 Eh

Diagonalization of the overlap matrix:
Smallest eigenvalue                        ... 2.872e-04
Time for diagonalization                   ...    0.003 sec
Threshold for overlap eigenvalues          ... 1.000e-07
Number of eigenvalues below threshold      ... 0
Time for construction of square roots      ...    0.020 sec
Total time needed                          ...    0.032 sec

-------------------
DFT GRID GENERATION
-------------------

General Integration Accuracy     IntAcc      ... 4.388
Radial Grid Type                 RadialGrid  ... OptM3 with GC (2021)
Angular Grid (max. ang.)         AngularGrid ... 4 (Lebedev-302)
Angular grid pruning method      GridPruning ... 4 (adaptive)
Weight generation scheme         WeightScheme... mBecke (2022)
Basis function cutoff            BFCut       ... 1.0000e-10
Integration weight cutoff        WCut        ... 1.0000e-14
Partially contracted basis set               ... off
Rotationally invariant grid construction     ... off
Angular grids for H and He will be reduced by one unit

Total number of grid points                  ...    72613
Total number of batches                      ...     1142
Average number of points per batch           ...       63
Average number of grid points per atom       ...     4271
Initializing property integral containers    ... done (  0.0 sec)

SHARK setup successfully completed in   1.0 seconds

Maximum memory used throughout the entire STARTUP-calculation: 32.7 MB
-------------------------------------------------------------------------------
                                 ORCA GUESS
                   Start orbitals & Density for SCF / CASSCF
-------------------------------------------------------------------------------

------------
SCF SETTINGS
------------
Hamiltonian:
 Density Functional     Method          .... DFT(GTOs)
  Functional kind                       .... Exchange
  Functional name                       .... Re-regularized SCAN exchange by Furness et al
  Functional family                     .... MGGA
  Functional refs                              
    [ 0] J. W. Furness, A. D. Kaplan, J. Ning, J. P. Perdew, and J. Sun.,  J. Phys. Chem. Lett. 11, 8208-8215 (2020), doi: 10.1021/acs.jpclett.0c02405
    [ 1] J. W. Furness, A. D. Kaplan, J. Ning, J. P. Perdew, and J. Sun.,  J. Phys. Chem. Lett. 11, 9248-9248 (2020), doi: 10.1021/acs.jpclett.0c03077
  Functional external parameters        .... 6
    Parameter  0 _c1        =  6.670000e-01 : c1 parameter        
    Parameter  1 _c2        =  8.000000e-01 : c2 parameter        
    Parameter  2 _d         =  1.240000e+00 : d parameter         
    Parameter  3 _k1        =  6.500000e-02 : k1 parameter        
    Parameter  4 _eta       =  1.000000e-03 : eta parameter       
    Parameter  5 _dp2       =  3.610000e-01 : dp2 parameter       
  Functional kind                       .... Correlation
  Functional name                       .... Re-regularized SCAN correlation by Furness et al
  Functional family                     .... MGGA
  Functional refs                              
    [ 0] J. W. Furness, A. D. Kaplan, J. Ning, J. P. Perdew, and J. Sun.,  J. Phys. Chem. Lett. 11, 8208-8215 (2020), doi: 10.1021/acs.jpclett.0c02405
    [ 1] J. W. Furness, A. D. Kaplan, J. Ning, J. P. Perdew, and J. Sun.,  J. Phys. Chem. Lett. 11, 9248-9248 (2020), doi: 10.1021/acs.jpclett.0c03077
  Functional external parameters        .... 1
    Parameter  0 _eta       =  1.000000e-03 : Regularization parameter
 Gradients option       PostSCFGGA      .... off
 RI-approximation to the Coulomb term is turned on
   Number of AuxJ basis functions       .... 417


General Settings:
 Integral files         IntName         .... sp_solv
 Hartree-Fock type      HFTyp           .... RHF
 Total Charge           Charge          ....    0
 Multiplicity           Mult            ....    1
 Number of Electrons    NEL             ....   58
 Basis Dimension        Dim             ....  177
 Nuclear Repulsion      ENuc            ....    294.1524100820 Eh

Convergence Acceleration:
 AO-DIIS                CNVDIIS         .... on
   Start iteration      DIISMaxIt       ....    12
   Startup error        DIISStart       ....  0.200000
   # of expansion vecs  DIISMaxEq       ....     5
   Bias factor          DIISBfac        ....   1.050
   Max. coefficient     DIISMaxC        ....  10.000
 MO-DIIS                CNVKDIIS        .... off
 Trust-Rad. Augm. Hess. CNVTRAH         .... auto
   Auto Start mean grad. ratio tolernc. ....  1.125000
   Auto Start start iteration           ....     1
   Auto Start num. interpolation iter.  ....    10
   Max. Number of Micro iterations      ....    24
   Max. Number of Macro iterations      .... Maxiter - #DIIS iter
   Number of Davidson start vectors     ....     2
   Converg. threshold    (grad. norm)   ....   3.330e-04
   Grad. Scal. Fac. for Micro threshold ....   0.100
   Minimum threshold for Micro iter.    ....   1.000e-02
   NR start threshold (gradient norm)   ....   1.000e-04
   Initial trust radius                 ....   0.400
   Minimum AH scaling param. (alpha)    ....   1.000
   Maximum AH scaling param. (alpha)    .... 1000.000
   Quad. conv. algorithm                .... NR
   White noise on init. David. guess    .... on
   Maximum white noise                  ....   0.010
   Pseudo random numbers                .... off
   Inactive MOs                         .... canonical
   Orbital update algorithm             .... Taylor
   Preconditioner                       .... Diag
   Full preconditioner red. dimension   ....   250
   COSX micro iterations for RIJONX calc.... off
 SOSCF                  CNVSOSCF        .... on
   Start iteration      SOSCFMaxIt      ....   150
   Startup grad/error   SOSCFStart      ....  0.003300
   Hessian update       SOSCFHessUp     .... L-BFGS
 Level Shifting         CNVShift        .... on
   Level shift para.    LevelShift      ....    0.2500
   Turn off err/grad.   ShiftErr        ....    0.0010
 Zerner damping         CNVZerner       .... off
 Static damping         CNVDamp         .... on
   Fraction old density DampFac         ....    0.7000
   Max. Damping (<1)    DampMax         ....    0.9800
   Min. Damping (>=0)   DampMin         ....    0.0000
   Turn off err/grad.   DampErr         ....    0.1000

SCF Procedure:
 Maximum # iterations   MaxIter         ....   125
 SCF integral mode      SCFMode         .... Direct
   Integral package                     .... SHARK and LIBINT hybrid scheme
 Reset frequency        DirectResetFreq ....    20
 Integral Threshold     Thresh          ....  1.000e-10 Eh
 Primitive CutOff       TCut            ....  1.000e-11 Eh

Convergence Tolerance:
 Convergence Check Mode ConvCheckMode   .... Total+1el-Energy
 Convergence forced     ConvForced      .... 0
 Energy Change          TolE            ....  1.000e-06 Eh
 1-El. energy change                    ....  1.000e-03 Eh
 Orbital Gradient       TolG            ....  3.330e-04
 Orbital Rotation angle TolX            ....  3.330e-04
 DIIS Error             TolErr          ....  1.000e-06

---------------------
INITIAL GUESS: MOREAD
---------------------
Guess MOs are being read from file: sp_solv.ges
Input Geometry matches current geometry (good)
Atom 0: N(Shells)= 9 and 6 - projection required
Input basis set needs projection
NBasis(read)= 110
NBasis(calc)= 177
Basis set overlap was calculated
Using GuessMode=FMatrix for the initial guess
C*T matrix was formed
Effective Fockian was calculated
Effective Fockian was diagonalized
Initial density was built
                      ------------------
                      INITIAL GUESS DONE (   0.1 sec)
                      ------------------
             **** ENERGY FILE WAS UPDATED (sp_solv.en.tmp) ****
Finished Guess after   0.3 sec
Maximum memory used throughout the entire GUESS-calculation: 12.0 MB

-------------------------------------------------------------------------------------------
                                      ORCA LEAN-SCF
                              memory conserving SCF solver
-------------------------------------------------------------------------------------------

--------------------
CPCM SOLVATION MODEL
--------------------
CPCM parameters:
  Epsilon                                         ...      78.3550
  Refrac                                          ...       1.3328
  Rsolv                                           ...       1.3000
  Surface type                                    ... GAUSSIAN VDW
  Discretization scheme                           ... Constant charge density
    Threshold for H atoms                         ...       5.0000 (charges/Ang^2)
    Threshold for non-H atoms                     ...       5.0000 (charges/Ang^2)
  Epsilon function type                           ...         CPCM
Solvent:                                          ... WATER
SMD-CDS solvent descriptors:
  Soln                                            ...       1.3328
  Soln25                                          ...       1.3323
  Sola                                            ...       0.0000
  Solb                                            ...       0.0000
  Solg                                            ...       0.0000
  Solc                                            ...       0.0000
  Solh                                            ...       0.0000
Radii:
  Scheme                                          ... Element-dependent radii
  Radius for C  used is    3.4960 Bohr (=   1.8500 Ang.)
  Radius for Cl used is    4.4975 Bohr (=   2.3800 Ang.)
  Radius for H  used is    2.2677 Bohr (=   1.2000 Ang.)
Calculating surface                               ...        done! (  0.0s)
Cavity surface points                             ...         1389
Cavity Volume                                     ...     948.3796
Cavity Surface-area                               ...     586.1604
Calculating surface distance matrix               ...        done! (  0.0s)
Performing Cholesky decomposition & store         ...        done! (  0.1s)
Overall time for CPCM initialization              ...                 0.1s

----------------------------------------D-I-I-S--------------------------------------------
Iteration    Energy (Eh)           Delta-E    RMSDP     MaxDP     DIISErr   Damp  Time(sec)
-------------------------------------------------------------------------------------------
               ***  Starting incremental Fock matrix formation  ***
    1    -657.1482720653798424     0.00e+00  3.81e-03  1.04e-01  5.39e-01  0.700   2.4
    2    -657.1869896447442443    -3.87e-02  3.10e-03  7.97e-02  3.77e-01  0.700   2.3
    3    -657.2144977317097982    -2.75e-02  2.28e-03  5.83e-02  2.64e-01  0.700   2.2
                               ***Turning on AO-DIIS***
    4    -657.2338441235640403    -1.93e-02  1.67e-03  4.19e-02  1.85e-01  0.700   2.2
    5    -657.2474289549468267    -1.36e-02  1.19e-03  2.97e-02  1.29e-01  0.700   2.2
    6    -657.2569630960695122    -9.53e-03  8.43e-04  2.09e-02  9.06e-02  0.700   2.1
    7    -657.2636499482493946    -6.69e-03  1.98e-03  4.90e-02  6.34e-02  0.000   2.1
                              *** Initializing SOSCF ***
---------------------------------------S-O-S-C-F--------------------------------------
Iteration    Energy (Eh)           Delta-E    RMSDP     MaxDP     MaxGrad    Time(sec)
--------------------------------------------------------------------------------------
    8    -657.2792936718508372    -1.56e-02  1.98e-05  3.89e-04  3.35e-04     2.2
               *** Restarting incremental Fock matrix formation ***
    9    -657.2792939187095271    -2.47e-07  1.56e-05  3.58e-04  1.22e-04     2.4
   10    -657.2792935016236697     4.17e-07  9.39e-06  2.28e-04  2.01e-04     1.9
                 **** Energy Check signals convergence ****

               *****************************************************
               *                     SUCCESS                       *
               *           SCF CONVERGED AFTER  10 CYCLES          *
               *****************************************************


SMD CDS free energy correction energy :                 2.78000     Kcal/mol
Total Energy after SMD CDS correction =              -657.274863295 Eh
             **** ENERGY FILE WAS UPDATED (sp_solv.en.tmp) ****

----------------
TOTAL SCF ENERGY
----------------

Total Energy       :       -657.27486329531632 Eh          -17885.35830 eV

Components:
Nuclear Repulsion  :        294.15241008199956 Eh            8004.29401 eV
Electronic Energy  :       -951.42450188140288 Eh          -25889.57690 eV
One Electron Energy:      -1483.11921131787790 Eh          -40357.72549 eV
Two Electron Energy:        531.69470943647502 Eh           14468.14859 eV
CPCM Dielectric    :         -0.00720170222029 Eh              -0.19597 eV
SMD CDS (Gcds)     :          0.00443020630738 Eh               0.12055 eV

Virial components:
Potential Energy   :      -1312.54454487125213 Eh          -35716.15284 eV
Kinetic Energy     :        655.26968157593581 Eh           17830.79454 eV
Virial Ratio       :          2.00306008621452

DFT components:
N(Alpha)           :       28.999916173686 electrons
N(Beta)            :       28.999916173686 electrons
N(Total)           :       57.999832347373 electrons
E(X)               :      -57.488933128235 Eh       
E(C)               :       -1.922306253328 Eh       
E(XC)              :      -59.411239381563 Eh       

CPCM Solvation Model Properties:
Surface-charge          :         -0.03370914758320
Corrected charge        :          0.00000000000000
Outlying charge corr.   :          0.00008555300007 Eh               0.00233 eV
Free-energy (cav+disp)  :          0.00443020630738 Eh               0.12055 eV

---------------
SCF CONVERGENCE
---------------

  Last Energy change         ...   -4.1709e-07  Tolerance :   1.0000e-06
  Last MAX-Density change    ...    2.2757e-04  Tolerance :   1.0000e-05
  Last RMS-Density change    ...    9.3851e-06  Tolerance :   1.0000e-06
  Last DIIS Error            ...    3.3480e-04  Tolerance :   1.0000e-06
  Last Orbital Gradient      ...    2.0096e-04  Tolerance :   3.3300e-04
  Last Orbital Rotation      ...    1.9432e-04  Tolerance :   3.3300e-04


----------------
ORBITAL ENERGIES
----------------

  NO   OCC          E(Eh)            E(eV) 
   0   2.0000    -101.198167     -2753.7421 
   1   2.0000     -10.079958      -274.2896 
   2   2.0000     -10.026331      -272.8303 
   3   2.0000     -10.020336      -272.6672 
   4   2.0000     -10.017086      -272.5788 
   5   2.0000     -10.007294      -272.3123 
   6   2.0000      -9.354561      -254.5505 
   7   2.0000      -7.100350      -193.2103 
   8   2.0000      -7.090811      -192.9508 
   9   2.0000      -7.090759      -192.9494 
  10   2.0000      -0.816910       -22.2293 
  11   2.0000      -0.758767       -20.6471 
  12   2.0000      -0.697271       -18.9737 
  13   2.0000      -0.629319       -17.1246 
  14   2.0000      -0.578963       -15.7544 
  15   2.0000      -0.519893       -14.1470 
  16   2.0000      -0.446093       -12.1388 
  17   2.0000      -0.429038       -11.6747 
  18   2.0000      -0.396936       -10.8012 
  19   2.0000      -0.385445       -10.4885 
  20   2.0000      -0.383430       -10.4336 
  21   2.0000      -0.342206        -9.3119 
  22   2.0000      -0.334264        -9.0958 
  23   2.0000      -0.331149        -9.0110 
  24   2.0000      -0.294806        -8.0221 
  25   2.0000      -0.286260        -7.7895 
  26   2.0000      -0.284595        -7.7442 
  27   2.0000      -0.264297        -7.1919 
  28   2.0000      -0.259841        -7.0706 
  29   0.0000       0.011598         0.3156 
  30   0.0000       0.096463         2.6249 
  31   0.0000       0.115295         3.1373 
  32   0.0000       0.124439         3.3862 
  33   0.0000       0.133269         3.6264 
  34   0.0000       0.143469         3.9040 
  35   0.0000       0.150473         4.0946 
  36   0.0000       0.159137         4.3304 
  37   0.0000       0.176274         4.7966 
  38   0.0000       0.179076         4.8729 
  39   0.0000       0.185696         5.0530 
*Only the first 10 virtual orbitals were printed.

                    ********************************
                    * MULLIKEN POPULATION ANALYSIS *
                    ********************************

-----------------------
MULLIKEN ATOMIC CHARGES
-----------------------
   0 C :   -0.516122
   1 C :   -0.259233
   2 C :   -0.296692
   3 C :   -0.295791
   4 C :   -0.183674
   5 Cl:   -0.250617
   6 H :    0.160462
   7 H :    0.156013
   8 H :    0.156451
   9 H :    0.153206
  10 H :    0.149824
  11 H :    0.160478
  12 H :    0.156881
  13 H :    0.170250
  14 H :    0.164451
  15 H :    0.189026
  16 H :    0.185088
Sum of atomic charges:    0.0000000

--------------------------------
MULLIKEN REDUCED ORBITAL CHARGES
--------------------------------
  0 C s       :     3.333835  s :     3.333835
      pz      :     1.061275  p :     3.155221
      px      :     1.090848
      py      :     1.003098
      dz2     :     0.005144  d :     0.027067
      dxz     :     0.005394
      dyz     :     0.005254
      dx2y2   :     0.002972
      dxy     :     0.008302

  1 C s       :     3.218511  s :     3.218511
      pz      :     0.995389  p :     3.003572
      px      :     1.054233
      py      :     0.953950
      dz2     :     0.006887  d :     0.037150
      dxz     :     0.007173
      dyz     :     0.007765
      dx2y2   :     0.005519
      dxy     :     0.009806

  2 C s       :     3.248680  s :     3.248680
      pz      :     1.067611  p :     3.011228
      px      :     0.943565
      py      :     1.000052
      dz2     :     0.005017  d :     0.036785
      dxz     :     0.008812
      dyz     :     0.007732
      dx2y2   :     0.007483
      dxy     :     0.007742

  3 C s       :     3.238069  s :     3.238069
      pz      :     0.967345  p :     3.021256
      px      :     0.970809
      py      :     1.083103
      dz2     :     0.003733  d :     0.036466
      dxz     :     0.009987
      dyz     :     0.009480
      dx2y2   :     0.006381
      dxy     :     0.006884

  4 C s       :     3.261824  s :     3.261824
      pz      :     0.989411  p :     2.881153
      px      :     0.802268
      py      :     1.089475
      dz2     :     0.005126  d :     0.040697
      dxz     :     0.009480
      dyz     :     0.010430
      dx2y2   :     0.008008
      dxy     :     0.007653

  5 Cls       :     5.943221  s :     5.943221
      pz      :     3.904989  p :    11.260828
      px      :     3.460271
      py      :     3.895569
      dz2     :     0.005553  d :     0.046568
      dxz     :     0.012259
      dyz     :     0.004597
      dx2y2   :     0.012164
      dxy     :     0.011994

  6 H s       :     0.821092  s :     0.821092
      pz      :     0.003904  p :     0.018445
      px      :     0.008113
      py      :     0.006428

  7 H s       :     0.825615  s :     0.825615
      pz      :     0.005795  p :     0.018372
      px      :     0.007098
      py      :     0.005478

  8 H s       :     0.825289  s :     0.825289
      pz      :     0.009470  p :     0.018260
      px      :     0.004894
      py      :     0.003896

  9 H s       :     0.828754  s :     0.828754
      pz      :     0.009073  p :     0.018040
      px      :     0.005082
      py      :     0.003885

 10 H s       :     0.832279  s :     0.832279
      pz      :     0.003951  p :     0.017897
      px      :     0.008398
      py      :     0.005548

 11 H s       :     0.821624  s :     0.821624
      pz      :     0.008620  p :     0.017898
      px      :     0.005227
      py      :     0.004050

 12 H s       :     0.825258  s :     0.825258
      pz      :     0.005434  p :     0.017861
      px      :     0.003696
      py      :     0.008730

 13 H s       :     0.811663  s :     0.811663
      pz      :     0.005704  p :     0.018087
      px      :     0.003688
      py      :     0.008695

 14 H s       :     0.817623  s :     0.817623
      pz      :     0.006107  p :     0.017926
      px      :     0.005285
      py      :     0.006534

 15 H s       :     0.792707  s :     0.792707
      pz      :     0.006054  p :     0.018267
      px      :     0.004520
      py      :     0.007692

 16 H s       :     0.796847  s :     0.796847
      pz      :     0.006279  p :     0.018065
      px      :     0.002976
      py      :     0.008810


------------------------
MULLIKEN OVERLAP CHARGES
------------------------
B(  0-C ,  1-C ) :   0.3535 B(  0-C ,  2-C ) :  -0.2098 B(  0-C ,  3-C ) :   0.0509 
B(  0-C ,  6-H ) :   0.8482 B(  0-C ,  7-H ) :   0.7887 B(  0-C ,  8-H ) :   0.8436 
B(  0-C ,  9-H ) :  -0.0764 B(  0-C , 10-H ) :  -0.0545 B(  1-C ,  2-C ) :   0.4360 
B(  1-C ,  3-C ) :  -0.2023 B(  1-C ,  6-H ) :  -0.0832 B(  1-C ,  7-H ) :  -0.0646 
B(  1-C ,  8-H ) :  -0.0994 B(  1-C ,  9-H ) :   0.8710 B(  1-C , 10-H ) :   0.8204 
B(  1-C , 11-H ) :  -0.0678 B(  1-C , 12-H ) :  -0.1055 B(  2-C ,  3-C ) :   0.3568 
B(  2-C ,  4-C ) :  -0.1358 B(  2-C ,  9-H ) :  -0.0909 B(  2-C , 10-H ) :  -0.0919 
B(  2-C , 11-H ) :   0.8477 B(  2-C , 12-H ) :   0.8476 B(  2-C , 13-H ) :  -0.0716 
B(  2-C , 14-H ) :  -0.0720 B(  3-C ,  4-C ) :   0.3771 B(  3-C ,  5-Cl) :  -0.0707 
B(  3-C , 11-H ) :  -0.1090 B(  3-C , 12-H ) :  -0.0684 B(  3-C , 13-H ) :   0.8721 
B(  3-C , 14-H ) :   0.8193 B(  3-C , 15-H ) :  -0.0783 B(  3-C , 16-H ) :  -0.0981 
B(  4-C ,  5-Cl) :   0.3669 B(  4-C , 13-H ) :  -0.0813 B(  4-C , 14-H ) :  -0.0585 
B(  4-C , 15-H ) :   0.8443 B(  4-C , 16-H ) :   0.8417 B(  5-Cl, 15-H ) :  -0.0786 
B(  5-Cl, 16-H ) :  -0.0799 B( 15-H , 16-H ) :  -0.0530 


                     *******************************
                     * LOEWDIN POPULATION ANALYSIS *
                     *******************************

----------------------
LOEWDIN ATOMIC CHARGES
----------------------
   0 C :   -0.433662
   1 C :   -0.321029
   2 C :   -0.309829
   3 C :   -0.333003
   4 C :   -0.316093
   5 Cl:   -0.036617
   6 H :    0.151946
   7 H :    0.153497
   8 H :    0.153477
   9 H :    0.153765
  10 H :    0.155234
  11 H :    0.161932
  12 H :    0.160127
  13 H :    0.162657
  14 H :    0.163602
  15 H :    0.166900
  16 H :    0.167097

-------------------------------
LOEWDIN REDUCED ORBITAL CHARGES
-------------------------------
  0 C s       :     2.972176  s :     2.972176
      pz      :     1.144015  p :     3.398470
      px      :     1.149345
      py      :     1.105110
      dz2     :     0.012006  d :     0.063017
      dxz     :     0.013034
      dyz     :     0.012174
      dx2y2   :     0.006380
      dxy     :     0.019422

  1 C s       :     2.936670  s :     2.936670
      pz      :     1.111031  p :     3.304346
      px      :     1.111839
      py      :     1.081476
      dz2     :     0.014273  d :     0.080013
      dxz     :     0.016148
      dyz     :     0.016942
      dx2y2   :     0.010904
      dxy     :     0.021747

  2 C s       :     2.936174  s :     2.936174
      pz      :     1.125666  p :     3.294396
      px      :     1.063823
      py      :     1.104907
      dz2     :     0.010296  d :     0.079259
      dxz     :     0.019475
      dyz     :     0.017438
      dx2y2   :     0.015348
      dxy     :     0.016701

  3 C s       :     2.943376  s :     2.943376
      pz      :     1.088766  p :     3.310064
      px      :     1.080494
      py      :     1.140804
      dz2     :     0.007611  d :     0.079563
      dxz     :     0.022071
      dyz     :     0.021484
      dx2y2   :     0.013329
      dxy     :     0.015069

  4 C s       :     2.995252  s :     2.995252
      pz      :     1.115852  p :     3.232076
      px      :     0.968956
      py      :     1.147268
      dz2     :     0.009668  d :     0.088765
      dxz     :     0.021474
      dyz     :     0.023544
      dx2y2   :     0.017525
      dxy     :     0.016554

  5 Cls       :     5.695162  s :     5.695162
      pz      :     3.884057  p :    11.240637
      px      :     3.472666
      py      :     3.883913
      dz2     :     0.012154  d :     0.100819
      dxz     :     0.026226
      dyz     :     0.008778
      dx2y2   :     0.027056
      dxy     :     0.026606

  6 H s       :     0.803690  s :     0.803690
      pz      :     0.008723  p :     0.044364
      px      :     0.020027
      py      :     0.015615

  7 H s       :     0.802638  s :     0.802638
      pz      :     0.013948  p :     0.043865
      px      :     0.017023
      py      :     0.012894

  8 H s       :     0.802823  s :     0.802823
      pz      :     0.023368  p :     0.043700
      px      :     0.011376
      py      :     0.008955

  9 H s       :     0.802342  s :     0.802342
      pz      :     0.022340  p :     0.043893
      px      :     0.012323
      py      :     0.009230

 10 H s       :     0.801428  s :     0.801428
      pz      :     0.009210  p :     0.043338
      px      :     0.020622
      py      :     0.013505

 11 H s       :     0.794397  s :     0.794397
      pz      :     0.021534  p :     0.043671
      px      :     0.012622
      py      :     0.009515

 12 H s       :     0.796217  s :     0.796217
      pz      :     0.013280  p :     0.043656
      px      :     0.008782
      py      :     0.021594

 13 H s       :     0.792812  s :     0.792812
      pz      :     0.013903  p :     0.044531
      px      :     0.008919
      py      :     0.021709

 14 H s       :     0.792520  s :     0.792520
      pz      :     0.014740  p :     0.043878
      px      :     0.012816
      py      :     0.016321

 15 H s       :     0.787429  s :     0.787429
      pz      :     0.015133  p :     0.045670
      px      :     0.010878
      py      :     0.019660

 16 H s       :     0.787787  s :     0.787787
      pz      :     0.015725  p :     0.045115
      px      :     0.006743
      py      :     0.022647


---------------------------------
LOEWDIN BOND ORDERS (THRESH 0.050000)
---------------------------------
B(  0-C ,  1-C ) :   1.1409 B(  0-C ,  2-C ) :   0.0628 B(  0-C ,  6-H ) :   0.9276 
B(  0-C ,  7-H ) :   0.9299 B(  0-C ,  8-H ) :   0.9286 B(  1-C ,  2-C ) :   1.1127 
B(  1-C ,  3-C ) :   0.0561 B(  1-C ,  9-H ) :   0.8930 B(  1-C , 10-H ) :   0.8940 
B(  2-C ,  3-C ) :   1.0970 B(  2-C ,  4-C ) :   0.0713 B(  2-C , 11-H ) :   0.8862 
B(  2-C , 12-H ) :   0.8893 B(  3-C ,  4-C ) :   1.1161 B(  3-C ,  5-Cl) :   0.1276 
B(  3-C , 13-H ) :   0.8882 B(  3-C , 14-H ) :   0.8890 B(  4-C ,  5-Cl) :   1.3486 
B(  4-C , 15-H ) :   0.8915 B(  4-C , 16-H ) :   0.8929 

------------------------------------------
LOEWDIN REDUCED ORBITAL POPULATIONS PER MO
-------------------------------------------
THRESHOLD FOR PRINTING IS 0.1%%
                      0         1         2         3         4         5   
                 -101.19817 -10.07996 -10.02633 -10.02034 -10.01709 -10.00729
                   2.00000   2.00000   2.00000   2.00000   2.00000   2.00000
                  --------  --------  --------  --------  --------  --------
 0 C  s               0.0       0.0       0.0       0.0       0.0      99.7
 1 C  s               0.0       0.0       0.0       0.1      99.6       0.0
 2 C  s               0.0       0.0       0.0      99.6       0.1       0.0
 3 C  s               0.0       0.0      99.7       0.0       0.0       0.0
 4 C  s               0.0      99.7       0.0       0.0       0.0       0.0
 5 Cl s             100.0       0.0       0.0       0.0       0.0       0.0

                      6         7         8         9        10        11   
                  -9.35456  -7.10035  -7.09081  -7.09076  -0.81691  -0.75877
                   2.00000   2.00000   2.00000   2.00000   2.00000   2.00000
                  --------  --------  --------  --------  --------  --------
 0 C  s               0.0       0.0       0.0       0.0       0.2       8.5
 0 C  pz              0.0       0.0       0.0       0.0       0.0       0.3
 0 C  px              0.0       0.0       0.0       0.0       0.0       0.4
 0 C  py              0.0       0.0       0.0       0.0       0.1       1.7
 1 C  s               0.0       0.0       0.0       0.0       0.7      18.4
 1 C  pz              0.0       0.0       0.0       0.0       0.1       1.3
 1 C  px              0.0       0.0       0.0       0.0       0.3       0.5
 2 C  s               0.0       0.0       0.0       0.0       2.3      19.7
 2 C  pz              0.0       0.0       0.0       0.0       0.0       0.2
 2 C  px              0.0       0.0       0.0       0.0       0.7       0.0
 2 C  py              0.0       0.0       0.0       0.0       0.3       1.4
 3 C  s               0.0       0.0       0.0       0.0       7.9       9.0
 3 C  pz              0.0       0.0       0.0       0.0       1.6       0.2
 3 C  px              0.0       0.0       0.0       0.0       1.1       3.3
 3 C  py              0.0       0.0       0.0       0.0       0.2       0.4
 4 C  s               0.0       0.0       0.0       0.0      22.6       0.0
 4 C  pz              0.0       0.0       0.0       0.0       1.6       0.2
 4 C  px              0.1       0.0       0.0       0.0       3.5       5.2
 4 C  py              0.0       0.0       0.0       0.0       0.5       0.7
 4 C  dx2y2           0.0       0.0       0.0       0.0       0.1       0.0
 5 Cl s              99.8       0.0       0.0       0.0      44.8      10.9
 5 Cl pz              0.0      10.5      22.8      66.7       0.2       0.0
 5 Cl px              0.0      77.8      21.6       0.6       1.8       0.1
 5 Cl py              0.0      11.6      55.7      32.7       0.3       0.0
 5 Cl dxz             0.0       0.0       0.0       0.0       0.1       0.0
 5 Cl dx2y2           0.0       0.0       0.0       0.0       0.2       0.0
 5 Cl dxy             0.0       0.0       0.0       0.0       0.2       0.0
 6 H  s               0.0       0.0       0.0       0.0       0.0       1.1
 7 H  s               0.0       0.0       0.0       0.0       0.0       1.1
 8 H  s               0.0       0.0       0.0       0.0       0.0       1.1
 9 H  s               0.0       0.0       0.0       0.0       0.1       2.4
 9 H  pz              0.0       0.0       0.0       0.0       0.0       0.2
10 H  s               0.0       0.0       0.0       0.0       0.1       2.4
10 H  px              0.0       0.0       0.0       0.0       0.0       0.1
11 H  s               0.0       0.0       0.0       0.0       0.2       2.6
11 H  pz              0.0       0.0       0.0       0.0       0.0       0.2
12 H  s               0.0       0.0       0.0       0.0       0.2       2.6
12 H  py              0.0       0.0       0.0       0.0       0.0       0.2
13 H  s               0.0       0.0       0.0       0.0       0.8       1.3
14 H  s               0.0       0.0       0.0       0.0       0.9       1.2
15 H  s               0.0       0.0       0.0       0.0       2.6       0.0
15 H  py              0.0       0.0       0.0       0.0       0.1       0.0
16 H  s               0.0       0.0       0.0       0.0       2.6       0.0
16 H  py              0.0       0.0       0.0       0.0       0.2       0.0

                     12        13        14        15        16        17   
                  -0.69727  -0.62932  -0.57896  -0.51989  -0.44609  -0.42904
                   2.00000   2.00000   2.00000   2.00000   2.00000   2.00000
                  --------  --------  --------  --------  --------  --------
 0 C  s              16.9      12.9       6.1       2.9       0.1       0.1
 0 C  pz              0.3       0.0       1.2       3.1       0.8       1.9
 0 C  px              0.0       0.1       0.1       0.4       3.8       2.4
 0 C  py              0.5       0.9       2.2       3.0       0.0       5.1
 0 C  dyz             0.0       0.0       0.0       0.1       0.0       0.0
 1 C  s              10.8       0.6       6.9       8.2       0.1       0.1
 1 C  pz              0.1       0.0       2.2       6.0       1.8       5.6
 1 C  px              1.3       1.6       0.1       0.5       4.5      10.8
 1 C  py              2.2       7.7       2.3       0.1       0.4       3.0
 1 C  dyz             0.0       0.2       0.0       0.0       0.0       0.0
 2 C  s               0.8      14.3       0.0       7.7       0.1       0.0
 2 C  pz              1.2       0.0       5.1       0.9       0.4       7.7
 2 C  px              6.1       0.7       3.4       0.0       0.6      11.2
 2 C  py              0.2       1.0       0.0       5.3       6.3       0.1
 2 C  dxz             0.0       0.0       0.0       0.1       0.0       0.0
 2 C  dxy             0.1       0.0       0.1       0.0       0.0       0.0
 3 C  s              14.5       0.6       7.9       5.1       0.1       0.0
 3 C  pz              0.2       0.7       5.9       2.7       0.0       7.0
 3 C  px              0.1       4.9       0.4       2.5       7.3       1.3
 3 C  py              0.1       1.9       0.1       2.4      15.5       1.4
 3 C  dxz             0.0       0.1       0.0       0.0       0.0       0.0
 4 C  s               4.2      10.3       9.1       1.7       0.0       0.3
 4 C  pz              0.6       0.2       6.6       6.8       0.6       0.7
 4 C  px              4.6       1.4       0.1       0.5       3.7       4.5
 4 C  py              1.0       0.1       0.0       0.1      22.5       2.2
 4 C  dxz             0.1       0.0       0.0       0.0       0.0       0.0
 5 Cl s              11.3       9.4       3.8       0.2       0.0       2.0
 5 Cl pz              0.0       0.3       1.1       1.0       0.1       0.6
 5 Cl px              0.8       2.5       2.1       0.2       0.1       9.9
 5 Cl py              0.1       0.4       0.3       0.1       3.7       0.9
 5 Cl dxz             0.0       0.1       0.3       0.2       0.0       0.0
 5 Cl dx2y2           0.0       0.2       0.1       0.0       0.1       0.2
 5 Cl dxy             0.0       0.1       0.1       0.0       0.3       0.1
 6 H  s               2.8       3.4       2.6       1.6       0.6       2.2
 6 H  px              0.1       0.2       0.1       0.1       0.0       0.0
 6 H  py              0.1       0.1       0.1       0.0       0.0       0.0
 7 H  s               3.1       3.6       2.1       1.2       1.2       0.3
 7 H  pz              0.1       0.1       0.1       0.1       0.0       0.0
 7 H  px              0.1       0.1       0.1       0.0       0.0       0.0
 8 H  s               2.9       3.0       2.4       2.5       0.0       1.3
 8 H  pz              0.2       0.2       0.1       0.1       0.0       0.0
 9 H  s               1.8       0.1       3.1       5.4       0.0       4.2
 9 H  pz              0.1       0.0       0.1       0.2       0.0       0.1
 9 H  px              0.0       0.0       0.0       0.1       0.0       0.0
10 H  s               2.1       0.2       2.8       4.1       1.9       3.4
10 H  px              0.1       0.0       0.2       0.2       0.0       0.0
10 H  py              0.1       0.0       0.0       0.1       0.0       0.0
11 H  s               0.1       3.9       0.1       5.1       0.1       5.0
11 H  pz              0.0       0.3       0.0       0.2       0.0       0.1
12 H  s               0.2       3.8       0.1       4.8       1.5       1.1
12 H  pz              0.0       0.1       0.0       0.1       0.0       0.0
12 H  py              0.0       0.2       0.0       0.2       0.0       0.1
13 H  s               2.3       0.2       3.6       4.0       3.4       1.4
13 H  pz              0.1       0.0       0.0       0.1       0.1       0.0
13 H  py              0.2       0.0       0.2       0.2       0.0       0.0
14 H  s               2.8       0.1       3.7       2.6       5.3       0.5
14 H  pz              0.1       0.0       0.1       0.0       0.2       0.0
14 H  px              0.1       0.0       0.1       0.0       0.0       0.0
14 H  py              0.1       0.0       0.1       0.1       0.0       0.1
15 H  s               0.7       3.0       4.8       1.3       7.1       0.0
15 H  pz              0.0       0.1       0.1       0.0       0.2       0.0
15 H  py              0.0       0.2       0.2       0.1       0.1       0.0
16 H  s               0.8       2.8       4.4       2.5       4.3       0.2
16 H  pz              0.0       0.1       0.1       0.0       0.2       0.0
16 H  py              0.0       0.2       0.3       0.1       0.0       0.0

                     18        19        20        21        22        23   
                  -0.39694  -0.38545  -0.38343  -0.34221  -0.33426  -0.33115
                   2.00000   2.00000   2.00000   2.00000   2.00000   2.00000
                  --------  --------  --------  --------  --------  --------
 0 C  s               0.2       0.0       0.0       0.2       0.1       0.0
 0 C  pz              1.7      12.9       0.0      18.1       5.9       0.9
 0 C  px              7.0       0.2      13.1       2.0       0.1      16.7
 0 C  py              5.5       1.4       3.4       3.7      11.8       0.0
 0 C  dxz             0.1       0.0       0.0       0.0       0.2       0.0
 0 C  dyz             0.0       0.0       0.0       0.0       0.0       0.1
 0 C  dxy             0.0       0.0       0.0       0.3       0.0       0.1
 1 C  s               0.4       0.0       0.0       0.1       0.2       0.0
 1 C  pz              5.7       6.0       0.1       3.3       0.2       0.9
 1 C  px              1.4       0.1       9.7       0.2       0.4       1.3
 1 C  py              2.1       5.0       0.3       9.6       3.8       1.4
 1 C  dyz             0.0       0.0       0.0       0.0       0.1       0.0
 1 C  dx2y2           0.0       0.0       0.1       0.0       0.0       0.2
 1 C  dxy             0.0       0.0       0.0       0.1       0.0       0.1
 2 C  s               0.2       0.0       0.2       0.7       0.1       0.3
 2 C  pz              3.2      10.0       1.5       4.2       0.4       3.9
 2 C  px              0.2       1.0       1.0       0.6       6.3       5.5
 2 C  py             13.4       0.7       0.1       1.9       0.0       5.1
 2 C  dxz             0.0       0.0       0.0       0.1       0.0       0.1
 3 C  s               0.0       0.1       0.5       0.3       0.0       0.3
 3 C  pz              0.3      12.7       0.3      12.2       0.0       0.1
 3 C  px              2.1       3.2       1.6       0.7       0.2      11.6
 3 C  py              0.4       2.6       0.2       0.2      18.7       1.7
 3 C  dxz             0.0       0.1       0.0       0.1       0.2       0.1
 3 C  dyz             0.0       0.0       0.0       0.0       0.2       0.3
 3 C  dx2y2           0.1       0.0       0.0       0.2       0.0       0.0
 3 C  dxy             0.1       0.0       0.0       0.2       0.0       0.0
 4 C  s               0.0       0.1       0.2       0.4       0.2       0.5
 4 C  pz              4.3      11.1       7.8       7.5       0.0       0.2
 4 C  px              2.0       3.5      10.5       0.1       0.2       6.4
 4 C  py             14.7       2.3       0.1       0.0       6.4       0.2
 4 C  dz2             0.0       0.0       0.0       0.0       0.0       0.1
 4 C  dyz             0.1       0.0       0.0       0.0       0.2       0.1
 4 C  dx2y2           0.0       0.0       0.1       0.1       0.0       0.2
 5 Cl s               0.1       0.2       1.9       0.0       0.1       0.2
 5 Cl pz              0.6       5.9       0.2       1.2       1.8       9.5
 5 Cl px              3.9       0.5      20.9       3.0       4.3       3.2
 5 Cl py              2.5       0.0       6.5       0.4       2.7       3.6
 5 Cl dz2             0.0       0.1       0.1       0.1       0.0       0.0
 5 Cl dxz             0.0       0.3       0.0       0.0       0.0       0.1
 5 Cl dx2y2           0.3       0.0       0.1       0.0       0.0       0.0
 5 Cl dxy             0.1       0.0       0.2       0.0       0.1       0.0
 6 H  s               0.0       0.1       6.3       4.8       1.3       4.9
 6 H  pz              0.0       0.1       0.0       0.1       0.0       0.0
 6 H  py              0.1       0.0       0.1       0.0       0.0       0.1
 7 H  s               6.0       1.8       0.9       3.0       5.4       3.1
 7 H  px              0.1       0.1       0.0       0.0       0.1       0.0
 7 H  py              0.0       0.0       0.1       0.1       0.0       0.0
 8 H  s               0.0       5.5       1.3       3.9       5.0       2.9
 9 H  s               0.2       2.9       1.0       0.8       0.4       0.3
 9 H  py              0.0       0.0       0.0       0.1       0.0       0.0
10 H  s               1.2       0.0       3.0       1.9       0.9       0.0
10 H  px              0.0       0.0       0.0       0.1       0.0       0.0
11 H  s               0.0       2.3       0.0       1.2       2.3       5.2
11 H  px              0.0       0.1       0.0       0.0       0.0       0.0
11 H  py              0.1       0.0       0.0       0.0       0.0       0.0
12 H  s               7.6       0.2       0.6       1.3       0.1       0.0
12 H  py              0.1       0.0       0.0       0.0       0.0       0.0
13 H  s               0.0       0.4       0.0       3.8       7.3       2.6
13 H  pz              0.0       0.0       0.0       0.0       0.1       0.0
14 H  s               0.0       2.4       0.0       3.4       5.5       2.5
14 H  px              0.0       0.2       0.0       0.0       0.1       0.0
15 H  s               2.0       2.2       4.0       1.1       1.6       2.0
15 H  pz              0.2       0.0       0.0       0.0       0.0       0.0
15 H  px              0.0       0.1       0.0       0.0       0.0       0.0
15 H  py              0.0       0.0       0.2       0.0       0.0       0.0
16 H  s               8.6       0.3       0.8       1.3       3.6       0.1
16 H  px              0.0       0.0       0.1       0.0       0.0       0.1
16 H  py              0.1       0.1       0.0       0.0       0.0       0.0

                     24        25        26        27        28        29   
                  -0.29481  -0.28626  -0.28459  -0.26430  -0.25984   0.01160
                   2.00000   2.00000   2.00000   2.00000   2.00000   0.00000
                  --------  --------  --------  --------  --------  --------
 0 C  s               0.2       0.4       0.0       0.0       0.0       0.2
 0 C  pz              5.0       1.8       3.3       0.0       0.1       0.0
 0 C  px              7.1       0.6       3.2       0.0       0.2       0.0
 0 C  py              0.4      12.7       2.8       0.0       0.1       0.1
 0 C  dz2             0.2       0.0       0.1       0.0       0.0       0.0
 0 C  dyz             0.1       0.0       0.1       0.0       0.0       0.0
 0 C  dxy             0.0       0.2       0.3       0.0       0.0       0.0
 1 C  s               0.1       0.1       0.4       0.0       0.0       0.9
 1 C  pz             10.0       2.1       9.4       0.1       0.7       0.3
 1 C  px              9.9       2.2       9.4       0.0       1.2       0.4
 1 C  py              0.2      10.5       4.4       0.0       0.8       0.0
 1 C  dz2             0.5       0.0       0.0       0.0       0.1       0.0
 1 C  dxz             0.2       0.2       0.1       0.0       0.1       0.0
 1 C  dyz             0.2       0.0       0.2       0.0       0.0       0.0
 1 C  dx2y2           0.0       0.2       0.0       0.0       0.0       0.0
 1 C  dxy             0.0       0.4       0.3       0.0       0.0       0.0
 2 C  s               0.0       0.1       0.3       0.0       0.1       1.7
 2 C  pz              6.7       5.0       5.3       0.0       0.7       0.3
 2 C  px              2.8       0.8       8.5       0.3       3.2       0.6
 2 C  py              0.3       9.0       8.9       0.0       1.2       0.1
 2 C  dz2             0.3       0.0       0.0       0.0       0.0       0.0
 2 C  dxz             0.1       0.1       0.2       0.0       0.2       0.2
 2 C  dyz             0.2       0.1       0.2       0.0       0.0       0.0
 2 C  dx2y2           0.0       0.5       0.0       0.0       0.0       0.0
 2 C  dxy             0.0       0.2       0.2       0.0       0.0       0.0
 3 C  s               0.4       0.5       0.0       0.1       0.2       0.4
 3 C  pz              0.1       5.9       2.6       0.3       1.6       0.4
 3 C  px              0.7       1.8       4.9       1.0       5.2       0.0
 3 C  py              0.0       6.5       2.9       0.2       1.6       0.0
 3 C  dz2             0.0       0.0       0.0       0.0       0.0       0.4
 3 C  dxz             0.0       0.0       0.2       0.0       0.2       0.1
 3 C  dyz             0.1       0.1       0.2       0.2       0.0       0.0
 3 C  dx2y2           0.0       0.2       0.0       0.0       0.0       0.2
 3 C  dxy             0.0       0.0       0.2       0.0       0.0       0.3
 4 C  s               0.1       0.1       0.0       0.0       0.1       7.9
 4 C  pz              0.1       1.3       0.9       0.6       4.6       3.5
 4 C  px              0.4       0.0       0.0       1.3       0.3      23.2
 4 C  py              0.1       0.1       0.2       4.5       1.6       3.6
 4 C  dz2             0.0       0.0       0.0       0.0       0.0       0.1
 4 C  dxz             0.1       0.0       0.0       0.0       0.4       0.3
 4 C  dyz             0.0       0.1       0.1       0.5       0.0       0.0
 4 C  dx2y2           0.0       0.0       0.1       0.2       0.0       0.4
 4 C  dxy             0.0       0.1       0.0       0.1       0.1       0.3
 5 Cl s               0.0       0.0       0.0       0.0       0.0       5.2
 5 Cl pz             12.8       1.9       0.0       9.1      48.0       2.6
 5 Cl px              0.0       1.0       0.1      16.7       2.4      20.6
 5 Cl py              1.2       0.6       2.8      53.7      14.4       3.0
 5 Cl dz2             0.0       0.0       0.0       0.0       0.1       2.1
 5 Cl dxz             0.0       0.0       0.0       0.0       0.2       4.1
 5 Cl dyz             0.0       0.0       0.0       0.1       0.0       0.7
 5 Cl dx2y2           0.0       0.0       0.0       0.1       0.0       5.2
 5 Cl dxy             0.0       0.0       0.0       0.0       0.1       4.2
 6 H  s               2.5       5.0       0.6       0.0       0.3       0.1
 6 H  px              0.0       0.1       0.0       0.0       0.0       0.0
 7 H  s               0.2       0.0       6.9       0.0       0.0       0.0
 7 H  py              0.0       0.1       0.0       0.0       0.0       0.0
 8 H  s               6.3       0.1       1.4       0.0       0.3       0.0
 8 H  py              0.0       0.1       0.0       0.0       0.0       0.0
 9 H  s              14.4       0.0       1.5       0.0       1.7       0.4
 9 H  px              0.0       0.0       0.2       0.0       0.0       0.2
10 H  s               3.5       8.4       2.5       0.0       1.5       0.1
10 H  pz              0.1       0.0       0.1       0.0       0.0       0.0
10 H  px              0.0       0.1       0.0       0.0       0.0       0.0
10 H  py              0.0       0.0       0.1       0.0       0.0       0.0
11 H  s               7.5       0.4       0.8       0.0       2.8       1.0
11 H  px              0.0       0.0       0.1       0.0       0.0       0.1
11 H  py              0.0       0.1       0.1       0.0       0.0       0.0
12 H  s               3.1      10.3       2.2       0.0       0.0       0.1
12 H  pz              0.0       0.0       0.1       0.0       0.0       0.0
13 H  s               0.5       5.9       1.2       0.8       0.0       0.2
14 H  s               0.0       0.0       8.0       0.6       0.2       0.6
15 H  s               0.2       0.1       0.7       3.1       2.8       0.1
15 H  pz              0.0       0.0       0.0       0.1       0.0       0.2
15 H  px              0.0       0.0       0.0       0.0       0.0       0.9
16 H  s               0.0       0.9       0.0       6.1       0.0       0.1
16 H  pz              0.0       0.0       0.0       0.0       0.1       0.2
16 H  px              0.0       0.0       0.0       0.0       0.0       0.8
16 H  py              0.0       0.0       0.0       0.0       0.0       0.2

                     30        31        32        33        34        35   
                   0.09646   0.11529   0.12444   0.13327   0.14347   0.15047
                   0.00000   0.00000   0.00000   0.00000   0.00000   0.00000
                  --------  --------  --------  --------  --------  --------
 0 C  s              17.7       0.8       0.4      12.0       1.6       3.0
 0 C  pz              0.1       0.7       7.8       0.5       0.5       2.0
 0 C  px              0.4       1.5       1.5       0.6       3.5      11.0
 0 C  py              1.1       2.5       3.4       6.2       2.6       0.7
 0 C  dz2             0.0       0.0       0.1       0.0       0.1       0.1
 0 C  dxz             0.0       0.1       0.0       0.0       0.7       0.1
 0 C  dyz             0.1       0.3       0.7       0.0       0.1       0.1
 0 C  dx2y2           0.1       0.1       0.1       0.0       0.0       0.0
 0 C  dxy             0.0       0.1       0.1       0.1       0.0       0.1
 1 C  s               4.6       2.7      15.2       0.2       1.2       0.4
 1 C  pz              1.2       1.0       7.8       0.4       9.8       1.3
 1 C  px              0.9       1.6       0.9       2.4       3.1       5.7
 1 C  py              1.2       3.3       1.3       4.5       1.2       5.0
 1 C  dz2             0.0       0.0       0.1       0.0       0.2       0.3
 1 C  dxz             0.0       0.0       0.0       0.0       0.1       1.0
 1 C  dyz             0.1       0.4       0.0       0.6       0.1       0.0
 1 C  dx2y2           0.3       0.0       0.1       0.0       0.0       0.1
 1 C  dxy             0.2       0.1       0.0       0.1       1.2       0.0
 2 C  s               1.2      11.4       0.2       2.1       3.5       2.2
 2 C  pz              0.3       1.2       2.0       1.4       0.9       2.8
 2 C  px              0.2       0.6       8.1       1.6       3.9       2.0
 2 C  py              1.6       3.1       1.5       7.5      17.0       1.1
 2 C  dz2             0.0       0.1       0.1       0.0       0.7       0.0
 2 C  dxz             0.2       0.0       0.0       0.0       0.4       0.9
 2 C  dyz             0.0       0.1       0.8       0.0       0.2       0.1
 2 C  dx2y2           0.1       0.2       0.0       0.2       0.0       0.2
 2 C  dxy             0.1       0.0       0.4       0.0       0.2       0.2
 3 C  s               6.6       2.3      10.2       0.5       4.7       1.4
 3 C  pz              1.4       3.8       4.1       0.3      13.5       4.4
 3 C  px              0.5       9.7       0.3       2.0       2.6       3.7
 3 C  py              0.5       1.4       0.2       4.7       2.1       3.8
 3 C  dz2             0.4       0.5       0.0       0.2       0.0       0.0
 3 C  dxz             0.0       0.3       0.0       0.2       0.0       1.5
 3 C  dyz             0.0       0.4       0.0       0.6       0.4       0.0
 3 C  dx2y2           0.0       0.0       0.3       0.0       0.3       0.1
 3 C  dxy             0.1       0.2       0.0       0.0       0.4       0.0
 4 C  s              12.6       8.5       0.3       6.6       0.9       0.2
 4 C  pz              3.3       2.7       9.2       3.1       0.7       6.3
 4 C  px              3.2       6.9       1.5       5.0       0.4       3.4
 4 C  py              0.6       4.2       0.3       6.4       0.2       1.6
 4 C  dz2             0.0       0.3       0.4       0.0       0.0       0.4
 4 C  dxz             0.0       0.3       0.0       0.2       0.2       0.8
 4 C  dyz             0.1       0.1       0.2       0.5       0.0       0.1
 4 C  dx2y2           0.5       0.1       0.1       0.1       0.1       0.3
 4 C  dxy             0.4       0.1       0.0       0.1       0.1       0.2
 5 Cl s               2.0       1.2       0.1       1.5       0.6       0.4
 5 Cl pz              0.0       0.1       0.4       0.0       0.6       0.3
 5 Cl px              1.2       0.1       0.0       0.5       0.1       0.0
 5 Cl py              0.2       0.1       0.0       0.1       0.2       0.1
 5 Cl dz2             0.5       1.7       0.3       0.0       0.0       4.5
 5 Cl dxz             0.1       0.6       0.2       0.4       0.9       0.0
 5 Cl dyz             0.0       0.1       0.0       0.0       0.6       0.0
 5 Cl dx2y2           0.2       1.0       0.0       0.0       0.3       0.2
 5 Cl dxy             0.0       0.9       0.7       0.5       0.0       0.0
 6 H  s               3.9       0.2       0.3       1.4       0.4       0.2
 6 H  pz              0.0       0.0       0.2       0.0       0.1       0.0
 6 H  px              1.5       0.0       0.0       0.6       0.1       0.0
 6 H  py              0.3       0.3       0.1       0.7       0.0       0.0
 7 H  s               1.7       2.3       0.1       0.7       0.6       0.7
 7 H  pz              0.5       0.2       0.3       0.3       0.2       0.2
 7 H  px              0.5       0.1       0.0       0.2       0.1       0.1
 7 H  py              0.0       0.0       0.0       0.1       0.1       0.1
 8 H  s               1.3       0.4       0.7       1.9       0.3       1.9
 8 H  pz              0.4       0.1       0.0       0.8       0.0       1.2
 8 H  px              0.1       0.1       0.0       0.2       0.8       0.2
 8 H  py              0.3       0.1       0.3       0.1       0.0       0.0
 9 H  s               1.2       0.2       2.9       0.4       0.2       2.5
 9 H  pz              0.3       0.0       2.0       0.0       0.5       0.5
 9 H  px              0.2       0.1       0.3       0.0       0.1       0.4
 9 H  py              0.3       0.1       0.1       0.3       0.3       0.0
10 H  s               1.3       1.1       0.6       0.7       2.5       2.0
10 H  pz              0.0       0.1       0.1       0.1       0.4       0.3
10 H  px              0.7       0.2       0.5       0.0       0.1       0.8
10 H  py              0.0       0.5       0.6       0.3       0.4       0.0
11 H  s               0.3       1.6       0.2       0.3       0.9       2.4
11 H  pz              0.1       1.3       0.2       0.2       0.1       0.2
11 H  px              0.1       0.2       0.2       0.0       0.1       0.2
11 H  py              0.0       0.0       0.2       0.0       0.9       0.0
12 H  s               1.3       2.7       0.4       1.1       0.2       0.1
12 H  pz              0.1       0.9       0.2       0.2       0.3       0.0
12 H  px              0.2       0.0       0.3       0.1       0.2       0.0
12 H  py              0.2       0.8       0.0       0.6       0.8       0.3
13 H  s               2.4       0.1       1.8       1.5       2.0       0.9
13 H  pz              0.0       0.2       0.4       0.5       1.4       0.1
[...]
 1 C  py              0.1       1.6       1.0       0.0       0.0       0.0
 1 C  dz2             0.4       3.6       4.3       0.0       0.0       0.0
 1 C  dxz             1.9       2.4       5.5       0.0       0.0       0.0
 1 C  dyz             0.1       0.5       1.9       0.0       0.0       0.0
 1 C  dx2y2           0.4       1.1       0.0       0.0       0.0       0.0
 1 C  dxy             4.3       3.0       0.0       0.0       0.0       0.0
 2 C  s               0.9       0.8       0.0       2.9       4.0       4.5
 2 C  pz              2.2       1.7       3.5       0.0       0.0       0.0
 2 C  px              0.2       0.4       0.2       0.0       0.0       0.0
 2 C  py              1.0       1.7       0.2       0.0       0.0       0.0
 2 C  dz2             0.5       0.0       1.6       0.0       0.0       0.0
 2 C  dxz             4.6       0.4       1.6       0.0       0.0       0.0
 2 C  dyz             0.4       1.6       3.6       0.0       0.0       0.0
 2 C  dx2y2           0.1       2.3       1.8       0.0       0.0       0.0
 2 C  dxy             1.8       3.5       1.3       0.0       0.0       0.0
 3 C  s               0.2       0.8       0.5       1.6       0.2      64.3
 3 C  pz              0.8       1.9       0.4       0.0       0.0       0.0
 3 C  px              0.9       0.6       0.4       0.0       0.0       0.0
 3 C  py              4.9       1.1       2.5       0.0       0.0       0.0
 3 C  dz2             0.1       0.0       0.3       0.0       0.0       0.0
 3 C  dxz             4.2       0.0       0.2       0.0       0.0       0.0
 3 C  dyz             7.8       1.5       4.7       0.0       0.0       0.0
 3 C  dx2y2           0.2       3.4       1.2       0.0       0.0       0.0
 3 C  dxy             2.0       2.2       0.2       0.0       0.0       0.0
 4 C  s               0.2       0.1       0.1      89.2       7.4       1.2
 4 C  pz              0.4       0.3       0.2       0.0       0.0       0.0
 4 C  px              0.1       0.2       0.2       0.0       0.0       0.0
 4 C  py              0.7       0.2       0.1       0.0       0.0       0.0
 4 C  dxz             1.2       0.0       0.1       0.0       0.0       0.0
 4 C  dyz             1.3       0.9       0.2       0.0       0.0       0.0
 4 C  dx2y2           0.0       0.6       0.2       0.0       0.0       0.0
 4 C  dxy             0.6       0.1       0.1       0.0       0.0       0.0
 6 H  s               0.3       2.0       0.1       0.0       0.0       0.0
 6 H  pz              0.0       0.2       0.0       0.0       0.0       0.0
 6 H  px              0.3       3.0       0.0       0.0       0.0       0.0
 6 H  py              0.2       1.6       0.5       0.0       0.0       0.0
 7 H  s               0.5       0.0       0.0       0.0       0.0       0.0
 7 H  pz              0.2       0.0       0.0       0.0       0.0       0.0
 7 H  px              0.7       0.0       0.0       0.0       0.0       0.0
 7 H  py              0.5       0.1       0.1       0.0       0.0       0.0
 8 H  s               0.3       0.9       0.5       0.0       0.0       0.0
 8 H  pz              0.7       1.6       1.0       0.0       0.0       0.0
 8 H  px              0.2       0.4       0.2       0.0       0.0       0.0
 9 H  s               0.8       1.6       4.5       0.0       0.0       0.0
 9 H  pz              1.0       2.8      10.1       0.0       0.0       0.0
 9 H  px              1.3       0.8       1.5       0.0       0.0       0.0
 9 H  py              0.2       0.0       0.3       0.0       0.0       0.0
10 H  s               0.7       3.7       1.8       0.0       0.0       0.0
10 H  pz              0.0       1.2       0.4       0.0       0.0       0.0
10 H  px              1.1       5.7       2.4       0.0       0.0       0.0
10 H  py              1.0       2.9       0.8       0.0       0.0       0.0
11 H  s               1.6       0.2       2.9       0.0       0.0       0.0
11 H  pz              3.1       0.0       4.0       0.0       0.0       0.0
11 H  px              1.2       0.4       2.2       0.0       0.0       0.0
11 H  py              0.5       0.1       0.8       0.0       0.0       0.0
12 H  s               0.0       2.5       2.1       0.0       0.0       0.0
12 H  pz              0.2       1.3       0.7       0.0       0.0       0.0
12 H  px              0.0       0.2       0.4       0.0       0.0       0.0
12 H  py              0.0       5.6       3.9       0.0       0.0       0.0
13 H  s               2.3       1.9       2.9       0.0       0.0       0.0
13 H  pz              2.6       1.0       3.5       0.0       0.0       0.0
13 H  px              0.1       0.8       0.1       0.0       0.0       0.0
13 H  py              2.6       3.8       4.4       0.0       0.0       0.0
14 H  s               5.4       0.1       0.7       0.0       0.0       0.0
14 H  pz              5.7       0.0       0.5       0.0       0.0       0.0
14 H  px              3.6       0.0       0.5       0.0       0.0       0.0
14 H  py              4.7       0.4       0.3       0.0       0.0       0.0
15 H  s               0.9       0.0       0.0       0.0       0.0       0.0
15 H  pz              0.6       0.0       0.0       0.0       0.0       0.0
15 H  px              0.4       0.0       0.2       0.0       0.0       0.0
15 H  py              1.1       0.0       0.0       0.0       0.0       0.0
16 H  s               0.2       0.5       0.1       0.0       0.0       0.0
16 H  pz              0.3       0.6       0.0       0.0       0.0       0.0
16 H  px              0.1       0.0       0.0       0.0       0.0       0.0
16 H  py              0.1       0.9       0.2       0.0       0.0       0.0

                    174       175       176   
                  22.04464  22.05461  25.14053
                   0.00000   0.00000   0.00000
                  --------  --------  --------
 0 C  s               2.7       3.7       0.0
 1 C  s              33.0      36.3       0.0
 2 C  s              58.5      29.7       0.1
 3 C  s               4.2      29.3       0.1
 4 C  s               1.2       0.7       0.3
 5 Cl s               0.0       0.0      99.2


                      *****************************
                      * MAYER POPULATION ANALYSIS *
                      *****************************

  NA   - Mulliken gross atomic population
  ZA   - Total nuclear charge
  QA   - Mulliken gross atomic charge
  VA   - Mayer's total valence
  BVA  - Mayer's bonded valence
  FA   - Mayer's free valence

  ATOM       NA         ZA         QA         VA         BVA        FA
  0 C      6.5161     6.0000    -0.5161     3.7762     3.7762    -0.0000
  1 C      6.2592     6.0000    -0.2592     3.6207     3.6207     0.0000
  2 C      6.2967     6.0000    -0.2967     3.6072     3.6072     0.0000
  3 C      6.2958     6.0000    -0.2958     3.6644     3.6644     0.0000
  4 C      6.1837     6.0000    -0.1837     3.7527     3.7527     0.0000
  5 Cl    17.2506    17.0000    -0.2506     0.9889     0.9889    -0.0000
  6 H      0.8395     1.0000     0.1605     0.9584     0.9584     0.0000
  7 H      0.8440     1.0000     0.1560     0.9589     0.9589     0.0000
  8 H      0.8435     1.0000     0.1565     0.9604     0.9604     0.0000
  9 H      0.8468     1.0000     0.1532     0.9592     0.9592     0.0000
 10 H      0.8502     1.0000     0.1498     0.9578     0.9578     0.0000
 11 H      0.8395     1.0000     0.1605     0.9586     0.9586     0.0000
 12 H      0.8431     1.0000     0.1569     0.9587     0.9587     0.0000
 13 H      0.8297     1.0000     0.1703     0.9574     0.9574     0.0000
 14 H      0.8355     1.0000     0.1645     0.9560     0.9560     0.0000
 15 H      0.8110     1.0000     0.1890     0.9437     0.9437     0.0000
 16 H      0.8149     1.0000     0.1851     0.9452     0.9452     0.0000

  Mayer bond orders larger than 0.100000
B(  0-C ,  1-C ) :   0.8834 B(  0-C ,  6-H ) :   0.9767 B(  0-C ,  7-H ) :   0.9666 
B(  0-C ,  8-H ) :   0.9783 B(  1-C ,  2-C ) :   0.8979 B(  1-C ,  9-H ) :   0.9825 
B(  1-C , 10-H ) :   0.9634 B(  2-C ,  3-C ) :   0.8802 B(  2-C , 11-H ) :   0.9742 
B(  2-C , 12-H ) :   0.9773 B(  3-C ,  4-C ) :   0.9203 B(  3-C , 13-H ) :   0.9777 
B(  3-C , 14-H ) :   0.9586 B(  4-C ,  5-Cl) :   0.9380 B(  4-C , 15-H ) :   0.9529 
B(  4-C , 16-H ) :   0.9526 

-------
TIMINGS
-------

Total SCF time: 0 days 0 hours 0 min 22 sec 

Total time                  ....      22.770 sec
Sum of individual times     ....      22.266 sec  ( 97.8%)

SCF preparation             ....       0.415 sec  (  1.8%)
Fock matrix formation       ....      20.876 sec  ( 91.7%)
  Startup                   ....       0.064 sec  (  0.3% of F)
  Split-RI-J                ....       2.838 sec  ( 13.6% of F)
  XC integration            ....      13.699 sec  ( 65.6% of F)
    XC Preparation          ....       0.000 sec  (  0.0% of XC)
    Basis function eval.    ....       2.657 sec  ( 19.4% of XC)
    Density eval.           ....       3.811 sec  ( 27.8% of XC)
    XC-Functional eval.     ....       2.084 sec  ( 15.2% of XC)
    XC-Potential eval.      ....       4.199 sec  ( 30.7% of XC)
  CPCM terms                ....       3.685 sec  ( 17.7% of F)
Diagonalization             ....       0.000 sec  (  0.0%)
Density matrix formation    ....       0.262 sec  (  1.1%)
Total Energy calculation    ....       0.056 sec  (  0.2%)
Population analysis         ....       0.095 sec  (  0.4%)
Orbital Transformation      ....       0.059 sec  (  0.3%)
Orbital Orthonormalization  ....       0.000 sec  (  0.0%)
DIIS solution               ....       0.403 sec  (  1.8%)
  MO trafo                  ....       0.000 sec  (  0.0 % of DIIS)
  Orb grad                  ....       0.000 sec  (  0.0 % of DIIS)
  Energy W gradient         ....       0.000 sec  (  0.0 % of DIIS)
  DIIS error                ....       0.008 sec  (  1.9 % of DIIS)
  DIIS work                 ....       0.340 sec  ( 84.3 % of DIIS)
  Form Q                    ....       0.000 sec  (  0.0 % of DIIS)
  Form QpQm                 ....       0.000 sec  (  0.0 % of DIIS)
  Exp/Cayley                ....       0.000 sec  (  0.0 % of DIIS)
  Orb update                ....       0.000 sec  (  0.0 % of DIIS)
  Wake-sleep                ....       0.025 sec  (  6.2 % of DIIS)
SOSCF solution              ....       0.100 sec  (  0.4%)
  MO trafo                  ....       0.047 sec  ( 47.6 % of SOSCF)
  Orb grad                  ....       0.002 sec  (  1.6 % of SOSCF)
  Rot update                ....       0.029 sec  ( 28.7 % of SOSCF)
  Step                      ....       0.022 sec  ( 22.1 % of SOSCF)
Finished LeanSCF after  22.9 sec

Maximum memory used throughout the entire LEANSCF-calculation: 24.9 MB


-------------------------------------------------------------------------------
                          DFT DISPERSION CORRECTION                            
                                                                               
                                DFTD4 V3.4.0                                   
-------------------------------------------------------------------------------
The R2SCAN3C composite method is recognized
Using three-body term ABC
Active option DFTDOPT                   ...         5   

-------------------------   ----------------
Dispersion correction           -0.004451930
-------------------------   ----------------

------------------   -----------------
gCP correction             0.010279233
------------------   -----------------

-------------------------   --------------------
FINAL SINGLE POINT ENERGY      -657.269035992296
-------------------------   --------------------


------------------------------------------------------------------------------
                              ORCA PROPERTY CALCULATIONS
------------------------------------------------------------------------------

GBWName                                 ... sp_solv.gbw
Number of atoms                         ...     17
Number of basis functions               ...    177
Max core memory                         ...   1024 MB

Electric properties:
Dipole moment                           ... YES
Quadrupole moment                       ...  NO
Static polarizability (Dipole/Dipole)   ...  NO
Static polarizability (Dipole/Quad.)    ...  NO
Static polarizability (Quad./Quad.)     ...  NO
Static polarizability (Velocity)        ...  NO

Atomic electric properties:
Dipole moment                           ...  NO
Quadrupole moment                       ...  NO
Static polarizability                   ...  NO

Choice of electric origin               ... Center of mass
Position of electric origin             ...     0.000027     0.000003     0.000001

General magnetic properties:
Magnetizability                         ...  NO

EPR properties:
g-Tensor (aka g-matrix)                 ...  NO
Zero-Field splitting spin-orbit         ...  NO
Zero-field splitting spin-spin          ...  NO
Hyperfine couplings                     ...  NO (   0 nuclei)
Quadrupole couplings                    ...  NO (   0 nuclei)
Contact density                         ...  NO (   0 nuclei)

NMR properties:
Chemical shifts                         ...  NO (   0 nuclei)
Spin-rotation constants                 ...  NO (   0 nuclei)
Spin-spin couplings                     ...  NO (   0 nuclei,    0 pairs)

Choice of magnetic origin               ... GIAO
Position of magnetic origin             ...     0.000000     0.000000     0.000000

Properties with geometric perturbations:
SCF Hessian                             ...  NO
IR spectrum                             ...  NO
VCD spectrum                            ...  NO
X-ray spectroscopy properties:
SCF XES/XAS/RIXS spectra                ...  NO


-------------
DIPOLE MOMENT
-------------

Method             : SCF
Type of density    : Electron Density
Multiplicity       :   1
Irrep              :   0
Energy             :  -657.2748632953163224 Eh
Relativity type    : 
Basis              : AO
                                X                 Y                 Z
Electronic contribution:    -16.372268249      -1.958988382      -0.097023813
Nuclear contribution   :     17.463337654       2.396443105       0.368303439
                        -----------------------------------------
Total Dipole Moment    :      1.091069405       0.437454723       0.271279626
                        -----------------------------------------
Magnitude (a.u.)       :      1.206396169
Magnitude (Debye)      :      3.066415369



--------------------
Rotational spectrum 
--------------------
 
Rotational constants in cm-1:             0.211204             0.036444             0.034285 
Rotational constants in MHz :          6331.749992          1092.570174          1027.846705 

Dipole components along the rotational axes: 
x,y,z [a.u.] :    -1.126116     0.315294     0.296386 
x,y,z [Debye]:    -2.862358     0.801414     0.753354 

 

Dipole moment calculation done in   0.0 sec 

Maximum memory used throughout the entire PROP-calculation: 10.4 MB

--------------------------------
SUGGESTED CITATIONS FOR THIS RUN
--------------------------------

Below you find a list of papers that are relevant to this ORCA run
We neither can nor want to force you to cite these papers, but we appreciate if you do
You receive ORCA, which is the product of decades of hard work by many enthusiastic individuals, for free
The only thing we kindly ask in return is that you cite our papers,
We deeply appreciate it, if you show your appreciation for ORCA by not just citing the generic ORCA reference.

Please note that relegating all ORCA citations to the supporting information does *not* help us.
SI sections are not indexed - citations you put there will not count into any citation statistics
But we need these citations in order to attract the funding resources that allow us to do what we are doing

Therefore, if you are a happy ORCA user, please consider citing a few of the papers listed below in the main body of your paper

In addition to the list printed below, the program has created the file sp_solv.bibtex that contains the list in bibtex format
You can import this file easily into all common literature databanks and citation aid programs


List of essential papers. We consider these as the minimum necessary citations

  1. Neese,F.
     Software update: the ORCA program system, version 5.0
     WIRES Comput. Molec. Sci., 2022 12(1)e1606
     doi.org/10.1002/wcms.1606
  2. Grimme,S.; Hansen,A.; Ehlert,S.; Mewes,J.
     r2SCAN-3c: A 'Swiss army knife' composite electronic-structure method
     J. Chem. Phys., 2021 154 064103
     doi.org/10.1063/5.0040021

List of papers to cite with high priority. The work reported in these papers was absolutely
necessary for this run to complete.
Our perspective: the developers of density functionals and basis sets usually get cited in chemistry papers
Good! But without the algorithms to do something with them, the functionals or basis sets would not do anything.
Hence, in our opinion, the algorithm design and method developments papers are equally worthy of getting cited

  1. Neese,F.
     An improvement of the resolution of the identity approximation for the formation of the Coulomb matrix
     J. Comp. Chem., 2003 24(14)1740-1747
     doi.org/10.1002/jcc.10318
  2. Garcia-Rates,M.; Neese,F.
     Effect of the Solute Cavity on the Solvation Energy and its Derivatives within the Framework of the Gaussian Charge Scheme
     J. Comput. Chem., 2020 41 922-939
     doi.org/10.1002/jcc.26139
  3. Neese,F.
     The SHARK Integral Generation and Digestion System
     J. Comp. Chem., 2022  1-16
     doi.org/10.1002/jcc.26942
  4. Lehtola,S.; Steigemann,C.; Oliveira,M.; Marques,M.
     Recent developments in Libxc - A comprehensive library of functionals for density functional theory
     Software X, 2018 7 
     doi.org/10.1016/j.softx.2017.11.002
  5. Caldeweyher,E.; Bannwarth,C.; Grimme,S.
     Extension of the D3 dispersion coefficient model
     J. Chem. Phys., 2017 147 034112-XXXX
     doi.org/10.1063/1.4993215
  6. Caldeweyher,E.; Ehlert,S.; Hansen,A.; Neugebauer,H.; Spicher,S.; Bannwarth,C.; Grimme,S.
     A generally applicable atomic-charge dependent London dispersion correction
     J. Chem. Phys., 2019 150 154122-XXXX
     doi.org/10.1063/1.5090222
  7. Caldeweyher,E.; Mewes,J.; Ehlert,S.; Grimme,S.
     Extension and evaluation of the D4 London-dispersion model for periodic systems
     Phys. Chem. Chem. Phys., 2020 22(16)8499-8512
     doi.org/10.1039/D0CP00502A

List of suggested additional citations. These are papers that are important in the 'surrounding' of 
of this run, or papers that preceded the highly important papers. If you like your results we are grateful for a citation.

  1. Neese,F.
     The ORCA program system
     WIRES Comput. Molec. Sci., 2012 2(1)73-78
     doi.org/10.1002/wcms.81
  2. Neese,F.
     Software update: the ORCA program system, version 4.0
     WIRES Comput. Molec. Sci., 2018 8(1)1-6
     doi.org/10.1002/wcms.1327
  3. Neese,F.; Wennmohs,F.; Becker,U.; Riplinger,C.
     The ORCA quantum chemistry program package
     J. Chem. Phys., 2020 152 Art. No. L224108
     doi.org/10.1063/5.0004608

List of optional additional citations

  1. Neese,F.
     Approximate second-order SCF convergence for spin unrestricted wavefunctions
     Chem. Phys. Lett., 2000 325(1-3)93-98
     doi.org/10.1016/s0009-2614(00)00662-x

Timings for individual modules:

Sum of individual times          ...       24.458 sec (=   0.408 min)
Startup calculation              ...        1.087 sec (=   0.018 min)   4.4 %
SCF iterations                   ...       23.258 sec (=   0.388 min)  95.1 %
Property calculations            ...        0.113 sec (=   0.002 min)   0.5 %
                             ****ORCA TERMINATED NORMALLY****
TOTAL RUN TIME: 0 days 0 hours 0 minutes 25 seconds 308 msec
