
                                 *****************
                                 * O   R   C   A *
                                 *****************

                                            #,                                       
                                            ###                                      
                                            ####                                     
                                            #####                                    
                                            ######                                   
                                           ########,                                 
                                     ,,################,,,,,                         
                               ,,#################################,,                 
                          ,,##########################################,,             
                       ,#########################################, ''#####,          
                    ,#############################################,,   '####,        
                  ,##################################################,,,,####,       
                ,###########''''           ''''###############################       
              ,#####''   ,,,,##########,,,,          '''####'''          '####       
            ,##' ,,,,###########################,,,                        '##       
           ' ,,###''''                  '''############,,,                           
         ,,##''                                '''############,,,,        ,,,,,,###''
      ,#''                                            '''#######################'''  
     '                                                          ''''####''''         
             ,#######,   #######,   ,#######,      ##                                
            ,#'     '#,  ##    ##  ,#'     '#,    #''#        ,####,   ,####,        
            ##       ##  ##   ,#'  ##            #'  '#       #'       #'  '#        
            ##       ##  #######   ##           ,######,      #####,   #    #        
            '#,     ,#'  ##    ##  '#,     ,#' ,#      #,     #,   #   #,  ,#        
             '#######'   ##     ##  '#######'  #'      '#     '####' # '####'        



                #########################################################
                #                        -***-                          #
                #          Department of theory and spectroscopy        #
                #                                                       #
                #                      Frank Neese                      #
                #                                                       #
                #     Directorship, Architecture, Infrastructure        #
                #                    SHARK, DRIVERS                     #
                #        Core code/Algorithms in most modules           #
                #                                                       #
                #        Max Planck Institute fuer Kohlenforschung      #
                #                Kaiser Wilhelm Platz 1                 #
                #                 D-45470 Muelheim/Ruhr                 #
                #                      Germany                          #
                #                                                       #
                #                  All rights reserved                  #
                #                        -***-                          #
                #########################################################


                         Program Version 6.0.0  -   RELEASE  -


 With contributions from (in alphabetic order):
   Daniel Aravena         : Magnetic Suceptibility
   Michael Atanasov       : Ab Initio Ligand Field Theory (pilot matlab implementation)
   Alexander A. Auer      : GIAO ZORA, VPT2 properties, NMR spectrum
   Ute Becker             : All parallelization in ORCA, NUMFREQ, NUMCALC
   Giovanni Bistoni       : ED, misc. LED, open-shell LED, HFLD
   Martin Brehm           : Molecular dynamics
   Dmytro Bykov           : pre 5.0 version of the SCF Hessian
   Marcos Casanova-Páez   : Triplet and SCS-CIS(D). UHF-(DLPNO)-IP/EA/STEOM-CCSD. UHF-CVS-IP/STEOM-CCSD
   Vijay G. Chilkuri      : MRCI spin determinant printing, contributions to CSF-ICE
   Pauline Colinet        : FMM embedding
   Dipayan Datta          : RHF DLPNO-CCSD density
   Achintya Kumar Dutta   : EOM-CC, STEOM-CC
   Nicolas Foglia         : Exact transition moments, OPA infrastructure, MCD improvements
   Dmitry Ganyushin       : Spin-Orbit,Spin-Spin,Magnetic field MRCI
   Miquel Garcia          : C-PCM and meta-GGA Hessian, CCSD/C-PCM, Gaussian charge scheme
   Tiago L. C. Gouveia    : GS-ROHF, GS-ROCIS
   Yang Guo               : DLPNO-NEVPT2, F12-NEVPT2, CIM, IAO-localization
   Andreas Hansen         : Spin unrestricted coupled pair/coupled cluster methods
   Ingolf Harden          : AUTO-CI MPn and infrastructure 
   Benjamin Helmich-Paris : MC-RPA, TRAH-(SCF,CASSCF), AVAS, COSX integrals, SCF dyn. polar.
   Lee Huntington         : MR-EOM, pCC
   Robert Izsak           : Overlap fitted RIJCOSX, COSX-SCS-MP3, EOM
   Riya Kayal             : Wick's Theorem for AUTO-CI, AUTO-CI UHF-CCSDT
   Emily Kempfer          : AUTO-CI, RHF CISDT and CCSDT
   Christian Kollmar      : KDIIS, OOCD, Brueckner-CCSD(T), CCSD density, CASPT2, CASPT2-K, improved NEVPT2
   Axel Koslowski         : Symmetry handling
   Simone Kossmann        : Meta GGA functionals, TD-DFT gradient, OOMP2, (MP2 Hessian; deprecated post 5.0)
   Lucas Lang             : DCDCAS
   Marvin Lechner         : AUTO-CI (C++ implementation), FIC-MRCC
   Spencer Leger          : CASSCF response
   Dagmar Lenk            : GEPOL surface, SMD, ORCA-2-JSON
   Dimitrios Liakos       : Extrapolation schemes; Compound Job, initial MDCI parallelization
   Dimitrios Manganas     : Further ROCIS development; embedding schemes. LFT, Crystal Embedding
   Dimitrios Pantazis     : SARC Basis sets
   Anastasios Papadopoulos: AUTO-CI, single reference methods and gradients
   Taras Petrenko         : pre 6.0 DFT Hessian and TD-DFT gradient, (ASA, deprecated), ECA, 1-Electron XAS/XES, NRVS
   Peter Pinski           : DLPNO-MP2, DLPNO-MP2 Gradient
   Christoph Reimann      : Effective Core Potentials
   Marius Retegan         : Local ZFS, SOC
   Christoph Riplinger    : Optimizer, TS searches, QM/MM, DLPNO-CCSD(T), (RO)-DLPNO pert. Triples
   Michael Roemelt        : Original ROCIS implementation
   Masaaki Saitow         : Open-shell DLPNO-CCSD energy and density
   Barbara Sandhoefer     : DKH picture change effects
   Kantharuban Sivalingam : CASSCF convergence/infrastructure, NEVPT2 and variants, FIC-MRCI
   Bernardo de Souza      : ESD, SOC TD-DFT
   Georgi Stoychev        : AutoAux, RI-MP2 NMR, DLPNO-MP2 response, X2C
   Van Anh Tran           : RI-MP2 g-tensors
   Willem Van den Heuvel  : Paramagnetic NMR
   Zikuan Wang            : NOTCH, Electric field optimization 
   Frank Wennmohs         : Technical directorship and infrastructure
   Hang Xu                : AUTO-CI-Response properties 


 We gratefully acknowledge several colleagues who have allowed us to
 interface, adapt or use parts of their codes:
   Stefan Grimme, W. Hujo, H. Kruse, P. Pracht,  : VdW corrections, initial TS optimization,
                  C. Bannwarth, S. Ehlert,         DFT functionals, gCP, sTDA/sTD-DF
                  L. Wittmann, M. Mueller
   Ed Valeev, F. Pavosevic, A. Kumar             : LibInt (2-el integral package), F12 methods
   Garnet Chan, S. Sharma, J. Yang, R. Olivares  : DMRG
   Ulf Ekstrom                                   : XCFun DFT Library
   Mihaly Kallay                                 : mrcc  (arbitrary order and MRCC methods)
   Frank Weinhold                                : gennbo (NPA and NBO analysis)
   Simon Mueller                                 : openCOSMO-RS
   Christopher J. Cramer and Donald G. Truhlar   : smd solvation model
   Lars Goerigk                                  : TD-DFT with DH, B97 family of functionals
   V. Asgeirsson, H. Jonsson                     : NEB implementation
   FAccTs GmbH                                   : IRC, NEB, NEB-TS, DLPNO-Multilevel, CI-OPT
                                                   MM, QMMM, 2- and 3-layer-ONIOM, Crystal-QMMM,
                                                   LR-CPCM, SF, NACMEs, symmetry and pop. for TD-DFT,
                                                   nearIR, NL-DFT gradient (VV10), updates on ESD,
                                                   ML-optimized integration grids, MBIS, APM,
                                                   GOAT, DOCKER, SOLVATOR, interface openCOSMO-RS
   S Lehtola, MJT Oliveira, MAL Marques          : LibXC Library
   Liviu Ungur et al                             : ANISO software


 Your calculation uses the libint2 library for the computation of 2-el integrals
 For citations please refer to: http://libint.valeyev.net

 Your ORCA version has been built with support for libXC version: 6.2.2
 For citations please refer to: https://libxc.gitlab.io

 This ORCA versions uses:
   CBLAS   interface :  Fast vector & matrix operations
   LAPACKE interface :  Fast linear algebra routines
   SCALAPACK package :  Parallel linear algebra routines
   Shared memory     :  Shared parallel matrices
   BLAS/LAPACK       :  OpenBLAS 0.3.27  USE64BITINT DYNAMIC_ARCH NO_AFFINITY SkylakeX SINGLE_THREADED
        Core in use  :  SkylakeX
   Copyright (c) 2011-2014, The OpenBLAS Project


Your calculation utilizes the geometrical counterpoise correction gCP
Please cite in your paper:
H.Kruse, S. Grimme J.Chem.Phys., 136, (2012), 154101 
   

Your calculation utilizes the atom-pairwise dispersion correction
based on EEQ partial charges (D4)


================================================================================

----- Orbital basis set information -----
Your calculation utilizes the basis: def2-mTZVPP
   Stefan Grimme, Andreas Hansen, Sebastian Ehlert, and Jan-Michael Mewes 
   J. Chem. Phys. 154, 064103 (2021). DOI: 10.1063/5.0040021

----- AuxJ basis set information -----
Your calculation utilizes the auxiliary basis: def2/J
   F. Weigend, Phys. Chem. Chem. Phys. 8, 1057 (2006).

================================================================================
                                        WARNINGS
                       Please study these warnings very carefully!
================================================================================

Using LibXC functional ID 497 : Re-regularized SCAN exchange by Furness et al
[ 1]  J. W. Furness, A. D. Kaplan, J. Ning, J. P. Perdew, and J. Sun.,  J. Phys. Chem. Lett. 11, 8208-8215 (2020)
[ 2]  J. W. Furness, A. D. Kaplan, J. Ning, J. P. Perdew, and J. Sun.,  J. Phys. Chem. Lett. 11, 9248-9248 (2020)
Using LibXC functional ID 498 : Re-regularized SCAN correlation by Furness et al
[ 1]  J. W. Furness, A. D. Kaplan, J. Ning, J. P. Perdew, and J. Sun.,  J. Phys. Chem. Lett. 11, 8208-8215 (2020)
[ 2]  J. W. Furness, A. D. Kaplan, J. Ning, J. P. Perdew, and J. Sun.,  J. Phys. Chem. Lett. 11, 9248-9248 (2020)
Using LibXC functional ID 497 : Re-regularized SCAN exchange by Furness et al
[ 1]  J. W. Furness, A. D. Kaplan, J. Ning, J. P. Perdew, and J. Sun.,  J. Phys. Chem. Lett. 11, 8208-8215 (2020)
[ 2]  J. W. Furness, A. D. Kaplan, J. Ning, J. P. Perdew, and J. Sun.,  J. Phys. Chem. Lett. 11, 9248-9248 (2020)
Using LibXC functional ID 498 : Re-regularized SCAN correlation by Furness et al
[ 1]  J. W. Furness, A. D. Kaplan, J. Ning, J. P. Perdew, and J. Sun.,  J. Phys. Chem. Lett. 11, 8208-8215 (2020)
[ 2]  J. W. Furness, A. D. Kaplan, J. Ning, J. P. Perdew, and J. Sun.,  J. Phys. Chem. Lett. 11, 9248-9248 (2020)

================================================================================
                                       INPUT FILE
================================================================================
NAME = sp_gas.inp
|  1> ! r2scan-3c def2/J RI DEFGRID2 scfconv6 printgap
|  2> %output
|  3>     printlevel normal
|  4> end
|  5> * xyz 0 1
|  6> C 1.4595096893 -0.4765116534 -1.4305829738
|  7> C 1.5236747604 -0.176781806 0.0561070623
|  8> C 1.9517521491 1.2523860585 0.3519276648
|  9> S -0.0060807896 -0.6532226486 0.9807648065
| 10> C -1.5251171681 0.0247397714 0.1713298133
| 11> C -1.4508254821 1.512040798 -0.1229541551
| 12> C -1.9465072357 -0.7956823273 -1.0380788124
| 13> H 0.8216875304 0.2375464461 -1.9455574308
| 14> H 2.4597867037 -0.4032764644 -1.8532975028
| 15> H 1.0837519371 -1.4820319306 -1.6032462029
| 16> H 2.234150865 -0.8629430301 0.5295261224
| 17> H 2.9762582461 1.3986343948 0.0152977928
| 18> H 1.9068755777 1.4452023122 1.4211272251
| 19> H 1.3171137513 1.970128968 -0.1592936753
| 20> H -2.2437487168 -0.1448755072 0.9803401928
| 21> H -1.0809779811 2.0562836195 0.742554176
| 22> H -0.8035649355 1.7097528867 -0.973760158
| 23> H -2.447032803 1.8788932 -0.3630021179
| 24> H -1.9061312068 -1.8571515413 -0.8056770651
| 25> H -1.3051619469 -0.6005462124 -1.8923934531
| 26> H -2.9683873112 -0.5383089544 -1.3097705168
| 27> *
| 28> 
| 29>                          ****END OF INPUT****
================================================================================

                       ****************************
                       * Single Point Calculation *
                       ****************************

---------------------------------
CARTESIAN COORDINATES (ANGSTROEM)
---------------------------------
  C      1.459510   -0.476512   -1.430583
  C      1.523675   -0.176782    0.056107
  C      1.951752    1.252386    0.351928
  S     -0.006081   -0.653223    0.980765
  C     -1.525117    0.024740    0.171330
  C     -1.450825    1.512041   -0.122954
  C     -1.946507   -0.795682   -1.038079
  H      0.821688    0.237546   -1.945557
  H      2.459787   -0.403276   -1.853298
  H      1.083752   -1.482032   -1.603246
  H      2.234151   -0.862943    0.529526
  H      2.976258    1.398634    0.015298
  H      1.906876    1.445202    1.421127
  H      1.317114    1.970129   -0.159294
  H     -2.243749   -0.144876    0.980340
  H     -1.080978    2.056284    0.742554
  H     -0.803565    1.709753   -0.973760
  H     -2.447033    1.878893   -0.363002
  H     -1.906131   -1.857152   -0.805677
  H     -1.305162   -0.600546   -1.892393
  H     -2.968387   -0.538309   -1.309771

----------------------------
CARTESIAN COORDINATES (A.U.)
----------------------------
  NO LB      ZA    FRAG     MASS         X           Y           Z
   0 C     6.0000    0    12.011    2.758074   -0.900477   -2.703410
   1 C     6.0000    0    12.011    2.879328   -0.334069    0.106027
   2 C     6.0000    0    12.011    3.688277    2.366667    0.665047
   3 S    16.0000    0    32.060   -0.011491   -1.234412    1.853377
   4 C     6.0000    0    12.011   -2.882054    0.046751    0.323766
   5 C     6.0000    0    12.011   -2.741663    2.857343   -0.232350
   6 C     6.0000    0    12.011   -3.678366   -1.503622   -1.961685
   7 H     1.0000    0     1.008    1.552764    0.448898   -3.676571
   8 H     1.0000    0     1.008    4.648323   -0.762082   -3.502225
   9 H     1.0000    0     1.008    2.047994   -2.800634   -3.029696
  10 H     1.0000    0     1.008    4.221933   -1.630726    1.000659
  11 H     1.0000    0     1.008    5.624313    2.643036    0.028909
  12 H     1.0000    0     1.008    3.603473    2.731037    2.685541
  13 H     1.0000    0     1.008    2.488984    3.723004   -0.301021
  14 H     1.0000    0     1.008   -4.240071   -0.273775    1.852574
  15 H     1.0000    0     1.008   -2.042752    3.885813    1.403224
  16 H     1.0000    0     1.008   -1.518518    3.230965   -1.840140
  17 H     1.0000    0     1.008   -4.624222    3.550594   -0.685975
  18 H     1.0000    0     1.008   -3.602066   -3.509508   -1.522509
  19 H     1.0000    0     1.008   -2.466399   -1.134868   -3.576105
  20 H     1.0000    0     1.008   -5.609439   -1.017256   -2.475108

--------------------------------
INTERNAL COORDINATES (ANGSTROEM)
--------------------------------
 C      0   0   0     0.000000000000     0.00000000     0.00000000
 C      1   0   0     1.517959947169     0.00000000     0.00000000
 C      2   1   0     1.520947357570   112.82567872     0.00000000
 S      2   1   3     1.849902663159   113.81187127   129.30604712
 C      4   2   1     1.849943126249   111.46489927   309.24294531
 C      5   4   2     1.517954759666   113.81067160   309.14160866
 C      5   4   2     1.520963915754   112.19339688    78.78129408
 H      1   2   3     1.087149836595   111.04136415   305.47267438
 H      1   2   3     1.088395641057   109.16246645    64.58164356
 H      1   2   3     1.087233878649   110.65638938   183.98753720
 H      2   1   3     1.095316907170   109.08921410   238.97824162
 H      3   2   1     1.088265128258   109.33425383   294.81880469
 H      3   2   1     1.087372849623   110.25835517   175.47426332
 H      3   2   1     1.085941084347   111.40815398    54.61792481
 H      5   4   2     1.095307463528    99.13793344   193.48128318
 H      6   5   4     1.087240586969   110.65753984   313.25468722
 H      6   5   4     1.087155526948   111.04181751    74.73883589
 H      6   5   4     1.088408349615   109.16011533   193.84763525
 H      7   5   4     1.087362721509   110.26285158    45.15139739
 H      7   5   4     1.085935259635   111.40780754   284.28829237
 H      7   5   4     1.088253795776   109.33579743   164.49340730

---------------------------
INTERNAL COORDINATES (A.U.)
---------------------------
 C      0   0   0     0.000000000000     0.00000000     0.00000000
 C      1   0   0     2.868528582412     0.00000000     0.00000000
 C      2   1   0     2.874173969918   112.82567872     0.00000000
 S      2   1   3     3.495809407782   113.81187127   129.30604712
 C      4   2   1     3.495885871940   111.46489927   309.24294531
 C      5   4   2     2.868518779450   113.81067160   309.14160866
 C      5   4   2     2.874205260351   112.19339688    78.78129408
 H      1   2   3     2.054415457701   111.04136415   305.47267438
 H      1   2   3     2.056769686952   109.16246645    64.58164356
 H      1   2   3     2.054574274167   110.65638938   183.98753720
 H      2   1   3     2.069848984405   109.08921410   238.97824162
 H      3   2   1     2.056523053505   109.33425383   294.81880469
 H      3   2   1     2.054836891249   110.25835517   175.47426332
 H      3   2   1     2.052131246990   111.40815398    54.61792481
 H      5   4   2     2.069831138508    99.13793344   193.48128318
 H      6   5   4     2.054586951056   110.65753984   313.25468722
 H      6   5   4     2.054426210911   111.04181751    74.73883589
 H      6   5   4     2.056793702646   109.16011533   193.84763525
 H      7   5   4     2.054817751887   110.26285158    45.15139739
 H      7   5   4     2.052120239879   111.40780754   284.28829237
 H      7   5   4     2.056501638218   109.33579743   164.49340730

---------------------
BASIS SET INFORMATION
---------------------
There are 3 groups of distinct atoms

 Group   1 Type C   : 11s6p1d contracted to 5s3p1d pattern {62111/411/1}
 Group   2 Type S   : 14s9p2d contracted to 5s4p2d pattern {73211/6111/11}
 Group   3 Type H   : 4s1p contracted to 2s1p pattern {31/1}

Atom   0C    basis set group =>   1
Atom   1C    basis set group =>   1
Atom   2C    basis set group =>   1
Atom   3S    basis set group =>   2
Atom   4C    basis set group =>   1
Atom   5C    basis set group =>   1
Atom   6C    basis set group =>   1
Atom   7H    basis set group =>   3
Atom   8H    basis set group =>   3
Atom   9H    basis set group =>   3
Atom  10H    basis set group =>   3
Atom  11H    basis set group =>   3
Atom  12H    basis set group =>   3
Atom  13H    basis set group =>   3
Atom  14H    basis set group =>   3
Atom  15H    basis set group =>   3
Atom  16H    basis set group =>   3
Atom  17H    basis set group =>   3
Atom  18H    basis set group =>   3
Atom  19H    basis set group =>   3
Atom  20H    basis set group =>   3
---------------------------------
AUXILIARY/J BASIS SET INFORMATION
---------------------------------
There are 3 groups of distinct atoms

 Group   1 Type C   : 12s5p4d2f1g contracted to 6s4p3d1f1g pattern {711111/2111/211/2/1}
 Group   2 Type S   : 14s5p5d2f1g contracted to 8s4p3d1f1g pattern {71111111/2111/311/2/1}
 Group   3 Type H   : 5s2p1d contracted to 3s1p1d pattern {311/2/1}

Atom   0C    basis set group =>   1
Atom   1C    basis set group =>   1
Atom   2C    basis set group =>   1
Atom   3S    basis set group =>   2
Atom   4C    basis set group =>   1
Atom   5C    basis set group =>   1
Atom   6C    basis set group =>   1
Atom   7H    basis set group =>   3
Atom   8H    basis set group =>   3
Atom   9H    basis set group =>   3
Atom  10H    basis set group =>   3
Atom  11H    basis set group =>   3
Atom  12H    basis set group =>   3
Atom  13H    basis set group =>   3
Atom  14H    basis set group =>   3
Atom  15H    basis set group =>   3
Atom  16H    basis set group =>   3
Atom  17H    basis set group =>   3
Atom  18H    basis set group =>   3
Atom  19H    basis set group =>   3
Atom  20H    basis set group =>   3

Checking for AutoStart:
The File: sp_gas.gbw exists
Trying to determine its content:
     ... Fine, the file contains calculation information
     ... Fine, the calculation information was read
     ... Fine, the file contains a basis set
     ... Fine, the basis set was read
     ... Fine, the file contains a geometry
     ... Fine, the geometry was read
     ... Fine, the file contains a set of orbitals
     ... Fine, the orbitals can be read
     => possible old guess file was deleted
     => GBW file was renamed to GES file
     => GES file is set as startup file
     => Guess is set to MORead
     ... now leaving AutoStart

------------------------------------------------------------------------------
                             ORCA STARTUP CALCULATIONS
                           -- RI-GTO INTEGRALS CHOSEN --
------------------------------------------------------------------------------
------------------------------------------------------------------------------
                   ___                                                        
                  /   \      - P O W E R E D   B Y -                         
                 /     \                                                     
                 |  |  |   _    _      __       _____    __    __             
                 |  |  |  | |  | |    /  \     |  _  \  |  |  /  |          
                  \  \/   | |  | |   /    \    | | | |  |  | /  /          
                 / \  \   | |__| |  /  /\  \   | |_| |  |  |/  /          
                |  |  |   |  __  | /  /__\  \  |    /   |      \           
                |  |  |   | |  | | |   __   |  |    \   |  |\   \          
                \     /   | |  | | |  |  |  |  | |\  \  |  | \   \       
                 \___/    |_|  |_| |__|  |__|  |_| \__\ |__|  \__/        
                                                                              
                      - O R C A' S   B I G   F R I E N D -                    
                                      &                                       
                       - I N T E G R A L  F E E D E R -                       
                                                                              
 v1 FN, 2020, v2 2021, v3 2022-2024                                           
------------------------------------------------------------------------------


----------------------
SHARK INTEGRAL PACKAGE
----------------------

Number of atoms                             ...     21
Number of basis functions                   ...    211
Number of shells                            ...    107
Maximum angular momentum                    ...      2
Integral batch strategy                     ... SHARK/LIBINT Hybrid
RI-J (if used) integral strategy            ... SPLIT-RIJ (Revised 2003 algorithm where possible)
Printlevel                                  ...      1
Contraction scheme used                     ... SEGMENTED contraction
Prescreening option                         ... SCHWARTZ
   Thresh                                   ... 1.000e-10
   Tcut                                     ... 1.000e-11
   Tpresel                                  ... 1.000e-11 
Coulomb Range Separation                    ... NOT USED
Exchange Range Separation                   ... NOT USED
Multipole approximations                    ... NOT USED
Finite Nucleus Model                        ... NOT USED
CABS basis                                  ... NOT available
Auxiliary Coulomb fitting basis             ... AVAILABLE
   # of basis functions in Aux-J            ...    499
   # of shells in Aux-J                     ...    177
   Maximum angular momentum in Aux-J        ...      4
Auxiliary J/K fitting basis                 ... NOT available
Auxiliary Correlation fitting basis         ... NOT available
Auxiliary 'external' fitting basis          ... NOT available

Checking pre-screening integrals            ... done (  0.0 sec) Dimension = 107
Check shell pair data                       ... done (  0.0 sec)
Shell pair information
Shell pair cut-off parameter TPreSel        ...   1.0e-11
Total number of shell pairs                 ...      5778
Shell pairs after pre-screening             ...      5273
Total number of primitive shell pairs       ...     20920
Primitive shell pairs kept                  ...     13415
          la=0 lb=0:   1832 shell pairs
          la=1 lb=0:   2056 shell pairs
          la=1 lb=1:    606 shell pairs
          la=2 lb=0:    475 shell pairs
          la=2 lb=1:    268 shell pairs
          la=2 lb=2:     36 shell pairs

Calculating one electron integrals          ... done (  0.0 sec)
Calculating RI/J V-Matrix + Cholesky decomp.... done (  0.1 sec)
Calculating Nuclear repulsion               ... done (  0.0 sec) ENN=    405.572572411969 Eh

Diagonalization of the overlap matrix:
Smallest eigenvalue                        ... 2.387e-04
Time for diagonalization                   ...    0.005 sec
Threshold for overlap eigenvalues          ... 1.000e-07
Number of eigenvalues below threshold      ... 0
Time for construction of square roots      ...    0.014 sec
Total time needed                          ...    0.030 sec

-------------------
DFT GRID GENERATION
-------------------

General Integration Accuracy     IntAcc      ... 4.388
Radial Grid Type                 RadialGrid  ... OptM3 with GC (2021)
Angular Grid (max. ang.)         AngularGrid ... 4 (Lebedev-302)
Angular grid pruning method      GridPruning ... 4 (adaptive)
Weight generation scheme         WeightScheme... mBecke (2022)
Basis function cutoff            BFCut       ... 1.0000e-10
Integration weight cutoff        WCut        ... 1.0000e-14
Partially contracted basis set               ... off
Rotationally invariant grid construction     ... off
Angular grids for H and He will be reduced by one unit

Total number of grid points                  ...    87927
Total number of batches                      ...     1385
Average number of points per batch           ...       63
Average number of grid points per atom       ...     4187
Initializing property integral containers    ... done (  0.0 sec)

SHARK setup successfully completed in   1.3 seconds

Maximum memory used throughout the entire STARTUP-calculation: 39.4 MB
-------------------------------------------------------------------------------
                                 ORCA GUESS
                   Start orbitals & Density for SCF / CASSCF
-------------------------------------------------------------------------------

------------
SCF SETTINGS
------------
Hamiltonian:
 Density Functional     Method          .... DFT(GTOs)
  Functional kind                       .... Exchange
  Functional name                       .... Re-regularized SCAN exchange by Furness et al
  Functional family                     .... MGGA
  Functional refs                              
    [ 0] J. W. Furness, A. D. Kaplan, J. Ning, J. P. Perdew, and J. Sun.,  J. Phys. Chem. Lett. 11, 8208-8215 (2020), doi: 10.1021/acs.jpclett.0c02405
    [ 1] J. W. Furness, A. D. Kaplan, J. Ning, J. P. Perdew, and J. Sun.,  J. Phys. Chem. Lett. 11, 9248-9248 (2020), doi: 10.1021/acs.jpclett.0c03077
  Functional external parameters        .... 6
    Parameter  0 _c1        =  6.670000e-01 : c1 parameter        
    Parameter  1 _c2        =  8.000000e-01 : c2 parameter        
    Parameter  2 _d         =  1.240000e+00 : d parameter         
    Parameter  3 _k1        =  6.500000e-02 : k1 parameter        
    Parameter  4 _eta       =  1.000000e-03 : eta parameter       
    Parameter  5 _dp2       =  3.610000e-01 : dp2 parameter       
  Functional kind                       .... Correlation
  Functional name                       .... Re-regularized SCAN correlation by Furness et al
  Functional family                     .... MGGA
  Functional refs                              
    [ 0] J. W. Furness, A. D. Kaplan, J. Ning, J. P. Perdew, and J. Sun.,  J. Phys. Chem. Lett. 11, 8208-8215 (2020), doi: 10.1021/acs.jpclett.0c02405
    [ 1] J. W. Furness, A. D. Kaplan, J. Ning, J. P. Perdew, and J. Sun.,  J. Phys. Chem. Lett. 11, 9248-9248 (2020), doi: 10.1021/acs.jpclett.0c03077
  Functional external parameters        .... 1
    Parameter  0 _eta       =  1.000000e-03 : Regularization parameter
 Gradients option       PostSCFGGA      .... off
 RI-approximation to the Coulomb term is turned on
   Number of AuxJ basis functions       .... 499


General Settings:
 Integral files         IntName         .... sp_gas
 Hartree-Fock type      HFTyp           .... RHF
 Total Charge           Charge          ....    0
 Multiplicity           Mult            ....    1
 Number of Electrons    NEL             ....   66
 Basis Dimension        Dim             ....  211
 Nuclear Repulsion      ENuc            ....    405.5725724120 Eh

Convergence Acceleration:
 AO-DIIS                CNVDIIS         .... on
   Start iteration      DIISMaxIt       ....    12
   Startup error        DIISStart       ....  0.200000
   # of expansion vecs  DIISMaxEq       ....     5
   Bias factor          DIISBfac        ....   1.050
   Max. coefficient     DIISMaxC        ....  10.000
 MO-DIIS                CNVKDIIS        .... off
 Trust-Rad. Augm. Hess. CNVTRAH         .... auto
   Auto Start mean grad. ratio tolernc. ....  1.125000
   Auto Start start iteration           ....     1
   Auto Start num. interpolation iter.  ....    10
   Max. Number of Micro iterations      ....    24
   Max. Number of Macro iterations      .... Maxiter - #DIIS iter
   Number of Davidson start vectors     ....     2
   Converg. threshold    (grad. norm)   ....   3.330e-04
   Grad. Scal. Fac. for Micro threshold ....   0.100
   Minimum threshold for Micro iter.    ....   1.000e-02
   NR start threshold (gradient norm)   ....   1.000e-04
   Initial trust radius                 ....   0.400
   Minimum AH scaling param. (alpha)    ....   1.000
   Maximum AH scaling param. (alpha)    .... 1000.000
   Quad. conv. algorithm                .... NR
   White noise on init. David. guess    .... on
   Maximum white noise                  ....   0.010
   Pseudo random numbers                .... off
   Inactive MOs                         .... canonical
   Orbital update algorithm             .... Taylor
   Preconditioner                       .... Diag
   Full preconditioner red. dimension   ....   250
   COSX micro iterations for RIJONX calc.... off
 SOSCF                  CNVSOSCF        .... on
   Start iteration      SOSCFMaxIt      ....   150
   Startup grad/error   SOSCFStart      ....  0.003300
   Hessian update       SOSCFHessUp     .... L-BFGS
 Level Shifting         CNVShift        .... on
   Level shift para.    LevelShift      ....    0.2500
   Turn off err/grad.   ShiftErr        ....    0.0010
 Zerner damping         CNVZerner       .... off
 Static damping         CNVDamp         .... on
   Fraction old density DampFac         ....    0.7000
   Max. Damping (<1)    DampMax         ....    0.9800
   Min. Damping (>=0)   DampMin         ....    0.0000
   Turn off err/grad.   DampErr         ....    0.1000

SCF Procedure:
 Maximum # iterations   MaxIter         ....   125
 SCF integral mode      SCFMode         .... Direct
   Integral package                     .... SHARK and LIBINT hybrid scheme
 Reset frequency        DirectResetFreq ....    20
 Integral Threshold     Thresh          ....  1.000e-10 Eh
 Primitive CutOff       TCut            ....  1.000e-11 Eh

Convergence Tolerance:
 Convergence Check Mode ConvCheckMode   .... Total+1el-Energy
 Convergence forced     ConvForced      .... 0
 Energy Change          TolE            ....  1.000e-06 Eh
 1-El. energy change                    ....  1.000e-03 Eh
 Orbital Gradient       TolG            ....  3.330e-04
 Orbital Rotation angle TolX            ....  3.330e-04
 DIIS Error             TolErr          ....  1.000e-06

---------------------
INITIAL GUESS: MOREAD
---------------------
Guess MOs are being read from file: sp_gas.ges
Input Geometry matches current geometry (good)
Atom 0: N(Shells)= 9 and 6 - projection required
Input basis set needs projection
NBasis(read)= 130
NBasis(calc)= 211
Basis set overlap was calculated
Using GuessMode=FMatrix for the initial guess
C*T matrix was formed
Effective Fockian was calculated
Effective Fockian was diagonalized
Initial density was built
                      ------------------
                      INITIAL GUESS DONE (   0.1 sec)
                      ------------------
             **** ENERGY FILE WAS UPDATED (sp_gas.en.tmp) ****
Finished Guess after   0.3 sec
Maximum memory used throughout the entire GUESS-calculation: 14.6 MB

-------------------------------------------------------------------------------------------
                                      ORCA LEAN-SCF
                              memory conserving SCF solver
-------------------------------------------------------------------------------------------

----------------------------------------D-I-I-S--------------------------------------------
Iteration    Energy (Eh)           Delta-E    RMSDP     MaxDP     DIISErr   Damp  Time(sec)
-------------------------------------------------------------------------------------------
               ***  Starting incremental Fock matrix formation  ***
    1    -635.0066749102242056     0.00e+00  3.83e-03  1.49e-01  4.62e-01  0.700   2.8
    2    -635.0517518297930337    -4.51e-02  3.09e-03  1.02e-01  3.24e-01  0.700   2.6
    3    -635.0836771932607689    -3.19e-02  2.26e-03  6.95e-02  2.26e-01  0.700   2.5
                               ***Turning on AO-DIIS***
    4    -635.1060967975105314    -2.24e-02  1.64e-03  4.75e-02  1.58e-01  0.700   2.4
    5    -635.1218253031239556    -1.57e-02  1.17e-03  3.29e-02  1.11e-01  0.700   2.4
    6    -635.1328546339231025    -1.10e-02  8.26e-04  2.28e-02  7.77e-02  0.700   2.4
    7    -635.1405856505172096    -7.73e-03  1.94e-03  5.29e-02  5.44e-02  0.000   2.4
                              *** Initializing SOSCF ***
---------------------------------------S-O-S-C-F--------------------------------------
Iteration    Energy (Eh)           Delta-E    RMSDP     MaxDP     MaxGrad    Time(sec)
--------------------------------------------------------------------------------------
    8    -635.1586593087976098    -1.81e-02  1.28e-05  3.52e-04  1.16e-04     2.5
               *** Restarting incremental Fock matrix formation ***
    9    -635.1586594161966559    -1.07e-07  6.65e-06  9.33e-05  2.77e-05     2.7
                  *** Gradient check signals convergence ***

               *****************************************************
               *                     SUCCESS                       *
               *           SCF CONVERGED AFTER   9 CYCLES          *
               *****************************************************

             **** ENERGY FILE WAS UPDATED (sp_gas.en.tmp) ****

----------------
TOTAL SCF ENERGY
----------------

Total Energy       :       -635.15865941619666 Eh          -17283.54580 eV

Components:
Nuclear Repulsion  :        405.57257241196942 Eh           11036.19076 eV
Electronic Energy  :      -1040.73123182816607 Eh          -28319.73657 eV
One Electron Energy:      -1673.16042369824004 Eh          -45529.00978 eV
Two Electron Energy:        632.42919187007408 Eh           17209.27321 eV

Virial components:
Potential Energy   :      -1268.17751820232206 Eh          -34508.86467 eV
Kinetic Energy     :        633.01885878612529 Eh           17225.31887 eV
Virial Ratio       :          2.00338031102924

DFT components:
N(Alpha)           :       32.999997575954 electrons
N(Beta)            :       32.999997575954 electrons
N(Total)           :       65.999995151907 electrons
E(X)               :      -61.241854122884 Eh       
E(C)               :       -2.154209003732 Eh       
E(XC)              :      -63.396063126616 Eh       

---------------
SCF CONVERGENCE
---------------

  Last Energy change         ...    1.0740e-07  Tolerance :   1.0000e-06
  Last MAX-Density change    ...    9.3349e-05  Tolerance :   1.0000e-05
  Last RMS-Density change    ...    6.6481e-06  Tolerance :   1.0000e-06
  Last DIIS Error            ...    1.1559e-04  Tolerance :   1.0000e-06
  Last Orbital Gradient      ...    2.7674e-05  Tolerance :   3.3300e-04
  Last Orbital Rotation      ...    5.5710e-05  Tolerance :   3.3300e-04


----------------
ORBITAL ENERGIES
----------------

  NO   OCC          E(Eh)            E(eV) 
   0   2.0000     -88.532251     -2409.0850 
   1   2.0000     -10.067477      -273.9500 
   2   2.0000     -10.067466      -273.9497 
   3   2.0000     -10.025618      -272.8109 
   4   2.0000     -10.025614      -272.8108 
   5   2.0000     -10.020662      -272.6761 
   6   2.0000     -10.020648      -272.6757 
   7   2.0000      -7.826410      -212.9675 
   8   2.0000      -5.774245      -157.1252 
   9   2.0000      -5.769908      -157.0072 
  10   2.0000      -5.762942      -156.8176 
  11   2.0000      -0.790846       -21.5200 
  12   2.0000      -0.759078       -20.6556 
  13   2.0000      -0.662522       -18.0281 
  14   2.0000      -0.656619       -17.8675 
  15   2.0000      -0.650504       -17.7011 
  16   2.0000      -0.562829       -15.3154 
  17   2.0000      -0.512917       -13.9572 
  18   2.0000      -0.438366       -11.9286 
  19   2.0000      -0.421708       -11.4753 
  20   2.0000      -0.413298       -11.2464 
  21   2.0000      -0.391905       -10.6643 
  22   2.0000      -0.390719       -10.6320 
  23   2.0000      -0.378698       -10.3049 
  24   2.0000      -0.369271       -10.0484 
  25   2.0000      -0.351817        -9.5734 
  26   2.0000      -0.331792        -9.0285 
  27   2.0000      -0.330137        -8.9835 
  28   2.0000      -0.321087        -8.7372 
  29   2.0000      -0.316955        -8.6248 
  30   2.0000      -0.280766        -7.6400 
  31   2.0000      -0.254180        -6.9166 
  32   2.0000      -0.185748        -5.0544 
  33   0.0000       0.032086         0.8731 
  34   0.0000       0.038220         1.0400 
  35   0.0000       0.082265         2.2385 
  36   0.0000       0.109995         2.9931 
  37   0.0000       0.110831         3.0159 
  38   0.0000       0.118043         3.2121 
  39   0.0000       0.118350         3.2205 
  40   0.0000       0.133415         3.6304 
  41   0.0000       0.139389         3.7930 
  42   0.0000       0.145233         3.9520 
  43   0.0000       0.153892         4.1876 
*Only the first 10 virtual orbitals were printed.

                    ********************************
                    * MULLIKEN POPULATION ANALYSIS *
                    ********************************

-----------------------
MULLIKEN ATOMIC CHARGES
-----------------------
   0 C :   -0.515888
   1 C :   -0.031741
   2 C :   -0.446570
   3 S :   -0.150677
   4 C :   -0.031156
   5 C :   -0.515757
   6 C :   -0.446927
   7 H :    0.147594
   8 H :    0.143631
   9 H :    0.170092
  10 H :    0.156465
  11 H :    0.139546
  12 H :    0.165858
  13 H :    0.146212
  14 H :    0.156431
  15 H :    0.170068
  16 H :    0.147499
  17 H :    0.143591
  18 H :    0.165977
  19 H :    0.146159
  20 H :    0.139593
Sum of atomic charges:   -0.0000000

--------------------------------
MULLIKEN REDUCED ORBITAL CHARGES
--------------------------------
  0 C s       :     3.353439  s :     3.353439
      pz      :     0.936613  p :     3.135291
      px      :     1.104143
      py      :     1.094535
      dz2     :     0.007284  d :     0.027159
      dxz     :     0.006258
      dyz     :     0.005113
      dx2y2   :     0.004845
      dxy     :     0.003658

  1 C s       :     3.090829  s :     3.090829
      pz      :     0.945745  p :     2.894742
      px      :     0.952319
      py      :     0.996678
      dz2     :     0.010604  d :     0.046170
      dxz     :     0.009082
      dyz     :     0.009269
      dx2y2   :     0.007148
      dxy     :     0.010067

  2 C s       :     3.314794  s :     3.314794
      pz      :     1.110660  p :     3.104762
      px      :     1.055277
      py      :     0.938825
      dz2     :     0.006784  d :     0.027013
      dxz     :     0.002710
      dyz     :     0.004846
      dx2y2   :     0.006901
      dxy     :     0.005773

  3 S s       :     5.893591  s :     5.893591
      pz      :     3.526561  p :    10.161455
      px      :     2.888628
      py      :     3.746266
      dz2     :     0.011433  d :     0.095631
      dxz     :     0.030409
      dyz     :     0.009329
      dx2y2   :     0.022693
      dxy     :     0.021767

  4 C s       :     3.090467  s :     3.090467
      pz      :     1.014253  p :     2.894522
      px      :     0.954017
      py      :     0.926252
      dz2     :     0.007715  d :     0.046167
      dxz     :     0.011359
      dyz     :     0.009481
      dx2y2   :     0.009791
      dxy     :     0.007821

  5 C s       :     3.353419  s :     3.353419
      pz      :     1.082461  p :     3.135179
      px      :     1.103341
      py      :     0.949376
      dz2     :     0.004246  d :     0.027159
      dxz     :     0.005163
      dyz     :     0.006073
      dx2y2   :     0.006827
      dxy     :     0.004850

  6 C s       :     3.314976  s :     3.314976
      pz      :     0.979402  p :     3.104940
      px      :     1.055831
      py      :     1.069707
      dz2     :     0.006028  d :     0.027010
      dxz     :     0.006654
      dyz     :     0.004833
      dx2y2   :     0.007587
      dxy     :     0.001908

  7 H s       :     0.833949  s :     0.833949
      pz      :     0.005362  p :     0.018457
      px      :     0.006307
      py      :     0.006788

  8 H s       :     0.838018  s :     0.838018
      pz      :     0.004865  p :     0.018351
      px      :     0.009742
      py      :     0.003744

  9 H s       :     0.811678  s :     0.811678
      pz      :     0.003633  p :     0.018231
      px      :     0.004571
      py      :     0.010026

 10 H s       :     0.825613  s :     0.825613
      pz      :     0.004749  p :     0.017922
      px      :     0.006724
      py      :     0.006450

 11 H s       :     0.842137  s :     0.842137
      pz      :     0.004391  p :     0.018316
      px      :     0.010152
      py      :     0.003773

 12 H s       :     0.815848  s :     0.815848
      pz      :     0.010934  p :     0.018294
      px      :     0.003654
      py      :     0.003706

 13 H s       :     0.835216  s :     0.835216
      pz      :     0.005262  p :     0.018572
      px      :     0.006335
      py      :     0.006975

 14 H s       :     0.825646  s :     0.825646
      pz      :     0.007672  p :     0.017923
      px      :     0.006801
      py      :     0.003450

 15 H s       :     0.811702  s :     0.811702
      pz      :     0.008365  p :     0.018230
      px      :     0.004541
      py      :     0.005325

 16 H s       :     0.834043  s :     0.834043
      pz      :     0.008237  p :     0.018458
      px      :     0.006383
      py      :     0.003838

 17 H s       :     0.838059  s :     0.838059
      pz      :     0.004109  p :     0.018350
      px      :     0.009689
      py      :     0.004552

 18 H s       :     0.815728  s :     0.815728
      pz      :     0.003824  p :     0.018295
      px      :     0.003651
      py      :     0.010819

 19 H s       :     0.835268  s :     0.835268
      pz      :     0.008357  p :     0.018572
      px      :     0.006390
      py      :     0.003826

 20 H s       :     0.842089  s :     0.842089
      pz      :     0.004191  p :     0.018317
      px      :     0.010118
      py      :     0.004009


------------------------
MULLIKEN OVERLAP CHARGES
------------------------
B(  0-C ,  1-C ) :   0.4268 B(  0-C ,  2-C ) :  -0.2325 B(  0-C ,  3-S ) :  -0.1498 
B(  0-C ,  7-H ) :   0.8828 B(  0-C ,  8-H ) :   0.7643 B(  0-C ,  9-H ) :   0.7960 
B(  1-C ,  2-C ) :   0.5083 B(  1-C ,  3-S ) :   0.5585 B(  1-C ,  4-C ) :  -0.1098 
B(  1-C ,  7-H ) :  -0.1259 B(  1-C ,  9-H ) :  -0.0695 B(  1-C , 10-H ) :   0.8188 
B(  1-C , 11-H ) :  -0.0692 B(  1-C , 12-H ) :  -0.0860 B(  1-C , 13-H ) :  -0.0863 
B(  2-C ,  3-S ) :  -0.1569 B(  2-C , 10-H ) :  -0.0790 B(  2-C , 11-H ) :   0.7861 
B(  2-C , 12-H ) :   0.8241 B(  2-C , 13-H ) :   0.8389 B(  3-S ,  4-C ) :   0.5591 
B(  3-S ,  5-C ) :  -0.1499 B(  3-S ,  6-C ) :  -0.1572 B(  3-S , 10-H ) :  -0.0956 
B(  3-S , 14-H ) :  -0.0956 B(  4-C ,  5-C ) :   0.4273 B(  4-C ,  6-C ) :   0.5079 
B(  4-C , 14-H ) :   0.8189 B(  4-C , 15-H ) :  -0.0695 B(  4-C , 16-H ) :  -0.1257 
B(  4-C , 18-H ) :  -0.0862 B(  4-C , 19-H ) :  -0.0866 B(  4-C , 20-H ) :  -0.0687 
B(  5-C ,  6-C ) :  -0.2325 B(  5-C , 15-H ) :   0.7960 B(  5-C , 16-H ) :   0.8827 
B(  5-C , 17-H ) :   0.7644 B(  6-C , 14-H ) :  -0.0790 B(  6-C , 18-H ) :   0.8244 
B(  6-C , 19-H ) :   0.8389 B(  6-C , 20-H ) :   0.7857 


                     *******************************
                     * LOEWDIN POPULATION ANALYSIS *
                     *******************************

----------------------
LOEWDIN ATOMIC CHARGES
----------------------
   0 C :   -0.418164
   1 C :   -0.294931
   2 C :   -0.421193
   3 S :    0.049676
   4 C :   -0.294889
   5 C :   -0.418187
   6 C :   -0.421216
   7 H :    0.150772
   8 H :    0.154763
   9 H :    0.161780
  10 H :    0.173771
  11 H :    0.151716
  12 H :    0.161910
  13 H :    0.154734
  14 H :    0.173783
  15 H :    0.161774
  16 H :    0.150749
  17 H :    0.154762
  18 H :    0.161935
  19 H :    0.154719
  20 H :    0.151735

-------------------------------
LOEWDIN REDUCED ORBITAL CHARGES
-------------------------------
  0 C s       :     2.974024  s :     2.974024
      pz      :     1.066361  p :     3.379815
      px      :     1.159170
      py      :     1.154283
      dz2     :     0.017415  d :     0.064326
      dxz     :     0.013990
      dyz     :     0.011296
      dx2y2   :     0.012100
      dxy     :     0.009525

  1 C s       :     2.934706  s :     2.934706
      pz      :     1.097065  p :     3.263269
      px      :     1.060267
      py      :     1.105938
      dz2     :     0.023755  d :     0.096957
      dxz     :     0.019258
      dyz     :     0.016880
      dx2y2   :     0.015371
      dxy     :     0.021691

  2 C s       :     2.977088  s :     2.977088
      pz      :     1.160498  p :     3.380073
      px      :     1.144284
      py      :     1.075290
      dz2     :     0.016854  d :     0.064033
      dxz     :     0.006669
      dyz     :     0.010805
      dx2y2   :     0.016442
      dxy     :     0.013263

  3 S s       :     5.422544  s :     5.422544
      pz      :     3.519742  p :    10.198355
      px      :     2.984129
      py      :     3.694484
      dz2     :     0.049116  d :     0.329425
      dxz     :     0.095717
      dyz     :     0.024374
      dx2y2   :     0.090492
      dxy     :     0.069726

  4 C s       :     2.934708  s :     2.934708
      pz      :     1.112223  p :     3.263231
      px      :     1.060692
      py      :     1.090316
      dz2     :     0.015449  d :     0.096950
      dxz     :     0.025972
      dyz     :     0.019400
      dx2y2   :     0.021097
      dxy     :     0.015033

  5 C s       :     2.974041  s :     2.974041
      pz      :     1.153215  p :     3.379818
      px      :     1.159114
      py      :     1.067489
      dz2     :     0.010289  d :     0.064328
      dxz     :     0.013247
      dyz     :     0.013704
      dx2y2   :     0.016576
      dxy     :     0.010511

  6 C s       :     2.977074  s :     2.977074
      pz      :     1.099392  p :     3.380117
      px      :     1.144586
      py      :     1.136139
      dz2     :     0.013884  d :     0.064025
      dxz     :     0.015889
      dyz     :     0.011296
      dx2y2   :     0.018725
      dxy     :     0.004231

  7 H s       :     0.805368  s :     0.805368
      pz      :     0.012478  p :     0.043860
      px      :     0.014915
      py      :     0.016467

  8 H s       :     0.801345  s :     0.801345
      pz      :     0.011385  p :     0.043892
      px      :     0.024261
      py      :     0.008246

  9 H s       :     0.794397  s :     0.794397
      pz      :     0.008061  p :     0.043823
      px      :     0.010376
      py      :     0.025385

 10 H s       :     0.782877  s :     0.782877
      pz      :     0.011677  p :     0.043352
      px      :     0.015717
      py      :     0.015958

 11 H s       :     0.804355  s :     0.804355
      pz      :     0.010088  p :     0.043929
      px      :     0.025208
      py      :     0.008632

 12 H s       :     0.794256  s :     0.794256
      pz      :     0.027692  p :     0.043834
      px      :     0.007859
      py      :     0.008283

 13 H s       :     0.800937  s :     0.800937
      pz      :     0.012442  p :     0.044329
      px      :     0.015038
      py      :     0.016850

 14 H s       :     0.782863  s :     0.782863
      pz      :     0.018983  p :     0.043353
      px      :     0.015913
      py      :     0.008457

 15 H s       :     0.794404  s :     0.794404
      pz      :     0.020874  p :     0.043822
      px      :     0.010298
      py      :     0.012650

 16 H s       :     0.805392  s :     0.805392
      pz      :     0.020154  p :     0.043858
      px      :     0.015112
      py      :     0.008592

 17 H s       :     0.801347  s :     0.801347
      pz      :     0.009183  p :     0.043891
      px      :     0.024123
      py      :     0.010584

 18 H s       :     0.794226  s :     0.794226
      pz      :     0.008588  p :     0.043839
      px      :     0.007855
      py      :     0.027397

 19 H s       :     0.800951  s :     0.800951
      pz      :     0.020496  p :     0.044330
      px      :     0.015183
      py      :     0.008651

 20 H s       :     0.804334  s :     0.804334
      pz      :     0.009639  p :     0.043931
      px      :     0.025117
      py      :     0.009176


---------------------------------
LOEWDIN BOND ORDERS (THRESH 0.050000)
---------------------------------
B(  0-C ,  1-C ) :   1.1124 B(  0-C ,  2-C ) :   0.0718 B(  0-C ,  3-S ) :   0.1069 
B(  0-C ,  7-H ) :   0.9217 B(  0-C ,  8-H ) :   0.9150 B(  0-C ,  9-H ) :   0.9213 
B(  1-C ,  2-C ) :   1.1105 B(  1-C ,  3-S ) :   1.2973 B(  1-C ,  4-C ) :   0.0504 
B(  1-C , 10-H ) :   0.8375 B(  2-C ,  3-S ) :   0.1234 B(  2-C , 11-H ) :   0.9167 
B(  2-C , 12-H ) :   0.9224 B(  2-C , 13-H ) :   0.9204 B(  3-S ,  4-C ) :   1.2973 
B(  3-S ,  5-C ) :   0.1069 B(  3-S ,  6-C ) :   0.1233 B(  3-S , 10-H ) :   0.0671 
B(  3-S , 14-H ) :   0.0671 B(  4-C ,  5-C ) :   1.1124 B(  4-C ,  6-C ) :   1.1105 
B(  4-C , 14-H ) :   0.8375 B(  5-C ,  6-C ) :   0.0718 B(  5-C , 15-H ) :   0.9213 
B(  5-C , 16-H ) :   0.9217 B(  5-C , 17-H ) :   0.9150 B(  6-C , 18-H ) :   0.9224 
B(  6-C , 19-H ) :   0.9204 B(  6-C , 20-H ) :   0.9167 

------------------------------------------
LOEWDIN REDUCED ORBITAL POPULATIONS PER MO
-------------------------------------------
THRESHOLD FOR PRINTING IS 0.1%%
                      0         1         2         3         4         5   
                 -88.53225 -10.06748 -10.06747 -10.02562 -10.02561 -10.02066
                   2.00000   2.00000   2.00000   2.00000   2.00000   2.00000
                  --------  --------  --------  --------  --------  --------
 0 C  s               0.0       0.0       0.0      48.5      51.3       0.0
 1 C  s               0.0       1.7      97.9       0.0       0.0       0.0
 2 C  s               0.0       0.0       0.0       0.0       0.0       0.1
 3 S  s             100.0       0.0       0.0       0.0       0.0       0.0
 4 C  s               0.0      97.9       1.7       0.0       0.0       0.0
 5 C  s               0.0       0.0       0.0      51.3      48.5       0.0
 6 C  s               0.0       0.0       0.0       0.0       0.0      99.6

                      6         7         8         9        10        11   
                 -10.02065  -7.82641  -5.77424  -5.76991  -5.76294  -0.79085
                   2.00000   2.00000   2.00000   2.00000   2.00000   2.00000
                  --------  --------  --------  --------  --------  --------
 0 C  s               0.0       0.0       0.0       0.0       0.0       6.6
 0 C  pz              0.0       0.0       0.0       0.0       0.0       2.1
 0 C  py              0.0       0.0       0.0       0.0       0.0       0.1
 1 C  s               0.0       0.0       0.0       0.0       0.0      16.6
 1 C  px              0.0       0.1       0.0       0.0       0.0       0.9
 2 C  s              99.6       0.0       0.0       0.0       0.0       6.1
 2 C  px              0.0       0.0       0.0       0.0       0.0       0.4
 2 C  py              0.0       0.0       0.0       0.0       0.0       1.8
 3 S  s               0.0      99.6       0.0       0.0       0.0      12.8
 3 S  pz              0.0       0.0       0.2      69.3      30.5       1.4
 3 S  px              0.0       0.0      99.2       0.0       0.8       0.0
 3 S  py              0.0       0.0       0.6      30.7      68.7       0.6
 3 S  dyz             0.0       0.0       0.0       0.0       0.0       0.2
 3 S  dx2y2           0.0       0.0       0.0       0.0       0.0       0.6
 4 C  s               0.0       0.0       0.0       0.0       0.0      16.6
 4 C  px              0.0       0.1       0.0       0.0       0.0       0.9
 5 C  s               0.0       0.0       0.0       0.0       0.0       6.6
 5 C  py              0.0       0.0       0.0       0.0       0.0       2.1
 6 C  s               0.1       0.0       0.0       0.0       0.0       6.1
 6 C  pz              0.0       0.0       0.0       0.0       0.0       1.3
 6 C  px              0.0       0.0       0.0       0.0       0.0       0.4
 6 C  py              0.0       0.0       0.0       0.0       0.0       0.6
 7 H  s               0.0       0.0       0.0       0.0       0.0       0.8
 8 H  s               0.0       0.0       0.0       0.0       0.0       0.8
 9 H  s               0.0       0.0       0.0       0.0       0.0       0.8
10 H  s               0.0       0.0       0.0       0.0       0.0       2.1
11 H  s               0.0       0.0       0.0       0.0       0.0       0.8
12 H  s               0.0       0.0       0.0       0.0       0.0       0.7
13 H  s               0.0       0.0       0.0       0.0       0.0       0.8
14 H  s               0.0       0.0       0.0       0.0       0.0       2.1
14 H  pz              0.0       0.0       0.0       0.0       0.0       0.1
15 H  s               0.0       0.0       0.0       0.0       0.0       0.8
16 H  s               0.0       0.0       0.0       0.0       0.0       0.8
17 H  s               0.0       0.0       0.0       0.0       0.0       0.8
18 H  s               0.0       0.0       0.0       0.0       0.0       0.7
19 H  s               0.0       0.0       0.0       0.0       0.0       0.8
20 H  s               0.0       0.0       0.0       0.0       0.0       0.8

                     12        13        14        15        16        17   
                  -0.75908  -0.66252  -0.65662  -0.65050  -0.56283  -0.51292
                   2.00000   2.00000   2.00000   2.00000   2.00000   2.00000
                  --------  --------  --------  --------  --------  --------
 0 C  s               8.5      11.6      15.5       0.3       3.4       0.9
 0 C  pz              1.5       0.3       0.6       0.2       3.9       4.5
 0 C  px              0.1       0.1       0.0       0.1       0.0       2.0
 0 C  py              0.1       0.2       0.0       0.2       0.1       0.0
 0 C  dz2             0.1       0.0       0.0       0.0       0.1       0.1
 1 C  s              14.7       0.0       0.1       0.2       7.0       6.0
 1 C  pz              0.4       4.2       7.9       1.5       3.1       0.0
 1 C  px              0.3       0.2       0.2       5.8       0.0       8.4
 1 C  py              0.3       4.0       1.1       5.3       3.2       0.8
 1 C  dz2             0.0       0.1       0.2       0.0       0.0       0.0
 1 C  dx2y2           0.0       0.0       0.0       0.2       0.0       0.0
 2 C  s               8.3      11.1       4.9      11.7       3.8       1.1
 2 C  pz              0.1       0.2       0.4       0.1       0.1       0.1
 2 C  px              0.0       0.0       0.0       0.3       0.3       0.5
 2 C  py              1.5       0.2       0.0       0.5       3.7       5.4
 3 S  s               0.0       0.0       6.3      27.2       0.0      10.0
 3 S  pz              0.0       0.1       0.1       0.2       0.0       0.1
 3 S  px              5.0       0.0       0.0       0.0       9.2       0.0
 3 S  py              0.0       0.3       0.0       0.1       0.1       0.0
 3 S  dz2             0.0       0.2       0.0       0.0       0.0       0.3
 3 S  dxz             1.4       0.0       0.0       0.0       0.8       0.0
 3 S  dx2y2           0.0       0.1       0.1       0.1       0.0       1.2
 3 S  dxy             0.6       0.0       0.1       0.1       0.4       0.1
 4 C  s              14.7       0.0       0.1       0.2       7.0       6.0
 4 C  pz              0.6       1.1       0.0       6.8       5.4       0.7
 4 C  px              0.3       0.3       0.2       5.6       0.0       8.4
 4 C  py              0.2       7.1       9.0       0.1       0.9       0.1
 4 C  dx2y2           0.0       0.0       0.1       0.1       0.0       0.0
 5 C  s               8.5      11.5      15.5       0.3       3.4       0.9
 5 C  pz              0.0       0.1       0.0       0.4       1.0       0.7
 5 C  px              0.1       0.1       0.0       0.1       0.0       2.0
 5 C  py              1.7       0.4       0.6       0.0       3.0       3.8
 6 C  s               8.3      11.2       4.9      11.7       3.8       1.1
 6 C  pz              1.0       0.1       0.0       0.6       3.5       4.2
 6 C  px              0.0       0.0       0.0       0.3       0.3       0.6
 6 C  py              0.7       0.3       0.4       0.0       0.3       1.3
 7 H  s               1.2       2.6       3.7       0.1       2.0       2.2
 7 H  px              0.0       0.1       0.1       0.0       0.1       0.0
 7 H  py              0.0       0.1       0.1       0.0       0.1       0.1
 8 H  s               1.3       2.6       3.9       0.1       1.8       0.2
 8 H  px              0.1       0.2       0.3       0.0       0.1       0.0
 9 H  s               1.1       3.0       3.6       0.0       1.1       0.9
 9 H  py              0.1       0.2       0.3       0.0       0.1       0.1
10 H  s               2.3       0.0       0.0       0.1       4.8       6.4
10 H  pz              0.0       0.0       0.0       0.0       0.0       0.1
10 H  px              0.1       0.0       0.0       0.0       0.2       0.1
10 H  py              0.1       0.0       0.0       0.0       0.1       0.2
11 H  s               1.3       2.4       1.1       3.2       1.9       0.2
11 H  px              0.1       0.2       0.1       0.2       0.1       0.0
12 H  s               1.1       2.7       1.4       2.5       1.2       0.9
12 H  pz              0.1       0.2       0.1       0.2       0.1       0.1
13 H  s               1.1       2.7       0.8       2.9       2.0       2.3
13 H  py              0.0       0.1       0.0       0.1       0.0       0.0
14 H  s               2.3       0.0       0.0       0.1       4.8       6.4
14 H  pz              0.1       0.0       0.0       0.0       0.1       0.3
14 H  px              0.1       0.0       0.0       0.0       0.2       0.1
15 H  s               1.1       3.0       3.6       0.0       1.1       0.9
15 H  pz              0.1       0.2       0.2       0.0       0.1       0.1
16 H  s               1.2       2.6       3.7       0.1       2.0       2.2
16 H  pz              0.1       0.1       0.2       0.0       0.1       0.1
16 H  px              0.0       0.1       0.1       0.0       0.1       0.0
17 H  s               1.3       2.6       3.9       0.1       1.8       0.2
17 H  px              0.1       0.2       0.3       0.0       0.1       0.0
18 H  s               1.1       2.7       1.4       2.5       1.2       0.9
18 H  py              0.1       0.2       0.1       0.2       0.1       0.0
19 H  s               1.1       2.7       0.8       2.9       2.0       2.3
19 H  pz              0.1       0.1       0.1       0.1       0.1       0.0
20 H  s               1.3       2.5       1.1       3.2       1.9       0.2
20 H  px              0.1       0.2       0.1       0.2       0.1       0.0

                     18        19        20        21        22        23   
                  -0.43837  -0.42171  -0.41330  -0.39190  -0.39072  -0.37870
                   2.00000   2.00000   2.00000   2.00000   2.00000   2.00000
                  --------  --------  --------  --------  --------  --------
 0 C  s               0.4       0.2       0.1       0.0       0.1       0.1
 0 C  pz              2.5       2.2       0.5       2.2       7.6       5.8
 0 C  px              3.5       0.1       8.3       7.1       2.3       0.3
 0 C  py              6.8       9.7       0.1      10.1       3.4       1.8
 0 C  dx2y2           0.0       0.0       0.0       0.1       0.1       0.0
 1 C  s               1.0       0.7       0.0       0.3       0.0       0.0
 1 C  pz              3.0       5.0       0.8       0.0       4.4       4.8
 1 C  px              2.7       0.2      11.2       0.4       1.3       0.3
 1 C  py              4.5       5.3       0.6       1.4       3.8       2.7
 1 C  dxz             0.0       0.0       0.0       0.1       0.0       0.0
 2 C  s               0.3       0.3       0.0       0.0       0.1       0.0
 2 C  pz              3.9       8.9       1.7       3.5       3.8      10.2
 2 C  px              4.3       2.6       9.5       2.8       0.2       2.7
 2 C  py              0.7       1.1       0.4       1.0       7.1       5.8
 2 C  dx2y2           0.0       0.0       0.0       0.0       0.1       0.1
 3 S  s               2.6       0.0       0.0       6.6       0.0       1.0
 3 S  pz              3.3       0.1       0.1       2.9       1.7       0.0
 3 S  px              0.0       1.7       6.9       0.0       0.0       0.0
 3 S  py              1.5       0.1       0.2       1.2       4.0       0.0
 3 S  dz2             0.3       0.0       0.0       0.0       0.4       0.1
 3 S  dxz             0.0       0.1       0.7       0.0       0.0       0.3
 3 S  dyz             0.6       0.0       0.0       0.0       0.1       0.0
 3 S  dx2y2           0.1       0.0       0.0       0.0       0.1       0.3
 3 S  dxy             0.0       0.1       0.3       0.1       0.0       0.7
 4 C  s               1.0       0.7       0.0       0.3       0.0       0.0
 4 C  pz              6.8       8.9       0.1       1.1       1.1       0.4
 4 C  px              2.8       0.2      11.2       0.4       1.3       0.3
 4 C  py              0.6       1.4       1.4       0.3       7.2       7.0
 5 C  s               0.4       0.2       0.1       0.0       0.1       0.1
 5 C  pz              3.2       5.4       0.2      12.1       8.2       4.7
 5 C  px              3.5       0.1       8.3       6.8       2.4       0.3
 5 C  py              6.0       6.5       0.3       0.0       3.4       2.9
 5 C  dx2y2           0.1       0.0       0.0       0.1       0.1       0.1
 6 C  s               0.3       0.3       0.0       0.0       0.1       0.0
 6 C  pz              0.1       0.1       0.0       0.0      10.3      11.9
 6 C  px              4.4       2.7       9.4       2.8       0.2       2.6
 6 C  py              4.5       9.8       2.1       4.5       0.5       4.1
 6 C  dx2y2           0.0       0.0       0.0       0.0       0.0       0.1
 7 H  s               0.8       0.2       2.2       0.6       1.5       3.1
 7 H  px              0.0       0.0       0.0       0.1       0.1       0.0
 8 H  s               2.7       0.1       1.8       4.8       3.5       0.2
 8 H  px              0.1       0.0       0.0       0.1       0.1       0.0
 9 H  s               2.5       4.6       0.5       5.4       1.2       0.2
 9 H  py              0.0       0.1       0.0       0.1       0.0       0.0
10 H  s               1.5       1.4       1.7       0.3       0.1       0.1
11 H  s               1.4       0.5       3.8       1.6       1.2       4.4
11 H  px              0.0       0.0       0.1       0.0       0.1       0.1
12 H  s               2.1       4.5       1.0       1.8       0.6       3.1
12 H  pz              0.1       0.1       0.0       0.1       0.0       0.0
13 H  s               0.4       0.5       0.9       0.5       3.2       2.0
13 H  px              0.0       0.0       0.0       0.0       0.1       0.2
14 H  s               1.5       1.4       1.7       0.3       0.0       0.1
15 H  s               2.5       4.6       0.5       5.3       1.3       0.2
15 H  py              0.0       0.0       0.0       0.1       0.1       0.0
16 H  s               0.8       0.2       2.2       0.6       1.5       3.1
16 H  px              0.0       0.0       0.0       0.1       0.1       0.0
17 H  s               2.7       0.1       1.8       4.6       3.6       0.2
17 H  px              0.1       0.0       0.0       0.1       0.1       0.0
18 H  s               2.1       4.4       1.0       1.9       0.6       3.1
18 H  py              0.1       0.1       0.0       0.0       0.0       0.1
19 H  s               0.4       0.5       0.9       0.4       3.2       2.0
19 H  px              0.0       0.0       0.0       0.0       0.1       0.2
20 H  s               1.4       0.6       3.8       1.6       1.1       4.4
20 H  px              0.0       0.0       0.1       0.0       0.1       0.1

                     24        25        26        27        28        29   
                  -0.36927  -0.35182  -0.33179  -0.33014  -0.32109  -0.31695
                   2.00000   2.00000   2.00000   2.00000   2.00000   2.00000
                  --------  --------  --------  --------  --------  --------
 0 C  s               0.0       0.0       0.3       0.1       0.2       0.1
 0 C  pz              0.0       0.2       2.4       4.5       4.5       3.4
 0 C  px             14.0      14.1       0.8       0.1       0.3       0.4
 0 C  py              1.9       1.0       0.6       6.3       7.0       8.0
 0 C  dz2             0.0       0.0       0.0       0.0       0.1       0.1
 0 C  dxz             0.1       0.1       0.1       0.0       0.0       0.0
 0 C  dyz             0.0       0.0       0.1       0.2       0.0       0.1
 1 C  s               0.0       0.0       0.1       0.2       0.0       0.0
 1 C  pz              0.0       0.2       3.1       3.5       4.8       3.1
 1 C  px              0.0       0.2       3.3       0.5       0.0       0.1
 1 C  py              0.5       0.6       3.0       5.0       3.2       6.6
 1 C  dz2             0.0       0.0       0.0       0.0       0.2       0.2
 1 C  dxz             0.1       0.1       0.0       0.0       0.0       0.0
 1 C  dyz             0.0       0.0       0.2       0.4       0.0       0.0
 1 C  dxy             0.1       0.0       0.2       0.0       0.0       0.1
 2 C  s               0.0       0.1       0.1       0.2       0.1       0.2
 2 C  pz              0.0       0.0       3.6       3.2      11.0       6.9
 2 C  px             10.7      12.3       4.4       0.6       0.1       0.1
 2 C  py              2.8       0.4       3.4       5.8       2.5       6.7
 2 C  dz2             0.0       0.0       0.0       0.0       0.3       0.2
 2 C  dyz             0.0       0.0       0.1       0.1       0.1       0.0
 2 C  dxy             0.1       0.0       0.2       0.0       0.0       0.0
 3 S  pz              0.1       0.1       3.2       0.3       0.4       0.0
 3 S  px              0.2       0.0       0.0       9.4       0.8       0.0
 3 S  py              0.2       0.0       1.4       0.9       0.8       0.0
 3 S  dz2             0.1       0.0       0.5       0.0       0.1       0.0
 3 S  dxz             0.0       0.1       0.0       0.2       0.0       0.1
 3 S  dx2y2           0.0       0.0       0.9       0.0       0.0       0.0
 3 S  dxy             0.0       0.1       0.1       0.1       0.0       0.3
 4 C  s               0.0       0.0       0.1       0.2       0.0       0.0
 4 C  pz              0.4       0.8       5.3       7.6       0.7       2.8
 4 C  px              0.0       0.2       3.4       0.5       0.0       0.1
 4 C  py              0.0       0.0       0.9       0.7       7.3       6.9
 4 C  dz2             0.0       0.0       0.2       0.0       0.1       0.1
 4 C  dxz             0.0       0.0       0.2       0.0       0.0       0.1
 4 C  dyz             0.0       0.0       0.0       0.2       0.1       0.2
 4 C  dx2y2           0.0       0.0       0.0       0.2       0.1       0.0
 4 C  dxy             0.1       0.1       0.0       0.0       0.0       0.0
 5 C  s               0.0       0.0       0.3       0.1       0.2       0.1
 5 C  pz              1.6       1.1       1.7       9.7       2.7       3.7
 5 C  px             14.1      14.1       0.8       0.1       0.3       0.4
 5 C  py              0.2       0.0       1.4       1.0       8.9       7.7
 5 C  dxz             0.1       0.1       0.1       0.1       0.0       0.1
 5 C  dyz             0.0       0.0       0.0       0.1       0.2       0.2
 6 C  s               0.0       0.1       0.1       0.2       0.1       0.2
 6 C  pz              2.3       0.3       5.9       8.2       0.0       1.9
 6 C  px             10.7      12.3       4.5       0.6       0.1       0.1
 6 C  py              0.4       0.1       1.1       0.6      13.4      11.7
 6 C  dz2             0.0       0.0       0.2       0.0       0.1       0.1
 6 C  dxz             0.1       0.0       0.2       0.0       0.0       0.0
 6 C  dx2y2           0.0       0.0       0.0       0.1       0.2       0.1
 7 H  s               4.3       5.7       2.5       3.4       0.3       0.6
 8 H  s               5.4       5.6       0.1       0.7       0.0       0.0
 9 H  s               0.0       0.1       0.1       2.8       5.3       5.9
 9 H  px              0.1       0.1       0.0       0.0       0.0       0.0
10 H  s               0.1       0.6       7.1       1.9       0.0       0.3
11 H  s               3.9       5.1       1.1       1.3       0.3       0.2
12 H  s               0.1       0.1       1.4       1.4       7.2       5.4
12 H  px              0.1       0.1       0.0       0.0       0.0       0.0
13 H  s               4.8       2.5       7.7       2.0       0.5       0.0
14 H  s               0.1       0.6       7.2       1.8       0.0       0.3
15 H  s               0.0       0.1       0.1       2.8       5.3       5.9
15 H  px              0.1       0.1       0.0       0.0       0.0       0.0
16 H  s               4.4       5.7       2.6       3.3       0.3       0.6
16 H  pz              0.1       0.1       0.0       0.0       0.0       0.0
17 H  s               5.4       5.6       0.1       0.7       0.0       0.0
18 H  s               0.1       0.1       1.5       1.3       7.2       5.4
18 H  px              0.1       0.1       0.0       0.0       0.0       0.0
19 H  s               4.8       2.5       7.9       1.9       0.5       0.0
19 H  pz              0.1       0.1       0.0       0.0       0.0       0.0
20 H  s               4.0       5.1       1.1       1.3       0.3       0.2

                     30        31        32        33        34        35   
                  -0.28077  -0.25418  -0.18575   0.03209   0.03822   0.08226
                   2.00000   2.00000   2.00000   0.00000   0.00000   0.00000
                  --------  --------  --------  --------  --------  --------
 0 C  s               0.0       0.3       0.4       2.6       0.2       8.1
 0 C  pz              0.4       3.0       1.0       0.2       1.9       1.7
 0 C  px              3.6       0.7       0.2       0.4       0.1       0.1
 0 C  py              0.1       0.0       0.1       0.0       0.4       0.3
 0 C  dz2             0.0       0.0       0.0       0.1       0.2       0.2
 0 C  dxz             0.3       0.1       0.0       0.3       0.2       0.3
 1 C  s               0.1       0.2       0.0       4.3       4.6       3.2
 1 C  pz              0.1       4.2       0.5       2.4       1.8       0.4
 1 C  px             13.2       3.6       0.1       9.9       4.2       5.0
 1 C  py              0.6       1.5       1.2       0.1       0.8       0.6
 1 C  dz2             0.0       0.1       0.2       0.3       0.2       0.0
 1 C  dxz             0.3       0.0       0.0       0.1       0.2       0.3
 1 C  dx2y2           0.0       0.2       0.1       0.4       0.0       0.1
 1 C  dxy             0.3       0.0       0.3       0.0       0.3       0.2
 2 C  s               0.0       0.1       0.7       1.3       0.1       5.0
 2 C  pz              0.0       0.2       0.2       0.0       0.4       0.2
 2 C  px              4.0       0.8       0.5       0.6       0.1       0.4
 2 C  py              0.2       1.1       1.6       0.6       0.9       1.0
 2 C  dz2             0.0       0.0       0.0       0.0       0.3       0.0
 2 C  dx2y2           0.1       0.0       0.0       0.0       0.0       0.4
 2 C  dxy             0.2       0.0       0.0       0.4       0.2       0.0
 3 S  s               0.0       5.0       0.0       6.9       0.0       6.1
 3 S  pz              0.0      36.6      25.3      12.4       0.1       3.4
 3 S  px             15.5       0.0       0.5       0.0      28.1       0.0
 3 S  py              0.0      16.2      57.0       5.5       0.2       1.5
 3 S  dz2             0.0       0.2       0.2       0.9       0.0       0.4
 3 S  dxz             0.7       0.0       0.0       0.0      19.8       0.0
 3 S  dyz             0.0       0.1       0.0       3.9       0.0       0.6
 3 S  dx2y2           0.0       1.0       0.1      10.7       0.0       0.3
 3 S  dxy             0.3       0.0       0.0       0.1       8.8       0.0
 4 C  s               0.1       0.2       0.0       4.4       4.5       3.2
 4 C  pz              0.6       3.7       0.6       0.8       1.8       0.7
 4 C  px             13.3       3.5       0.1       9.9       4.1       5.0
 4 C  py              0.0       2.1       1.1       1.9       0.8       0.3
 4 C  dz2             0.1       0.0       0.1       0.1       0.0       0.0
 4 C  dxz             0.5       0.0       0.2       0.0       0.4       0.4
 4 C  dyz             0.0       0.0       0.1       0.0       0.2       0.0
 4 C  dx2y2           0.0       0.3       0.1       0.6       0.1       0.0
 4 C  dxy             0.1       0.0       0.1       0.1       0.1       0.1
 5 C  s               0.0       0.3       0.4       2.6       0.2       8.1
 5 C  pz              0.2       0.6       0.3       0.1       0.0       0.8
 5 C  px              3.6       0.6       0.2       0.4       0.1       0.1
 5 C  py              0.2       2.4       0.8       0.1       2.3       1.3
 5 C  dyz             0.0       0.0       0.0       0.0       0.2       0.0
 5 C  dx2y2           0.0       0.1       0.0       0.1       0.0       0.2
 5 C  dxy             0.2       0.1       0.0       0.3       0.2       0.3
 6 C  s               0.0       0.1       0.7       1.3       0.1       5.0
 6 C  pz              0.2       1.3       1.7       0.6       0.5       0.8
 6 C  px              4.0       0.8       0.5       0.6       0.1       0.4
 6 C  py              0.0       0.1       0.1       0.0       0.8       0.4
 6 C  dz2             0.1       0.0       0.0       0.1       0.0       0.1
 6 C  dxz             0.2       0.0       0.0       0.3       0.2       0.0
 6 C  dyz             0.0       0.0       0.0       0.0       0.0       0.2
 6 C  dx2y2           0.0       0.1       0.0       0.0       0.2       0.1
 7 H  s               2.2       0.0       0.0       0.9       0.0       2.3
 7 H  px              0.0       0.0       0.0       0.2       0.0       0.6
 7 H  py              0.0       0.0       0.0       0.2       0.0       0.6
 8 H  s               2.5       1.6       0.3       0.1       0.5       2.9
 8 H  pz              0.0       0.0       0.0       0.1       0.2       0.0
 8 H  px              0.0       0.0       0.0       0.1       0.0       1.0
 9 H  s               0.1       0.4       0.0       0.5       0.7       0.6
 9 H  pz              0.0       0.0       0.0       0.0       0.0       0.1
 9 H  py              0.0       0.0       0.0       0.2       0.0       0.3
10 H  s               7.7       0.5       0.2       0.4       0.6       1.8
10 H  pz              0.0       0.0       0.0       0.2       0.0       0.3
10 H  px              0.0       0.0       0.0       0.8       0.1       0.1
10 H  py              0.1       0.0       0.0       0.0       0.0       0.5
11 H  s               2.9       0.9       0.5       0.2       0.6       2.1
11 H  px              0.0       0.0       0.0       0.0       0.0       0.6
11 H  py              0.0       0.0       0.0       0.2       0.1       0.0
12 H  s               0.0       0.4       0.1       0.3       0.8       0.6
12 H  pz              0.0       0.0       0.0       0.1       0.1       0.3
13 H  s               2.4       0.0       0.0       0.5       0.1       0.6
13 H  pz              0.0       0.0       0.0       0.0       0.1       0.2
13 H  px              0.0       0.0       0.0       0.2       0.0       0.4
14 H  s               7.7       0.5       0.2       0.4       0.6       1.8
14 H  pz              0.1       0.0       0.0       0.0       0.0       0.7
14 H  px              0.0       0.0       0.0       0.8       0.1       0.1
14 H  py              0.0       0.0       0.0       0.2       0.0       0.1
15 H  s               0.1       0.4       0.0       0.5       0.7       0.6
15 H  pz              0.0       0.0       0.0       0.2       0.1       0.4
16 H  s               2.2       0.0       0.0       0.9       0.0       2.3
16 H  pz              0.0       0.0       0.0       0.2       0.0       0.5
16 H  px              0.0       0.0       0.0       0.2       0.0       0.6
16 H  py              0.0       0.0       0.0       0.0       0.1       0.1
17 H  s               2.5       1.6       0.3       0.1       0.5       2.9
17 H  px              0.0       0.0       0.0       0.1       0.0       1.0
17 H  py              0.0       0.0       0.0       0.1       0.2       0.0
[...]
 6 C  s               0.0       0.0       0.2       0.4       0.1       0.2
 6 C  pz              0.0       0.1       0.6       0.3       2.2       1.8
 6 C  px              3.7       1.6       1.2       0.7       0.3       0.1
 6 C  py              0.9       0.7       1.7       2.8       0.2       0.1
 6 C  dz2             0.9       0.4       2.3       3.3       0.7       0.2
 6 C  dxz             2.7       1.4       1.8       0.9       2.8       2.0
 6 C  dyz             0.1       0.0       0.2       0.7       0.4       0.5
 6 C  dx2y2           4.2       2.9       0.7       1.7       2.2       1.8
 6 C  dxy             0.6       0.4       0.4       0.3       0.1       0.0
 7 H  s               0.2       0.6       1.8       1.6       1.2       1.6
 7 H  pz              0.1       0.3       1.1       1.7       0.6       1.2
 7 H  px              0.0       0.1       2.2       1.5       1.1       1.2
 7 H  py              0.2       0.9       1.6       0.8       1.6       1.7
 8 H  s               1.4       3.8       0.1       0.5       0.1       0.1
 8 H  pz              0.7       1.2       0.0       0.1       0.1       0.0
 8 H  px              2.7       8.2       0.2       1.2       0.1       0.3
 8 H  py              0.0       0.1       0.2       0.3       0.0       0.0
 9 H  s               1.2       0.3       2.5       1.3       0.1       0.6
 9 H  pz              0.1       0.1       0.3       0.1       0.1       0.2
 9 H  px              0.3       0.1       0.8       0.5       0.1       0.1
 9 H  py              2.5       0.6       5.1       3.0       0.1       0.9
10 H  s               0.1       0.3       0.2       0.0       2.5       2.6
10 H  pz              0.2       0.0       0.2       0.1       1.3       1.4
10 H  px              0.2       0.2       0.2       0.0       3.0       2.9
10 H  py              0.0       0.8       0.1       0.1       2.7       2.9
11 H  s               3.7       1.9       0.2       0.1       0.0       0.0
11 H  pz              0.8       0.2       0.5       0.3       0.0       0.0
11 H  px              8.1       4.5       0.2       0.1       0.0       0.0
11 H  py              0.2       0.0       0.0       0.0       0.1       0.1
12 H  s               0.9       0.6       1.2       2.3       0.6       0.4
12 H  pz              2.1       1.3       2.7       5.9       1.2       0.7
12 H  px              0.2       0.0       0.1       0.0       0.0       0.0
12 H  py              0.0       0.1       0.2       0.2       0.3       0.2
13 H  s               0.8       0.2       2.1       1.3       2.1       1.6
13 H  pz              1.1       0.2       0.7       0.3       1.3       0.9
13 H  px              0.3       0.0       1.5       1.2       1.9       1.2
13 H  py              0.6       0.2       3.0       1.6       2.5       2.1
14 H  s               0.1       0.3       0.2       0.0       2.6       2.4
14 H  pz              0.1       0.6       0.2       0.0       4.0       3.8
14 H  px              0.2       0.2       0.2       0.0       3.2       2.8
14 H  py              0.1       0.1       0.1       0.2       0.2       0.2
15 H  s               1.2       0.3       2.5       1.3       0.1       0.6
15 H  pz              1.9       0.4       3.6       2.3       0.1       0.5
15 H  px              0.3       0.1       0.7       0.5       0.1       0.1
15 H  py              0.8       0.4       1.8       0.7       0.2       0.6
16 H  s               0.1       0.6       1.8       1.6       1.2       1.5
16 H  pz              0.3       1.2       2.4       1.7       2.3       2.5
16 H  px              0.0       0.1       2.3       1.5       1.2       1.2
16 H  py              0.0       0.0       0.2       0.7       0.1       0.2
17 H  s               1.3       3.8       0.1       0.5       0.1       0.1
17 H  pz              0.0       0.5       0.1       0.4       0.0       0.0
17 H  px              2.5       8.2       0.2       1.1       0.1       0.3
17 H  py              0.6       0.9       0.1       0.0       0.1       0.0
18 H  s               0.9       0.6       1.2       2.3       0.6       0.4
18 H  pz              0.1       0.1       0.1       0.3       0.0       0.0
18 H  px              0.2       0.0       0.1       0.0       0.0       0.0
18 H  py              1.9       1.3       2.8       5.8       1.5       0.8
19 H  s               0.7       0.3       2.1       1.3       2.1       1.5
19 H  pz              1.3       0.5       3.7       1.9       3.7       2.7
19 H  px              0.3       0.0       1.6       1.2       2.0       1.1
19 H  py              0.4       0.1       0.0       0.0       0.2       0.1
20 H  s               3.6       2.0       0.2       0.0       0.0       0.0
20 H  pz              0.6       0.2       0.1       0.0       0.1       0.0
20 H  px              7.8       4.8       0.2       0.1       0.0       0.0
20 H  py              0.4       0.1       0.4       0.3       0.0       0.0

                    204       205       206       207       208       209   
                  18.90858  21.91621  21.98909  22.02588  22.03392  22.05254
                   0.00000   0.00000   0.00000   0.00000   0.00000   0.00000
                  --------  --------  --------  --------  --------  --------
 0 C  s               0.0      25.4       0.5       4.0      45.7      20.4
 1 C  s               0.2       0.5       7.2      44.4       2.1       5.2
 2 C  s               0.0      23.9      42.2       1.4       1.8      24.4
 3 S  s              99.3       0.0       0.0       0.1       0.0       0.0
 4 C  s               0.2       0.5       7.1      43.9       2.5       5.1
 5 C  s               0.0      25.5       0.5       4.5      45.7      19.9
 6 C  s               0.0      23.8      42.2       1.4       1.8      24.7

                    210   
                  22.08909
                   0.00000
                  --------
 0 C  s               3.7
 1 C  s              40.3
 2 C  s               5.8
 4 C  s              40.5
 5 C  s               3.6
 6 C  s               5.8


                      *****************************
                      * MAYER POPULATION ANALYSIS *
                      *****************************

  NA   - Mulliken gross atomic population
  ZA   - Total nuclear charge
  QA   - Mulliken gross atomic charge
  VA   - Mayer's total valence
  BVA  - Mayer's bonded valence
  FA   - Mayer's free valence

  ATOM       NA         ZA         QA         VA         BVA        FA
  0 C      6.5159     6.0000    -0.5159     3.7841     3.7841     0.0000
  1 C      6.0317     6.0000    -0.0317     3.5923     3.5923    -0.0000
  2 C      6.4466     6.0000    -0.4466     3.7463     3.7463    -0.0000
  3 S     16.1507    16.0000    -0.1507     1.9612     1.9612     0.0000
  4 C      6.0312     6.0000    -0.0312     3.5920     3.5920     0.0000
  5 C      6.5158     6.0000    -0.5158     3.7844     3.7844    -0.0000
  6 C      6.4469     6.0000    -0.4469     3.7459     3.7459     0.0000
  7 H      0.8524     1.0000     0.1476     0.9633     0.9633     0.0000
  8 H      0.8564     1.0000     0.1436     0.9637     0.9637    -0.0000
  9 H      0.8299     1.0000     0.1701     0.9557     0.9557     0.0000
 10 H      0.8435     1.0000     0.1565     0.9506     0.9506    -0.0000
 11 H      0.8605     1.0000     0.1395     0.9629     0.9629    -0.0000
 12 H      0.8341     1.0000     0.1659     0.9611     0.9611     0.0000
 13 H      0.8538     1.0000     0.1462     0.9672     0.9672    -0.0000
 14 H      0.8436     1.0000     0.1564     0.9506     0.9506     0.0000
 15 H      0.8299     1.0000     0.1701     0.9558     0.9558    -0.0000
 16 H      0.8525     1.0000     0.1475     0.9634     0.9634    -0.0000
 17 H      0.8564     1.0000     0.1436     0.9637     0.9637     0.0000
 18 H      0.8340     1.0000     0.1660     0.9611     0.9611     0.0000
 19 H      0.8538     1.0000     0.1462     0.9672     0.9672     0.0000
 20 H      0.8604     1.0000     0.1396     0.9629     0.9629    -0.0000

  Mayer bond orders larger than 0.100000
B(  0-C ,  1-C ) :   0.8893 B(  0-C ,  7-H ) :   0.9862 B(  0-C ,  8-H ) :   0.9563 
B(  0-C ,  9-H ) :   0.9666 B(  1-C ,  2-C ) :   0.8979 B(  1-C ,  3-S ) :   0.9522 
B(  1-C , 10-H ) :   0.9382 B(  2-C , 11-H ) :   0.9628 B(  2-C , 12-H ) :   0.9731 
B(  2-C , 13-H ) :   0.9720 B(  3-S ,  4-C ) :   0.9524 B(  4-C ,  5-C ) :   0.8894 
B(  4-C ,  6-C ) :   0.8975 B(  4-C , 14-H ) :   0.9382 B(  5-C , 15-H ) :   0.9666 
B(  5-C , 16-H ) :   0.9862 B(  5-C , 17-H ) :   0.9563 B(  6-C , 18-H ) :   0.9732 
B(  6-C , 19-H ) :   0.9720 B(  6-C , 20-H ) :   0.9628 

-------
TIMINGS
-------

Total SCF time: 0 days 0 hours 0 min 23 sec 

Total time                  ....      23.060 sec
Sum of individual times     ....      22.569 sec  ( 97.9%)

SCF preparation             ....       0.197 sec  (  0.9%)
Fock matrix formation       ....      21.443 sec  ( 93.0%)
  Startup                   ....       0.062 sec  (  0.3% of F)
  Split-RI-J                ....       4.116 sec  ( 19.2% of F)
  XC integration            ....      16.729 sec  ( 78.0% of F)
    XC Preparation          ....       0.000 sec  (  0.0% of XC)
    Basis function eval.    ....       3.066 sec  ( 18.3% of XC)
    Density eval.           ....       4.950 sec  ( 29.6% of XC)
    XC-Functional eval.     ....       2.204 sec  ( 13.2% of XC)
    XC-Potential eval.      ....       5.417 sec  ( 32.4% of XC)
Diagonalization             ....       0.000 sec  (  0.0%)
Density matrix formation    ....       0.235 sec  (  1.0%)
Total Energy calculation    ....       0.029 sec  (  0.1%)
Population analysis         ....       0.123 sec  (  0.5%)
Orbital Transformation      ....       0.065 sec  (  0.3%)
Orbital Orthonormalization  ....       0.000 sec  (  0.0%)
DIIS solution               ....       0.422 sec  (  1.8%)
  MO trafo                  ....       0.000 sec  (  0.0 % of DIIS)
  Orb grad                  ....       0.000 sec  (  0.0 % of DIIS)
  Energy W gradient         ....       0.000 sec  (  0.0 % of DIIS)
  DIIS error                ....       0.011 sec  (  2.7 % of DIIS)
  DIIS work                 ....       0.356 sec  ( 84.2 % of DIIS)
  Form Q                    ....       0.000 sec  (  0.0 % of DIIS)
  Form QpQm                 ....       0.000 sec  (  0.0 % of DIIS)
  Exp/Cayley                ....       0.000 sec  (  0.0 % of DIIS)
  Orb update                ....       0.000 sec  (  0.0 % of DIIS)
  Wake-sleep                ....       0.020 sec  (  4.8 % of DIIS)
SOSCF solution              ....       0.055 sec  (  0.2%)
  MO trafo                  ....       0.042 sec  ( 76.7 % of SOSCF)
  Orb grad                  ....       0.001 sec  (  1.8 % of SOSCF)
  Rot update                ....       0.000 sec  (  0.1 % of SOSCF)
  Step                      ....       0.012 sec  ( 21.2 % of SOSCF)
Finished LeanSCF after  23.1 sec

Maximum memory used throughout the entire LEANSCF-calculation: 23.6 MB


-------------------------------------------------------------------------------
                          DFT DISPERSION CORRECTION                            
                                                                               
                                DFTD4 V3.4.0                                   
-------------------------------------------------------------------------------
The R2SCAN3C composite method is recognized
Using three-body term ABC
Active option DFTDOPT                   ...         5   

-------------------------   ----------------
Dispersion correction           -0.006578857
-------------------------   ----------------

------------------   -----------------
gCP correction             0.013333838
------------------   -----------------

-------------------------   --------------------
FINAL SINGLE POINT ENERGY      -635.151904434479
-------------------------   --------------------


------------------------------------------------------------------------------
                              ORCA PROPERTY CALCULATIONS
------------------------------------------------------------------------------

GBWName                                 ... sp_gas.gbw
Number of atoms                         ...     21
Number of basis functions               ...    211
Max core memory                         ...   1024 MB

Electric properties:
Dipole moment                           ... YES
Quadrupole moment                       ...  NO
Static polarizability (Dipole/Dipole)   ...  NO
Static polarizability (Dipole/Quad.)    ...  NO
Static polarizability (Quad./Quad.)     ...  NO
Static polarizability (Velocity)        ...  NO

Atomic electric properties:
Dipole moment                           ...  NO
Quadrupole moment                       ...  NO
Static polarizability                   ...  NO

Choice of electric origin               ... Center of mass
Position of electric origin             ...     0.000000     0.000008    -0.000012

General magnetic properties:
Magnetizability                         ...  NO

EPR properties:
g-Tensor (aka g-matrix)                 ...  NO
Zero-Field splitting spin-orbit         ...  NO
Zero-field splitting spin-spin          ...  NO
Hyperfine couplings                     ...  NO (   0 nuclei)
Quadrupole couplings                    ...  NO (   0 nuclei)
Contact density                         ...  NO (   0 nuclei)

NMR properties:
Chemical shifts                         ...  NO (   0 nuclei)
Spin-rotation constants                 ...  NO (   0 nuclei)
Spin-spin couplings                     ...  NO (   0 nuclei,    0 pairs)

Choice of magnetic origin               ... GIAO
Position of magnetic origin             ...     0.000000     0.000000     0.000000

Properties with geometric perturbations:
SCF Hessian                             ...  NO
IR spectrum                             ...  NO
VCD spectrum                            ...  NO
X-ray spectroscopy properties:
SCF XES/XAS/RIXS spectra                ...  NO


-------------
DIPOLE MOMENT
-------------

Method             : SCF
Type of density    : Electron Density
Multiplicity       :   1
Irrep              :   0
Energy             :  -635.1586594161966559 Eh
Relativity type    : 
Basis              : AO
                                X                 Y                 Z
Electronic contribution:     -0.038692794      -4.154793247       6.237014469
Nuclear contribution   :      0.042036699       4.528960197      -6.799274799
                        -----------------------------------------
Total Dipole Moment    :      0.003343905       0.374166950      -0.562260330
                        -----------------------------------------
Magnitude (a.u.)       :      0.675387865
Magnitude (Debye)      :      1.716699524



--------------------
Rotational spectrum 
--------------------
 
Rotational constants in cm-1:             0.090479             0.049475             0.047621 
Rotational constants in MHz :          2712.486645          1483.220470          1427.637086 

Dipole components along the rotational axes: 
x,y,z [a.u.] :    -0.000303     0.001985    -0.675385 
x,y,z [Debye]:    -0.000771     0.005046    -1.716692 

 

Dipole moment calculation done in   0.0 sec 

Maximum memory used throughout the entire PROP-calculation: 13.3 MB

--------------------------------
SUGGESTED CITATIONS FOR THIS RUN
--------------------------------

Below you find a list of papers that are relevant to this ORCA run
We neither can nor want to force you to cite these papers, but we appreciate if you do
You receive ORCA, which is the product of decades of hard work by many enthusiastic individuals, for free
The only thing we kindly ask in return is that you cite our papers,
We deeply appreciate it, if you show your appreciation for ORCA by not just citing the generic ORCA reference.

Please note that relegating all ORCA citations to the supporting information does *not* help us.
SI sections are not indexed - citations you put there will not count into any citation statistics
But we need these citations in order to attract the funding resources that allow us to do what we are doing

Therefore, if you are a happy ORCA user, please consider citing a few of the papers listed below in the main body of your paper

In addition to the list printed below, the program has created the file sp_gas.bibtex that contains the list in bibtex format
You can import this file easily into all common literature databanks and citation aid programs


List of essential papers. We consider these as the minimum necessary citations

  1. Neese,F.
     Software update: the ORCA program system, version 5.0
     WIRES Comput. Molec. Sci., 2022 12(1)e1606
     doi.org/10.1002/wcms.1606
  2. Grimme,S.; Hansen,A.; Ehlert,S.; Mewes,J.
     r2SCAN-3c: A 'Swiss army knife' composite electronic-structure method
     J. Chem. Phys., 2021 154 064103
     doi.org/10.1063/5.0040021

List of papers to cite with high priority. The work reported in these papers was absolutely
necessary for this run to complete.
Our perspective: the developers of density functionals and basis sets usually get cited in chemistry papers
Good! But without the algorithms to do something with them, the functionals or basis sets would not do anything.
Hence, in our opinion, the algorithm design and method developments papers are equally worthy of getting cited

  1. Neese,F.
     An improvement of the resolution of the identity approximation for the formation of the Coulomb matrix
     J. Comp. Chem., 2003 24(14)1740-1747
     doi.org/10.1002/jcc.10318
  2. Neese,F.
     The SHARK Integral Generation and Digestion System
     J. Comp. Chem., 2022  1-16
     doi.org/10.1002/jcc.26942
  3. Lehtola,S.; Steigemann,C.; Oliveira,M.; Marques,M.
     Recent developments in Libxc - A comprehensive library of functionals for density functional theory
     Software X, 2018 7 
     doi.org/10.1016/j.softx.2017.11.002
  4. Caldeweyher,E.; Bannwarth,C.; Grimme,S.
     Extension of the D3 dispersion coefficient model
     J. Chem. Phys., 2017 147 034112-XXXX
     doi.org/10.1063/1.4993215
  5. Caldeweyher,E.; Ehlert,S.; Hansen,A.; Neugebauer,H.; Spicher,S.; Bannwarth,C.; Grimme,S.
     A generally applicable atomic-charge dependent London dispersion correction
     J. Chem. Phys., 2019 150 154122-XXXX
     doi.org/10.1063/1.5090222
  6. Caldeweyher,E.; Mewes,J.; Ehlert,S.; Grimme,S.
     Extension and evaluation of the D4 London-dispersion model for periodic systems
     Phys. Chem. Chem. Phys., 2020 22(16)8499-8512
     doi.org/10.1039/D0CP00502A

List of suggested additional citations. These are papers that are important in the 'surrounding' of 
of this run, or papers that preceded the highly important papers. If you like your results we are grateful for a citation.

  1. Neese,F.
     The ORCA program system
     WIRES Comput. Molec. Sci., 2012 2(1)73-78
     doi.org/10.1002/wcms.81
  2. Neese,F.
     Software update: the ORCA program system, version 4.0
     WIRES Comput. Molec. Sci., 2018 8(1)1-6
     doi.org/10.1002/wcms.1327
  3. Neese,F.; Wennmohs,F.; Becker,U.; Riplinger,C.
     The ORCA quantum chemistry program package
     J. Chem. Phys., 2020 152 Art. No. L224108
     doi.org/10.1063/5.0004608

List of optional additional citations

  1. Neese,F.
     Approximate second-order SCF convergence for spin unrestricted wavefunctions
     Chem. Phys. Lett., 2000 325(1-3)93-98
     doi.org/10.1016/s0009-2614(00)00662-x

Timings for individual modules:

Sum of individual times          ...       24.924 sec (=   0.415 min)
Startup calculation              ...        1.332 sec (=   0.022 min)   5.3 %
SCF iterations                   ...       23.479 sec (=   0.391 min)  94.2 %
Property calculations            ...        0.113 sec (=   0.002 min)   0.5 %
                             ****ORCA TERMINATED NORMALLY****
TOTAL RUN TIME: 0 days 0 hours 0 minutes 25 seconds 644 msec
