      -----------------------------------------------------------      
     |                   =====================                   |     
     |                           x T B                           |     
     |                   =====================                   |     
     |                         S. Grimme                         |     
     |          Mulliken Center for Theoretical Chemistry        |     
     |                    University of Bonn                     |     
      -----------------------------------------------------------      

   * xtb version 6.7.1 (edcfbbe) compiled by 'albert@albert-system' on 2024-07-22

   xtb is free software: you can redistribute it and/or modify it under
   the terms of the GNU Lesser General Public License as published by
   the Free Software Foundation, either version 3 of the License, or
   (at your option) any later version.
   
   xtb is distributed in the hope that it will be useful,
   but WITHOUT ANY WARRANTY; without even the implied warranty of
   MERCHANTABILITY or FITNESS FOR A PARTICULAR PURPOSE.  See the
   GNU Lesser General Public License for more details.
   
   Cite this work as:
   * C. Bannwarth, E. Caldeweyher, S. Ehlert, A. Hansen, P. Pracht,
     J. Seibert, S. Spicher, S. Grimme, WIREs Comput. Mol. Sci., 2020, 11,
     e01493. DOI: 10.1002/wcms.1493
   
   for GFN2-xTB:
   * C. Bannwarth, S. Ehlert and S. Grimme., J. Chem. Theory Comput., 2019,
     15, 1652-1671. DOI: 10.1021/acs.jctc.8b01176
   for GFN1-xTB:
   * S. Grimme, C. Bannwarth, P. Shushkov, J. Chem. Theory Comput., 2017,
     13, 1989-2009. DOI: 10.1021/acs.jctc.7b00118
   for GFN0-xTB:
   * P. Pracht, E. Caldeweyher, S. Ehlert, S. Grimme, ChemRxiv, 2019, preprint.
     DOI: 10.26434/chemrxiv.8326202.v1
   for GFN-FF:
   * S. Spicher and S. Grimme, Angew. Chem. Int. Ed., 2020, 59, 15665-15673.
     DOI: 10.1002/anie.202004239
   
   for ALPB and GBSA implicit solvation:
   * S. Ehlert, M. Stahn, S. Spicher, S. Grimme, J. Chem. Theory Comput.,
     2021, 17, 4250-4261. DOI: 10.1021/acs.jctc.1c00471
   
   for ddCOSMO and CPCM-X implicit solvation:
   * M. Stahn, S. Ehlert, S. Grimme, J. Phys. Chem. A,
     2023, XX, XXXX-XXXX. DOI: 10.1021/acs.jpca.3c04382
   
   for DFT-D4:
   * E. Caldeweyher, C. Bannwarth and S. Grimme, J. Chem. Phys., 2017,
     147, 034112. DOI: 10.1063/1.4993215
   * E. Caldeweyher, S. Ehlert, A. Hansen, H. Neugebauer, S. Spicher,
     C. Bannwarth and S. Grimme, J. Chem. Phys., 2019, 150, 154122.
     DOI: 10.1063/1.5090222
   * E. Caldeweyher, J.-M. Mewes, S. Ehlert and S. Grimme, Phys. Chem. Chem. Phys.
     2020, 22, 8499-8512. DOI: 10.1039/D0CP00502A
   
   for sTDA-xTB:
   * S. Grimme and C. Bannwarth, J. Chem. Phys., 2016, 145, 054103.
     DOI: 10.1063/1.4959605
   
   in the mass-spec context:
   * V. Asgeirsson, C. Bauer and S. Grimme, Chem. Sci., 2017, 8, 4879.
     DOI: 10.1039/c7sc00601b
   * J. Koopman and S. Grimme, ACS Omega 2019, 4, 12, 15120-15133.
     DOI: 10.1021/acsomega.9b02011
   
   for metadynamics refer to:
   * S. Grimme, J. Chem. Theory Comput., 2019, 155, 2847-2862
     DOI: 10.1021/acs.jctc.9b00143
   
   for SPH calculations refer to:
   * S. Spicher and S. Grimme, J. Chem. Theory Comput., 2021, 17, 1701-1714
     DOI: 10.1021/acs.jctc.0c01306
   
   for ONIOM refer to:
   * C. Plett, A. Katbashev, S. Ehlert, S. Grimme, M. Bursch,
     Phys. Chem. Chem. Phys., 2023, 25, 17860-17868. DOI: 10.1039/D3CP02178E
   
   for DIPRO refer to:
   * J. Kohn, N. Gildemeister, S. Grimme, D. Fazzi, A. Hansen,
     J. Chem. Phys., 2023, just accepted.
   
   for PTB refer to:
   * S. Grimme, M. Mueller, A. Hansen, J. Chem. Phys., 2023, 158, 124111.
     DOI: 10.1063/5.0137838
   
   with help from (in alphabetical order)
   P. Atkinson, C. Bannwarth, F. Bohle, G. Brandenburg, E. Caldeweyher
   M. Checinski, S. Dohm, S. Ehlert, S. Ehrlich, I. Gerasimov, C. Hölzer
   A. Katbashev, J. Kohn, J. Koopman, C. Lavigne, S. Lehtola, F. März, M. Müller,
   F. Musil, H. Neugebauer, J. Pisarek, C. Plett, P. Pracht, F. Pultar,
   J. Seibert, P. Shushkov, S. Spicher, M. Stahn, M. Steiner, T. Strunk,
   J. Stückrath, T. Rose, and J. Unsleber
   
 * started run on 2025/04/11 at 15:53:55.439     
   ID    Z sym.   atoms
    1    6 C      1-4, 7, 8
    2    8 O      5, 6
    3    1 H      9-20

           -------------------------------------------------
          |                Calculation Setup                |
           -------------------------------------------------

          program call               : /srv/scratch/z5358697/.xtb/bin/xtb solv.coord --gfn2 --sp --chrg 0 --norestart --parallel 1 --alpb water reference -I xtb_sp-xcontrol-inp
          hostname                   : k061
          coordinate file            : solv.coord
          omp threads                :                     1


           -------------------------------------------------
          |                 G F N 2 - x T B                 |
           -------------------------------------------------

        Reference                      10.1021/acs.jctc.8b01176
      * Hamiltonian:
        H0-scaling (s, p, d)           1.850000    2.230000    2.230000
        zeta-weighting                 0.500000
      * Dispersion:
        s8                             2.700000
        a1                             0.520000
        a2                             5.000000
        s9                             5.000000
      * Repulsion:
        kExp                           1.500000    1.000000
        rExp                           1.000000
      * Coulomb:
        alpha                          2.000000
        third order                    shell-resolved
        anisotropic                    true
        a3                             3.000000
        a5                             4.000000
        cn-shift                       1.200000
        cn-exp                         4.000000
        max-rad                        5.000000

      * Solvation model:               ALPB
        Solvent                        water
        Parameter file                 internal GFN2-xTB/ALPB
        Dielectric constant                8.0200E+01
        Reference state                gsolv=reference [X=1]
        Free energy shift                  2.8945E-03 Eh       1.8164E+00 kcal/mol
        Temperature                        2.9815E+02 K
        Density                            1.0000E+00 kg/L
        Solvent mass                       1.8000E+01 g/mol
        Interaction kernel             P16
        Born radius scaling (c1)           1.4744E+00
        Born radii integrator          GBOBC
        Born offset                        0.0000E+00 a0       0.0000E+00 AA
        H-bond correction              true
        Ion screening                  false
        Surface tension                    1.0000E-05 Eh       1.5569E+01 dyn/cm
        Grid points                               974 per atom

          ...................................................
          :                      SETUP                      :
          :.................................................:
          :  # basis functions                  44          :
          :  # atomic orbitals                  44          :
          :  # shells                           28          :
          :  # electrons                        48          :
          :  max. iterations                   250          :
          :  Hamiltonian                  GFN2-xTB          :
          :  restarted?                      false          :
          :  GBSA solvation                   true          :
          :  PC potential                    false          :
          :  electronic temp.          300.0000000     K    :
          :  accuracy                    1.0000000          :
          :  -> integral cutoff          0.2500000E+02      :
          :  -> integral neglect         0.1000000E-07      :
          :  -> SCF convergence          0.1000000E-05 Eh   :
          :  -> wf. convergence          0.1000000E-03 e    :
          :  Broyden damping             0.4000000          :
          :  net charge                          0          :
          :  unpaired electrons                  0          :
          ...................................................

 iter      E             dE          RMSdq      gap      omega  full diag
   1    -27.3726897 -0.273727E+02  0.401E+00    5.80       0.0  T
   2    -27.4336492 -0.609595E-01  0.200E+00    4.88       1.0  T
   3    -27.4353280 -0.167879E-02  0.101E+00    5.17       1.0  T
   4    -27.4366539 -0.132585E-02  0.162E-01    4.94       1.0  T
   5    -27.4368587 -0.204805E-03  0.673E-02    5.00       1.0  T
   6    -27.4368604 -0.175410E-05  0.211E-02    4.99       1.1  T
   7    -27.4368614 -0.102927E-05  0.384E-03    5.00       5.8  T
   8    -27.4368615 -0.210677E-07  0.214E-03    5.00      10.5  T
   9    -27.4368615 -0.739008E-08  0.348E-04    5.00      64.3  T
  10    -27.4368615 -0.278487E-09  0.188E-04    5.00     118.7  T

   *** convergence criteria satisfied after 10 iterations ***

         #    Occupation            Energy/Eh            Energy/eV
      -------------------------------------------------------------
         1        2.0000           -0.7505273             -20.4229
       ...           ...                  ...                  ...
        18        2.0000           -0.4668198             -12.7028
        19        2.0000           -0.4623930             -12.5824
        20        2.0000           -0.4588010             -12.4846
        21        2.0000           -0.4441304             -12.0854
        22        2.0000           -0.4397295             -11.9656
        23        2.0000           -0.4313971             -11.7389
        24        2.0000           -0.4222971             -11.4913 (HOMO)
        25                         -0.2386993              -6.4953 (LUMO)
        26                         -0.0087709              -0.2387
        27                          0.1007315               2.7410
        28                          0.1101991               2.9987
        29                          0.1155132               3.1433
       ...                                ...                  ...
        44                          0.6144013              16.7187
      -------------------------------------------------------------
                  HL-Gap            0.1835978 Eh            4.9959 eV
             Fermi-level           -0.3304982 Eh           -8.9933 eV

 SCC (total)                   0 d,  0 h,  0 min,  0.022 sec
 SCC setup                      ...        0 min,  0.001 sec (  6.557%)
 Dispersion                     ...        0 min,  0.000 sec (  0.604%)
 classical contributions        ...        0 min,  0.000 sec (  0.130%)
 integral evaluation            ...        0 min,  0.002 sec (  7.962%)
 iterations                     ...        0 min,  0.011 sec ( 52.446%)
 molecular gradient             ...        0 min,  0.007 sec ( 31.368%)
 printout                       ...        0 min,  0.000 sec (  0.794%)

         :::::::::::::::::::::::::::::::::::::::::::::::::::::
         ::                     SUMMARY                     ::
         :::::::::::::::::::::::::::::::::::::::::::::::::::::
         :: total energy             -27.120356378498 Eh    ::
         :: total w/o Gsasa/hb       -27.122195143616 Eh    ::
         :: gradient norm              0.000126510843 Eh/a0 ::
         :: HOMO-LUMO gap              4.995949645415 eV    ::
         ::.................................................::
         :: SCC energy               -27.436863842491 Eh    ::
         :: -> isotropic ES            0.059204495665 Eh    ::
         :: -> anisotropic ES          0.000349578095 Eh    ::
         :: -> anisotropic XC          0.008275708400 Eh    ::
         :: -> dispersion             -0.011047762668 Eh    ::
         :: -> Gsolv                  -0.007323887951 Eh    ::
         ::    -> Gelec               -0.009162653068 Eh    ::
         ::    -> Gsasa                0.001240922854 Eh    ::
         ::    -> Ghb                 -0.002296706896 Eh    ::
         ::    -> Gshift               0.002894549160 Eh    ::
         :: repulsion energy           0.316507463993 Eh    ::
         :: add. restraining           0.000000000000 Eh    ::
         :: total charge              -0.000000000000 e     ::
         :::::::::::::::::::::::::::::::::::::::::::::::::::::

           -------------------------------------------------
          |                Property Printout                |
           -------------------------------------------------

    * Orbital Energies and Occupations

         #    Occupation            Energy/Eh            Energy/eV
      -------------------------------------------------------------
         1        2.0000           -0.7505273             -20.4229
       ...           ...                  ...                  ...
        12        2.0000           -0.5235456             -14.2464
        13        2.0000           -0.5149888             -14.0136
        14        2.0000           -0.5054022             -13.7527
        15        2.0000           -0.4914518             -13.3731
        16        2.0000           -0.4838729             -13.1669
        17        2.0000           -0.4716599             -12.8345
        18        2.0000           -0.4668198             -12.7028
        19        2.0000           -0.4623930             -12.5824
        20        2.0000           -0.4588010             -12.4846
        21        2.0000           -0.4441304             -12.0854
        22        2.0000           -0.4397295             -11.9656
        23        2.0000           -0.4313971             -11.7389
        24        2.0000           -0.4222971             -11.4913 (HOMO)
        25                         -0.2386993              -6.4953 (LUMO)
        26                         -0.0087709              -0.2387
        27                          0.1007315               2.7410
        28                          0.1101991               2.9987
        29                          0.1155132               3.1433
        30                          0.1347488               3.6667
        31                          0.1468628               3.9963
        32                          0.1541661               4.1951
        33                          0.1577293               4.2920
        34                          0.1616426               4.3985
        35                          0.1809870               4.9249
       ...                                ...                  ...
        44                          0.6144013              16.7187
      -------------------------------------------------------------
                  HL-Gap            0.1835978 Eh            4.9959 eV
             Fermi-level           -0.3304982 Eh           -8.9933 eV

     #   Z          covCN         q      C6AA      α(0)
     1   6 C        3.753    -0.119    22.835     6.814
     2   6 C        3.803    -0.050    21.465     6.596
     3   6 C        3.805    -0.101    22.415     6.740
     4   6 C        2.711     0.364    20.819     7.469
     5   8 O        0.856    -0.494    23.648     6.520
     6   8 O        1.703    -0.269    18.462     5.801
     7   6 C        3.690     0.071    19.576     6.332
     8   6 C        3.751    -0.132    23.104     6.855
     9   1 H        0.925     0.047     2.356     2.400
    10   1 H        0.925     0.050     2.317     2.380
    11   1 H        0.925     0.050     2.317     2.380
    12   1 H        0.924     0.041     2.434     2.440
    13   1 H        0.924     0.044     2.395     2.420
    14   1 H        0.924     0.084     1.937     2.177
    15   1 H        0.925     0.078     2.001     2.212
    16   1 H        0.924     0.066     2.128     2.281
    17   1 H        0.924     0.059     2.207     2.323
    18   1 H        0.925     0.063     2.164     2.300
    19   1 H        0.925     0.073     2.057     2.243
    20   1 H        0.925     0.073     2.052     2.240

 Mol. C6AA /au·bohr⁶  :       2996.023928
 Mol. C8AA /au·bohr⁸  :      63821.731681
 Mol. α(0) /au        :         80.923460


Wiberg/Mayer (AO) data.
largest (>0.10) Wiberg bond orders for each atom

 ---------------------------------------------------------------------------
     #   Z sym  total        # sym  WBO       # sym  WBO       # sym  WBO
 ---------------------------------------------------------------------------
     1   6 C    3.993 --     2 C    1.018     9 H    0.987    10 H    0.987
                            11 H    0.985
     2   6 C    3.991 --     1 C    1.018     3 C    0.981    12 H    0.979
                            13 H    0.978
     3   6 C    3.988 --     2 C    0.981     4 C    0.978    15 H    0.973
                            14 H    0.952
     4   6 C    3.904 --     5 O    1.686     6 O    1.174     3 C    0.978
     5   8 O    1.969 --     4 C    1.686     6 O    0.173
     6   8 O    2.323 --     4 C    1.174     7 C    0.916     5 O    0.173
     7   6 C    3.910 --     8 C    1.017    17 H    0.969    16 H    0.966
                             6 O    0.916
     8   6 C    3.985 --     7 C    1.017    18 H    0.985    19 H    0.983
                            20 H    0.980
     9   1 H    0.998 --     1 C    0.987
    10   1 H    0.997 --     1 C    0.987
    11   1 H    0.997 --     1 C    0.985
    12   1 H    0.998 --     2 C    0.979
    13   1 H    0.998 --     2 C    0.978
    14   1 H    0.993 --     3 C    0.952
    15   1 H    0.994 --     3 C    0.973
    16   1 H    0.995 --     7 C    0.966
    17   1 H    0.996 --     7 C    0.969
    18   1 H    0.996 --     8 C    0.985
    19   1 H    0.995 --     8 C    0.983
    20   1 H    0.994 --     8 C    0.980
 ---------------------------------------------------------------------------

Topologies differ in total number of bonds
Writing topology from bond orders to xtbtopo.mol

molecular dipole:
                 x           y           z       tot (Debye)
 q only:        0.276      -1.225      -0.137
   full:        0.290      -1.165      -0.190       3.089
molecular quadrupole (traceless):
                xx          xy          yy          xz          yz          zz
 q only:       11.259       0.513      -9.103       1.730      -1.097      -2.156
  q+dip:        8.701       0.440      -8.789       1.092      -1.419       0.088
   full:        9.251       0.738      -9.434       1.185      -1.769       0.182


           -------------------------------------------------
          | TOTAL ENERGY              -27.120356378498 Eh   |
          | GRADIENT NORM               0.000126510843 Eh/α |
          | HOMO-LUMO GAP               4.995949645415 eV   |
           -------------------------------------------------

------------------------------------------------------------------------
 * finished run on 2025/04/11 at 15:53:55.505     
------------------------------------------------------------------------
 total:
 * wall-time:     0 d,  0 h,  0 min,  0.065 sec
 *  cpu-time:     0 d,  0 h,  0 min,  0.033 sec
 * ratio c/w:     0.499 speedup
 SCF:
 * wall-time:     0 d,  0 h,  0 min,  0.022 sec
 *  cpu-time:     0 d,  0 h,  0 min,  0.019 sec
 * ratio c/w:     0.865 speedup

