
                                 *****************
                                 * O   R   C   A *
                                 *****************

                                            #,                                       
                                            ###                                      
                                            ####                                     
                                            #####                                    
                                            ######                                   
                                           ########,                                 
                                     ,,################,,,,,                         
                               ,,#################################,,                 
                          ,,##########################################,,             
                       ,#########################################, ''#####,          
                    ,#############################################,,   '####,        
                  ,##################################################,,,,####,       
                ,###########''''           ''''###############################       
              ,#####''   ,,,,##########,,,,          '''####'''          '####       
            ,##' ,,,,###########################,,,                        '##       
           ' ,,###''''                  '''############,,,                           
         ,,##''                                '''############,,,,        ,,,,,,###''
      ,#''                                            '''#######################'''  
     '                                                          ''''####''''         
             ,#######,   #######,   ,#######,      ##                                
            ,#'     '#,  ##    ##  ,#'     '#,    #''#        ,####,   ,####,        
            ##       ##  ##   ,#'  ##            #'  '#       #'       #'  '#        
            ##       ##  #######   ##           ,######,      #####,   #    #        
            '#,     ,#'  ##    ##  '#,     ,#' ,#      #,     #,   #   #,  ,#        
             '#######'   ##     ##  '#######'  #'      '#     '####' # '####'        



                #########################################################
                #                        -***-                          #
                #          Department of theory and spectroscopy        #
                #                                                       #
                #                      Frank Neese                      #
                #                                                       #
                #     Directorship, Architecture, Infrastructure        #
                #                    SHARK, DRIVERS                     #
                #        Core code/Algorithms in most modules           #
                #                                                       #
                #        Max Planck Institute fuer Kohlenforschung      #
                #                Kaiser Wilhelm Platz 1                 #
                #                 D-45470 Muelheim/Ruhr                 #
                #                      Germany                          #
                #                                                       #
                #                  All rights reserved                  #
                #                        -***-                          #
                #########################################################


                         Program Version 6.0.0  -   RELEASE  -


 With contributions from (in alphabetic order):
   Daniel Aravena         : Magnetic Suceptibility
   Michael Atanasov       : Ab Initio Ligand Field Theory (pilot matlab implementation)
   Alexander A. Auer      : GIAO ZORA, VPT2 properties, NMR spectrum
   Ute Becker             : All parallelization in ORCA, NUMFREQ, NUMCALC
   Giovanni Bistoni       : ED, misc. LED, open-shell LED, HFLD
   Martin Brehm           : Molecular dynamics
   Dmytro Bykov           : pre 5.0 version of the SCF Hessian
   Marcos Casanova-Páez   : Triplet and SCS-CIS(D). UHF-(DLPNO)-IP/EA/STEOM-CCSD. UHF-CVS-IP/STEOM-CCSD
   Vijay G. Chilkuri      : MRCI spin determinant printing, contributions to CSF-ICE
   Pauline Colinet        : FMM embedding
   Dipayan Datta          : RHF DLPNO-CCSD density
   Achintya Kumar Dutta   : EOM-CC, STEOM-CC
   Nicolas Foglia         : Exact transition moments, OPA infrastructure, MCD improvements
   Dmitry Ganyushin       : Spin-Orbit,Spin-Spin,Magnetic field MRCI
   Miquel Garcia          : C-PCM and meta-GGA Hessian, CCSD/C-PCM, Gaussian charge scheme
   Tiago L. C. Gouveia    : GS-ROHF, GS-ROCIS
   Yang Guo               : DLPNO-NEVPT2, F12-NEVPT2, CIM, IAO-localization
   Andreas Hansen         : Spin unrestricted coupled pair/coupled cluster methods
   Ingolf Harden          : AUTO-CI MPn and infrastructure 
   Benjamin Helmich-Paris : MC-RPA, TRAH-(SCF,CASSCF), AVAS, COSX integrals, SCF dyn. polar.
   Lee Huntington         : MR-EOM, pCC
   Robert Izsak           : Overlap fitted RIJCOSX, COSX-SCS-MP3, EOM
   Riya Kayal             : Wick's Theorem for AUTO-CI, AUTO-CI UHF-CCSDT
   Emily Kempfer          : AUTO-CI, RHF CISDT and CCSDT
   Christian Kollmar      : KDIIS, OOCD, Brueckner-CCSD(T), CCSD density, CASPT2, CASPT2-K, improved NEVPT2
   Axel Koslowski         : Symmetry handling
   Simone Kossmann        : Meta GGA functionals, TD-DFT gradient, OOMP2, (MP2 Hessian; deprecated post 5.0)
   Lucas Lang             : DCDCAS
   Marvin Lechner         : AUTO-CI (C++ implementation), FIC-MRCC
   Spencer Leger          : CASSCF response
   Dagmar Lenk            : GEPOL surface, SMD, ORCA-2-JSON
   Dimitrios Liakos       : Extrapolation schemes; Compound Job, initial MDCI parallelization
   Dimitrios Manganas     : Further ROCIS development; embedding schemes. LFT, Crystal Embedding
   Dimitrios Pantazis     : SARC Basis sets
   Anastasios Papadopoulos: AUTO-CI, single reference methods and gradients
   Taras Petrenko         : pre 6.0 DFT Hessian and TD-DFT gradient, (ASA, deprecated), ECA, 1-Electron XAS/XES, NRVS
   Peter Pinski           : DLPNO-MP2, DLPNO-MP2 Gradient
   Christoph Reimann      : Effective Core Potentials
   Marius Retegan         : Local ZFS, SOC
   Christoph Riplinger    : Optimizer, TS searches, QM/MM, DLPNO-CCSD(T), (RO)-DLPNO pert. Triples
   Michael Roemelt        : Original ROCIS implementation
   Masaaki Saitow         : Open-shell DLPNO-CCSD energy and density
   Barbara Sandhoefer     : DKH picture change effects
   Kantharuban Sivalingam : CASSCF convergence/infrastructure, NEVPT2 and variants, FIC-MRCI
   Bernardo de Souza      : ESD, SOC TD-DFT
   Georgi Stoychev        : AutoAux, RI-MP2 NMR, DLPNO-MP2 response, X2C
   Van Anh Tran           : RI-MP2 g-tensors
   Willem Van den Heuvel  : Paramagnetic NMR
   Zikuan Wang            : NOTCH, Electric field optimization 
   Frank Wennmohs         : Technical directorship and infrastructure
   Hang Xu                : AUTO-CI-Response properties 


 We gratefully acknowledge several colleagues who have allowed us to
 interface, adapt or use parts of their codes:
   Stefan Grimme, W. Hujo, H. Kruse, P. Pracht,  : VdW corrections, initial TS optimization,
                  C. Bannwarth, S. Ehlert,         DFT functionals, gCP, sTDA/sTD-DF
                  L. Wittmann, M. Mueller
   Ed Valeev, F. Pavosevic, A. Kumar             : LibInt (2-el integral package), F12 methods
   Garnet Chan, S. Sharma, J. Yang, R. Olivares  : DMRG
   Ulf Ekstrom                                   : XCFun DFT Library
   Mihaly Kallay                                 : mrcc  (arbitrary order and MRCC methods)
   Frank Weinhold                                : gennbo (NPA and NBO analysis)
   Simon Mueller                                 : openCOSMO-RS
   Christopher J. Cramer and Donald G. Truhlar   : smd solvation model
   Lars Goerigk                                  : TD-DFT with DH, B97 family of functionals
   V. Asgeirsson, H. Jonsson                     : NEB implementation
   FAccTs GmbH                                   : IRC, NEB, NEB-TS, DLPNO-Multilevel, CI-OPT
                                                   MM, QMMM, 2- and 3-layer-ONIOM, Crystal-QMMM,
                                                   LR-CPCM, SF, NACMEs, symmetry and pop. for TD-DFT,
                                                   nearIR, NL-DFT gradient (VV10), updates on ESD,
                                                   ML-optimized integration grids, MBIS, APM,
                                                   GOAT, DOCKER, SOLVATOR, interface openCOSMO-RS
   S Lehtola, MJT Oliveira, MAL Marques          : LibXC Library
   Liviu Ungur et al                             : ANISO software


 Your calculation uses the libint2 library for the computation of 2-el integrals
 For citations please refer to: http://libint.valeyev.net

 Your ORCA version has been built with support for libXC version: 6.2.2
 For citations please refer to: https://libxc.gitlab.io

 This ORCA versions uses:
   CBLAS   interface :  Fast vector & matrix operations
   LAPACKE interface :  Fast linear algebra routines
   SCALAPACK package :  Parallel linear algebra routines
   Shared memory     :  Shared parallel matrices
   BLAS/LAPACK       :  OpenBLAS 0.3.27  USE64BITINT DYNAMIC_ARCH NO_AFFINITY SkylakeX SINGLE_THREADED
        Core in use  :  SkylakeX
   Copyright (c) 2011-2014, The OpenBLAS Project


Your calculation utilizes the geometrical counterpoise correction gCP
Please cite in your paper:
H.Kruse, S. Grimme J.Chem.Phys., 136, (2012), 154101 
   

Your calculation utilizes the atom-pairwise dispersion correction
based on EEQ partial charges (D4)


Your calculation utilizes the SMD solvation module
Please cite in your paper:
A.V. Marenich, C.J. Cramer, D.G. Truhlar J. Phys. Chem. B, 113, (2009), 6378 

================================================================================

----- Orbital basis set information -----
Your calculation utilizes the basis: def2-mTZVPP
   Stefan Grimme, Andreas Hansen, Sebastian Ehlert, and Jan-Michael Mewes 
   J. Chem. Phys. 154, 064103 (2021). DOI: 10.1063/5.0040021

----- AuxJ basis set information -----
Your calculation utilizes the auxiliary basis: def2/J
   F. Weigend, Phys. Chem. Chem. Phys. 8, 1057 (2006).

================================================================================
                                        WARNINGS
                       Please study these warnings very carefully!
================================================================================

Using LibXC functional ID 497 : Re-regularized SCAN exchange by Furness et al
[ 1]  J. W. Furness, A. D. Kaplan, J. Ning, J. P. Perdew, and J. Sun.,  J. Phys. Chem. Lett. 11, 8208-8215 (2020)
[ 2]  J. W. Furness, A. D. Kaplan, J. Ning, J. P. Perdew, and J. Sun.,  J. Phys. Chem. Lett. 11, 9248-9248 (2020)
Using LibXC functional ID 498 : Re-regularized SCAN correlation by Furness et al
[ 1]  J. W. Furness, A. D. Kaplan, J. Ning, J. P. Perdew, and J. Sun.,  J. Phys. Chem. Lett. 11, 8208-8215 (2020)
[ 2]  J. W. Furness, A. D. Kaplan, J. Ning, J. P. Perdew, and J. Sun.,  J. Phys. Chem. Lett. 11, 9248-9248 (2020)
Using LibXC functional ID 497 : Re-regularized SCAN exchange by Furness et al
[ 1]  J. W. Furness, A. D. Kaplan, J. Ning, J. P. Perdew, and J. Sun.,  J. Phys. Chem. Lett. 11, 8208-8215 (2020)
[ 2]  J. W. Furness, A. D. Kaplan, J. Ning, J. P. Perdew, and J. Sun.,  J. Phys. Chem. Lett. 11, 9248-9248 (2020)
Using LibXC functional ID 498 : Re-regularized SCAN correlation by Furness et al
[ 1]  J. W. Furness, A. D. Kaplan, J. Ning, J. P. Perdew, and J. Sun.,  J. Phys. Chem. Lett. 11, 8208-8215 (2020)
[ 2]  J. W. Furness, A. D. Kaplan, J. Ning, J. P. Perdew, and J. Sun.,  J. Phys. Chem. Lett. 11, 9248-9248 (2020)

================================================================================
                                       INPUT FILE
================================================================================
NAME = sp_solv.inp
|  1> ! r2scan-3c def2/J RI DEFGRID2 scfconv6 printgap
|  2> %output
|  3>     printlevel normal
|  4> end
|  5> %cpcm
|  6>     smd true
|  7>     smdsolvent "water"
|  8> end
|  9> * xyz 0 1
| 10> C -2.175982922 -1.4726577065 -0.2335127725
| 11> C -2.4864582801 -0.0005296009 0.0083631467
| 12> C -1.356895936 0.6972159742 0.7754890847
| 13> C -0.1008631672 0.7349128644 -0.05655279
| 14> O -0.0086618059 1.2605744015 -1.1476442739
| 15> O 0.9016613258 0.1098554972 0.5427921838
| 16> C 2.1717487761 0.0298340089 -0.1266959062
| 17> C 2.8647462017 -1.2501152653 0.3029651141
| 18> H -1.2892414551 -1.5770286492 -0.8560783338
| 19> H -1.9969821382 -1.9852869435 0.7085613653
| 20> H -3.0068425285 -1.9565871135 -0.7398448197
| 21> H -3.4079773733 0.0906259967 0.5837299595
| 22> H -2.6254224271 0.5084723137 -0.9473539438
| 23> H -1.1420555686 0.1781841907 1.7085853719
| 24> H -1.6462045454 1.7277483681 0.9860119088
| 25> H 1.9971805592 0.0596681998 -1.2071489069
| 26> H 2.7540242711 0.9114125661 0.1583280006
| 27> H 2.2744542261 -2.1143749506 0.0116814321
| 28> H 3.8387541387 -1.3071902957 -0.1716783702
| 29> H 2.9892037738 -1.2586367203 1.3816657005
| 30> *
| 31> 
| 32>                          ****END OF INPUT****
================================================================================

                       ****************************
                       * Single Point Calculation *
                       ****************************

---------------------------------
CARTESIAN COORDINATES (ANGSTROEM)
---------------------------------
  C     -2.175983   -1.472658   -0.233513
  C     -2.486458   -0.000530    0.008363
  C     -1.356896    0.697216    0.775489
  C     -0.100863    0.734913   -0.056553
  O     -0.008662    1.260574   -1.147644
  O      0.901661    0.109855    0.542792
  C      2.171749    0.029834   -0.126696
  C      2.864746   -1.250115    0.302965
  H     -1.289241   -1.577029   -0.856078
  H     -1.996982   -1.985287    0.708561
  H     -3.006843   -1.956587   -0.739845
  H     -3.407977    0.090626    0.583730
  H     -2.625422    0.508472   -0.947354
  H     -1.142056    0.178184    1.708585
  H     -1.646205    1.727748    0.986012
  H      1.997181    0.059668   -1.207149
  H      2.754024    0.911413    0.158328
  H      2.274454   -2.114375    0.011681
  H      3.838754   -1.307190   -0.171678
  H      2.989204   -1.258637    1.381666

----------------------------
CARTESIAN COORDINATES (A.U.)
----------------------------
  NO LB      ZA    FRAG     MASS         X           Y           Z
   0 C     6.0000    0    12.011   -4.112012   -2.782920   -0.441275
   1 C     6.0000    0    12.011   -4.698725   -0.001001    0.015804
   2 C     6.0000    0    12.011   -2.564162    1.317547    1.465462
   3 C     6.0000    0    12.011   -0.190604    1.388784   -0.106869
   4 O     8.0000    0    15.999   -0.016368    2.382140   -2.168733
   5 O     8.0000    0    15.999    1.703893    0.207597    1.025729
   6 C     6.0000    0    12.011    4.104010    0.056378   -0.239421
   7 C     6.0000    0    12.011    5.413586   -2.362375    0.572521
   8 H     1.0000    0     1.008   -2.436313   -2.980152   -1.617754
   9 H     1.0000    0     1.008   -3.773749   -3.751649    1.338987
  10 H     1.0000    0     1.008   -5.682109   -3.697414   -1.398104
  11 H     1.0000    0     1.008   -6.440144    0.171258    1.103090
  12 H     1.0000    0     1.008   -4.961329    0.960873   -1.790240
  13 H     1.0000    0     1.008   -2.158172    0.336719    3.228758
  14 H     1.0000    0     1.008   -3.110876    3.264971    1.863292
  15 H     1.0000    0     1.008    3.774124    0.112757   -2.281181
  16 H     1.0000    0     1.008    5.204352    1.722320    0.299197
  17 H     1.0000    0     1.008    4.298096   -3.995590    0.022075
  18 H     1.0000    0     1.008    7.254194   -2.470232   -0.324425
  19 H     1.0000    0     1.008    5.648776   -2.378479    2.610970

--------------------------------
INTERNAL COORDINATES (ANGSTROEM)
--------------------------------
 C      0   0   0     0.000000000000     0.00000000     0.00000000
 C      1   0   0     1.523830721430     0.00000000     0.00000000
 C      2   1   0     1.533376073093   111.64898313     0.00000000
 C      3   2   1     1.507094241607   110.43331714    65.43640808
 O      4   3   2     1.214620010065   124.75197243    59.08519891
 O      4   3   2     1.324751474419   111.66145923   239.63537632
 C      6   4   3     1.437963793929   118.94918471   178.86969104
 C      7   6   4     1.517604747218   108.56912829   210.12477286
 H      1   2   3     1.088481327776   110.45084706   297.28652366
 H      1   2   3     1.087351689353   110.57730948    57.31926815
 H      1   2   3     1.086686476724   110.38909466   177.56721423
 H      2   1   3     1.090208122964   109.68004356   239.45071892
 H      2   1   3     1.091690954571   109.71904091   120.49875481
 H      3   2   1     1.089136840316   110.92031908   304.86666922
 H      3   2   1     1.090878703531   109.33246242   183.75909653
 H      7   6   4     1.094871146766   108.48796679   332.10628789
 H      7   6   4     1.094287042800   107.69104544    89.54037998
 H      8   7   6     1.086386489005   110.29962385    61.71461985
 H      8   7   6     1.085004819170   109.29537444   181.76420052
 H      8   7   6     1.085890076181   109.88899135   301.75740824

---------------------------
INTERNAL COORDINATES (A.U.)
---------------------------
 C      0   0   0     0.000000000000     0.00000000     0.00000000
 C      1   0   0     2.879622737958     0.00000000     0.00000000
 C      2   1   0     2.897660838453   111.64898313     0.00000000
 C      3   2   1     2.847995374647   110.43331714    65.43640808
 O      4   3   2     2.295299175804   124.75197243    59.08519891
 O      4   3   2     2.503417482160   111.66145923   239.63537632
 C      6   4   3     2.717357761020   118.94918471   178.86969104
 C      7   6   4     2.867857351781   108.56912829   210.12477286
 H      1   2   3     2.056931611383   110.45084706   297.28652366
 H      1   2   3     2.054796904135   110.57730948    57.31926815
 H      1   2   3     2.053539834444   110.38909466   177.56721423
 H      2   1   3     2.060194781379   109.68004356   239.45071892
 H      2   1   3     2.062996927018   109.71904091   120.49875481
 H      3   2   1     2.058170350562   110.92031908   304.86666922
 H      3   2   1     2.061461995000   109.33246242   183.75909653
 H      7   6   4     2.069006619319   108.48796679   332.10628789
 H      7   6   4     2.067902822790   107.69104544    89.54037998
 H      8   7   6     2.052972939811   110.29962385    61.71461985
 H      8   7   6     2.050361962216   109.29537444   181.76420052
 H      8   7   6     2.052034855525   109.88899135   301.75740824

---------------------
BASIS SET INFORMATION
---------------------
There are 3 groups of distinct atoms

 Group   1 Type C   : 11s6p1d contracted to 5s3p1d pattern {62111/411/1}
 Group   2 Type O   : 11s6p2d contracted to 5s3p2d pattern {62111/411/11}
 Group   3 Type H   : 4s1p contracted to 2s1p pattern {31/1}

Atom   0C    basis set group =>   1
Atom   1C    basis set group =>   1
Atom   2C    basis set group =>   1
Atom   3C    basis set group =>   1
Atom   4O    basis set group =>   2
Atom   5O    basis set group =>   2
Atom   6C    basis set group =>   1
Atom   7C    basis set group =>   1
Atom   8H    basis set group =>   3
Atom   9H    basis set group =>   3
Atom  10H    basis set group =>   3
Atom  11H    basis set group =>   3
Atom  12H    basis set group =>   3
Atom  13H    basis set group =>   3
Atom  14H    basis set group =>   3
Atom  15H    basis set group =>   3
Atom  16H    basis set group =>   3
Atom  17H    basis set group =>   3
Atom  18H    basis set group =>   3
Atom  19H    basis set group =>   3
---------------------------------
AUXILIARY/J BASIS SET INFORMATION
---------------------------------
There are 3 groups of distinct atoms

 Group   1 Type C   : 12s5p4d2f1g contracted to 6s4p3d1f1g pattern {711111/2111/211/2/1}
 Group   2 Type O   : 12s5p4d2f1g contracted to 6s4p3d1f1g pattern {711111/2111/211/2/1}
 Group   3 Type H   : 5s2p1d contracted to 3s1p1d pattern {311/2/1}

Atom   0C    basis set group =>   1
Atom   1C    basis set group =>   1
Atom   2C    basis set group =>   1
Atom   3C    basis set group =>   1
Atom   4O    basis set group =>   2
Atom   5O    basis set group =>   2
Atom   6C    basis set group =>   1
Atom   7C    basis set group =>   1
Atom   8H    basis set group =>   3
Atom   9H    basis set group =>   3
Atom  10H    basis set group =>   3
Atom  11H    basis set group =>   3
Atom  12H    basis set group =>   3
Atom  13H    basis set group =>   3
Atom  14H    basis set group =>   3
Atom  15H    basis set group =>   3
Atom  16H    basis set group =>   3
Atom  17H    basis set group =>   3
Atom  18H    basis set group =>   3
Atom  19H    basis set group =>   3

Checking for AutoStart:
The File: sp_solv.gbw exists
Trying to determine its content:
     ... Fine, the file contains calculation information
     ... Fine, the calculation information was read
     ... Fine, the file contains a basis set
     ... Fine, the basis set was read
     ... Fine, the file contains a geometry
     ... Fine, the geometry was read
     ... Fine, the file contains a set of orbitals
     ... Fine, the orbitals can be read
     => possible old guess file was deleted
     => GBW file was renamed to GES file
     => GES file is set as startup file
     => Guess is set to MORead
     ... now leaving AutoStart

------------------------------------------------------------------------------
                             ORCA STARTUP CALCULATIONS
                           -- RI-GTO INTEGRALS CHOSEN --
------------------------------------------------------------------------------
------------------------------------------------------------------------------
                   ___                                                        
                  /   \      - P O W E R E D   B Y -                         
                 /     \                                                     
                 |  |  |   _    _      __       _____    __    __             
                 |  |  |  | |  | |    /  \     |  _  \  |  |  /  |          
                  \  \/   | |  | |   /    \    | | | |  |  | /  /          
                 / \  \   | |__| |  /  /\  \   | |_| |  |  |/  /          
                |  |  |   |  __  | /  /__\  \  |    /   |      \           
                |  |  |   | |  | | |   __   |  |    \   |  |\   \          
                \     /   | |  | | |  |  |  |  | |\  \  |  | \   \       
                 \___/    |_|  |_| |__|  |__|  |_| \__\ |__|  \__/        
                                                                              
                      - O R C A' S   B I G   F R I E N D -                    
                                      &                                       
                       - I N T E G R A L  F E E D E R -                       
                                                                              
 v1 FN, 2020, v2 2021, v3 2022-2024                                           
------------------------------------------------------------------------------


----------------------
SHARK INTEGRAL PACKAGE
----------------------

Number of atoms                             ...     20
Number of basis functions                   ...    222
Number of shells                            ...    110
Maximum angular momentum                    ...      2
Integral batch strategy                     ... SHARK/LIBINT Hybrid
RI-J (if used) integral strategy            ... SPLIT-RIJ (Revised 2003 algorithm where possible)
Printlevel                                  ...      1
Contraction scheme used                     ... SEGMENTED contraction
Prescreening option                         ... SCHWARTZ
   Thresh                                   ... 1.000e-10
   Tcut                                     ... 1.000e-11
   Tpresel                                  ... 1.000e-11 
Coulomb Range Separation                    ... NOT USED
Exchange Range Separation                   ... NOT USED
Multipole approximations                    ... NOT USED
Finite Nucleus Model                        ... NOT USED
CABS basis                                  ... NOT available
Auxiliary Coulomb fitting basis             ... AVAILABLE
   # of basis functions in Aux-J            ...    524
   # of shells in Aux-J                     ...    180
   Maximum angular momentum in Aux-J        ...      4
Auxiliary J/K fitting basis                 ... NOT available
Auxiliary Correlation fitting basis         ... NOT available
Auxiliary 'external' fitting basis          ... NOT available

Checking pre-screening integrals            ... done (  0.0 sec) Dimension = 110
Check shell pair data                       ... done (  0.0 sec)
Shell pair information
Shell pair cut-off parameter TPreSel        ...   1.0e-11
Total number of shell pairs                 ...      6105
Shell pairs after pre-screening             ...      5334
Total number of primitive shell pairs       ...     21533
Primitive shell pairs kept                  ...     13281
          la=0 lb=0:   1796 shell pairs
          la=1 lb=0:   2013 shell pairs
          la=1 lb=1:    587 shell pairs
          la=2 lb=0:    568 shell pairs
          la=2 lb=1:    317 shell pairs
          la=2 lb=2:     53 shell pairs

Calculating one electron integrals          ... done (  0.0 sec)
Calculating RI/J V-Matrix + Cholesky decomp.... done (  0.1 sec)
Calculating Nuclear repulsion               ... done (  0.0 sec) ENN=    394.616036104292 Eh

Diagonalization of the overlap matrix:
Smallest eigenvalue                        ... 1.973e-04
Time for diagonalization                   ...    0.008 sec
Threshold for overlap eigenvalues          ... 1.000e-07
Number of eigenvalues below threshold      ... 0
Time for construction of square roots      ...    0.018 sec
Total time needed                          ...    0.036 sec

-------------------
DFT GRID GENERATION
-------------------

General Integration Accuracy     IntAcc      ... 4.388
Radial Grid Type                 RadialGrid  ... OptM3 with GC (2021)
Angular Grid (max. ang.)         AngularGrid ... 4 (Lebedev-302)
Angular grid pruning method      GridPruning ... 4 (adaptive)
Weight generation scheme         WeightScheme... mBecke (2022)
Basis function cutoff            BFCut       ... 1.0000e-10
Integration weight cutoff        WCut        ... 1.0000e-14
Partially contracted basis set               ... off
Rotationally invariant grid construction     ... off
Angular grids for H and He will be reduced by one unit
Diffuse basis detected: some atoms will have their outermost
                        angular grid increased by 1.

Total number of grid points                  ...    87356
Total number of batches                      ...     1376
Average number of points per batch           ...       63
Average number of grid points per atom       ...     4368
Initializing property integral containers    ... done (  0.3 sec)

SHARK setup successfully completed in   1.6 seconds

Maximum memory used throughout the entire STARTUP-calculation: 39.4 MB
-------------------------------------------------------------------------------
                                 ORCA GUESS
                   Start orbitals & Density for SCF / CASSCF
-------------------------------------------------------------------------------

------------
SCF SETTINGS
------------
Hamiltonian:
 Density Functional     Method          .... DFT(GTOs)
  Functional kind                       .... Exchange
  Functional name                       .... Re-regularized SCAN exchange by Furness et al
  Functional family                     .... MGGA
  Functional refs                              
    [ 0] J. W. Furness, A. D. Kaplan, J. Ning, J. P. Perdew, and J. Sun.,  J. Phys. Chem. Lett. 11, 8208-8215 (2020), doi: 10.1021/acs.jpclett.0c02405
    [ 1] J. W. Furness, A. D. Kaplan, J. Ning, J. P. Perdew, and J. Sun.,  J. Phys. Chem. Lett. 11, 9248-9248 (2020), doi: 10.1021/acs.jpclett.0c03077
  Functional external parameters        .... 6
    Parameter  0 _c1        =  6.670000e-01 : c1 parameter        
    Parameter  1 _c2        =  8.000000e-01 : c2 parameter        
    Parameter  2 _d         =  1.240000e+00 : d parameter         
    Parameter  3 _k1        =  6.500000e-02 : k1 parameter        
    Parameter  4 _eta       =  1.000000e-03 : eta parameter       
    Parameter  5 _dp2       =  3.610000e-01 : dp2 parameter       
  Functional kind                       .... Correlation
  Functional name                       .... Re-regularized SCAN correlation by Furness et al
  Functional family                     .... MGGA
  Functional refs                              
    [ 0] J. W. Furness, A. D. Kaplan, J. Ning, J. P. Perdew, and J. Sun.,  J. Phys. Chem. Lett. 11, 8208-8215 (2020), doi: 10.1021/acs.jpclett.0c02405
    [ 1] J. W. Furness, A. D. Kaplan, J. Ning, J. P. Perdew, and J. Sun.,  J. Phys. Chem. Lett. 11, 9248-9248 (2020), doi: 10.1021/acs.jpclett.0c03077
  Functional external parameters        .... 1
    Parameter  0 _eta       =  1.000000e-03 : Regularization parameter
 Gradients option       PostSCFGGA      .... off
 RI-approximation to the Coulomb term is turned on
   Number of AuxJ basis functions       .... 524


General Settings:
 Integral files         IntName         .... sp_solv
 Hartree-Fock type      HFTyp           .... RHF
 Total Charge           Charge          ....    0
 Multiplicity           Mult            ....    1
 Number of Electrons    NEL             ....   64
 Basis Dimension        Dim             ....  222
 Nuclear Repulsion      ENuc            ....    394.6160361043 Eh

Convergence Acceleration:
 AO-DIIS                CNVDIIS         .... on
   Start iteration      DIISMaxIt       ....    12
   Startup error        DIISStart       ....  0.200000
   # of expansion vecs  DIISMaxEq       ....     5
   Bias factor          DIISBfac        ....   1.050
   Max. coefficient     DIISMaxC        ....  10.000
 MO-DIIS                CNVKDIIS        .... off
 Trust-Rad. Augm. Hess. CNVTRAH         .... auto
   Auto Start mean grad. ratio tolernc. ....  1.125000
   Auto Start start iteration           ....     1
   Auto Start num. interpolation iter.  ....    10
   Max. Number of Micro iterations      ....    24
   Max. Number of Macro iterations      .... Maxiter - #DIIS iter
   Number of Davidson start vectors     ....     2
   Converg. threshold    (grad. norm)   ....   3.330e-04
   Grad. Scal. Fac. for Micro threshold ....   0.100
   Minimum threshold for Micro iter.    ....   1.000e-02
   NR start threshold (gradient norm)   ....   1.000e-04
   Initial trust radius                 ....   0.400
   Minimum AH scaling param. (alpha)    ....   1.000
   Maximum AH scaling param. (alpha)    .... 1000.000
   Quad. conv. algorithm                .... NR
   White noise on init. David. guess    .... on
   Maximum white noise                  ....   0.010
   Pseudo random numbers                .... off
   Inactive MOs                         .... canonical
   Orbital update algorithm             .... Taylor
   Preconditioner                       .... Diag
   Full preconditioner red. dimension   ....   250
   COSX micro iterations for RIJONX calc.... off
 SOSCF                  CNVSOSCF        .... on
   Start iteration      SOSCFMaxIt      ....   150
   Startup grad/error   SOSCFStart      ....  0.003300
   Hessian update       SOSCFHessUp     .... L-BFGS
 Level Shifting         CNVShift        .... on
   Level shift para.    LevelShift      ....    0.2500
   Turn off err/grad.   ShiftErr        ....    0.0010
 Zerner damping         CNVZerner       .... off
 Static damping         CNVDamp         .... on
   Fraction old density DampFac         ....    0.7000
   Max. Damping (<1)    DampMax         ....    0.9800
   Min. Damping (>=0)   DampMin         ....    0.0000
   Turn off err/grad.   DampErr         ....    0.1000

SCF Procedure:
 Maximum # iterations   MaxIter         ....   125
 SCF integral mode      SCFMode         .... Direct
   Integral package                     .... SHARK and LIBINT hybrid scheme
 Reset frequency        DirectResetFreq ....    20
 Integral Threshold     Thresh          ....  1.000e-10 Eh
 Primitive CutOff       TCut            ....  1.000e-11 Eh

Convergence Tolerance:
 Convergence Check Mode ConvCheckMode   .... Total+1el-Energy
 Convergence forced     ConvForced      .... 0
 Energy Change          TolE            ....  1.000e-06 Eh
 1-El. energy change                    ....  1.000e-03 Eh
 Orbital Gradient       TolG            ....  3.330e-04
 Orbital Rotation angle TolX            ....  3.330e-04
 DIIS Error             TolErr          ....  1.000e-06

---------------------
INITIAL GUESS: MOREAD
---------------------
Guess MOs are being read from file: sp_solv.ges
Input Geometry matches current geometry (good)
Atom 0: N(Shells)= 9 and 6 - projection required
Input basis set needs projection
NBasis(read)= 136
NBasis(calc)= 222
Basis set overlap was calculated
Using GuessMode=FMatrix for the initial guess
C*T matrix was formed
Effective Fockian was calculated
Effective Fockian was diagonalized
Initial density was built
                      ------------------
                      INITIAL GUESS DONE (   0.1 sec)
                      ------------------
             **** ENERGY FILE WAS UPDATED (sp_solv.en.tmp) ****
Finished Guess after   0.3 sec
Maximum memory used throughout the entire GUESS-calculation: 15.1 MB

-------------------------------------------------------------------------------------------
                                      ORCA LEAN-SCF
                              memory conserving SCF solver
-------------------------------------------------------------------------------------------

--------------------
CPCM SOLVATION MODEL
--------------------
CPCM parameters:
  Epsilon                                         ...      78.3550
  Refrac                                          ...       1.3328
  Rsolv                                           ...       1.3000
  Surface type                                    ... GAUSSIAN VDW
  Discretization scheme                           ... Constant charge density
    Threshold for H atoms                         ...       5.0000 (charges/Ang^2)
    Threshold for non-H atoms                     ...       5.0000 (charges/Ang^2)
  Epsilon function type                           ...         CPCM
Solvent:                                          ... WATER
SMD-CDS solvent descriptors:
  Soln                                            ...       1.3328
  Soln25                                          ...       1.3323
  Sola                                            ...       0.0000
  Solb                                            ...       0.0000
  Solg                                            ...       0.0000
  Solc                                            ...       0.0000
  Solh                                            ...       0.0000
Radii:
  Scheme                                          ... Element-dependent radii
  Radius for C  used is    3.4960 Bohr (=   1.8500 Ang.)
  Radius for O  used is    2.8724 Bohr (=   1.5200 Ang.)
  Radius for H  used is    2.2677 Bohr (=   1.2000 Ang.)
Calculating surface                               ...        done! (  0.0s)
Cavity surface points                             ...         1508
Cavity Volume                                     ...     880.6767
Cavity Surface-area                               ...     587.8200
Calculating surface distance matrix               ...        done! (  0.0s)
Performing Cholesky decomposition & store         ...        done! (  0.1s)
Overall time for CPCM initialization              ...                 0.1s

----------------------------------------D-I-I-S--------------------------------------------
Iteration    Energy (Eh)           Delta-E    RMSDP     MaxDP     DIISErr   Damp  Time(sec)
-------------------------------------------------------------------------------------------
               ***  Starting incremental Fock matrix formation  ***
    1    -386.0560454725056729     0.00e+00  3.58e-03  1.26e-01  6.27e-01  0.700   3.9
    2    -386.1151766156050940    -5.91e-02  2.93e-03  9.33e-02  4.41e-01  0.700   3.4
    3    -386.1570139096747312    -4.18e-02  2.16e-03  6.60e-02  3.10e-01  0.700   3.5
    4    -386.1864199593860008    -2.94e-02  1.55e-03  4.65e-02  2.17e-01  0.700   3.2
                               ***Turning on AO-DIIS***
    5    -386.2070679208522392    -2.06e-02  1.13e-03  3.34e-02  1.52e-01  0.700   3.2
    6    -386.2215444670623015    -1.45e-02  8.07e-04  2.37e-02  1.06e-01  0.700   3.2
    7    -386.2317067765753222    -1.02e-02  5.70e-04  1.67e-02  7.41e-02  0.700   3.3
    8    -386.2388291556287072    -7.12e-03  1.34e-03  3.89e-02  5.21e-02  0.000   3.4
                              *** Initializing SOSCF ***
---------------------------------------S-O-S-C-F--------------------------------------
Iteration    Energy (Eh)           Delta-E    RMSDP     MaxDP     MaxGrad    Time(sec)
--------------------------------------------------------------------------------------
    9    -386.2554814390559272    -1.67e-02  1.26e-05  5.18e-04  1.88e-04     3.3
               *** Restarting incremental Fock matrix formation ***
   10    -386.2554815937607486    -1.55e-07  6.59e-06  1.83e-04  5.67e-05     3.8
                  *** Gradient check signals convergence ***

               *****************************************************
               *                     SUCCESS                       *
               *           SCF CONVERGED AFTER  10 CYCLES          *
               *****************************************************


SMD CDS free energy correction energy :                 4.94092     Kcal/mol
Total Energy after SMD CDS correction =              -386.247607737 Eh
             **** ENERGY FILE WAS UPDATED (sp_solv.en.tmp) ****

----------------
TOTAL SCF ENERGY
----------------

Total Energy       :       -386.24760773716537 Eh          -10510.33174 eV

Components:
Nuclear Repulsion  :        394.61603610429216 Eh           10738.04825 eV
Electronic Energy  :       -780.85554701812646 Eh          -21248.15967 eV
One Electron Energy:      -1306.56595170571654 Eh          -35553.46705 eV
Two Electron Energy:        525.71040468759008 Eh           14305.30738 eV
CPCM Dielectric    :         -0.01597067992644 Eh              -0.43458 eV
SMD CDS (Gcds)     :          0.00787385659536 Eh               0.21426 eV

Virial components:
Potential Energy   :       -770.89012091001700 Eh          -20976.98664 eV
Kinetic Energy     :        384.64251317285158 Eh           10466.65490 eV
Virial Ratio       :          2.00417295153121

DFT components:
N(Alpha)           :       32.000002382267 electrons
N(Beta)            :       32.000002382267 electrons
N(Total)           :       64.000004764534 electrons
E(X)               :      -52.084155397574 Eh       
E(C)               :       -2.037676980104 Eh       
E(XC)              :      -54.121832377678 Eh       

CPCM Solvation Model Properties:
Surface-charge          :         -0.04706766266303
Corrected charge        :          0.00000000000000
Outlying charge corr.   :          0.00016761014688 Eh               0.00456 eV
Free-energy (cav+disp)  :          0.00787385659536 Eh               0.21426 eV

---------------
SCF CONVERGENCE
---------------

  Last Energy change         ...    1.5470e-07  Tolerance :   1.0000e-06
  Last MAX-Density change    ...    1.8335e-04  Tolerance :   1.0000e-05
  Last RMS-Density change    ...    6.5930e-06  Tolerance :   1.0000e-06
  Last DIIS Error            ...    1.8813e-04  Tolerance :   1.0000e-06
  Last Orbital Gradient      ...    5.6654e-05  Tolerance :   3.3300e-04
  Last Orbital Rotation      ...    1.2899e-04  Tolerance :   3.3300e-04


----------------
ORBITAL ENERGIES
----------------

  NO   OCC          E(Eh)            E(eV) 
   0   2.0000     -19.003344      -517.1073 
   1   2.0000     -18.942699      -515.4571 
   2   2.0000     -10.162033      -276.5230 
   3   2.0000     -10.082946      -274.3709 
   4   2.0000     -10.034935      -273.0645 
   5   2.0000     -10.028623      -272.8927 
   6   2.0000     -10.018710      -272.6230 
   7   2.0000     -10.011669      -272.4314 
   8   2.0000      -1.079070       -29.3630 
   9   2.0000      -0.988406       -26.8959 
  10   2.0000      -0.769633       -20.9428 
  11   2.0000      -0.735279       -20.0080 
  12   2.0000      -0.671836       -18.2816 
  13   2.0000      -0.613261       -16.6877 
  14   2.0000      -0.559008       -15.2114 
  15   2.0000      -0.527651       -14.3581 
  16   2.0000      -0.471952       -12.8425 
  17   2.0000      -0.462326       -12.5805 
  18   2.0000      -0.447623       -12.1805 
  19   2.0000      -0.419727       -11.4214 
  20   2.0000      -0.402954       -10.9649 
  21   2.0000      -0.380715       -10.3598 
  22   2.0000      -0.368917       -10.0387 
  23   2.0000      -0.360454        -9.8085 
  24   2.0000      -0.356069        -9.6891 
  25   2.0000      -0.334397        -9.0994 
  26   2.0000      -0.315097        -8.5742 
  27   2.0000      -0.304909        -8.2970 
  28   2.0000      -0.304056        -8.2738 
  29   2.0000      -0.302761        -8.2386 
  30   2.0000      -0.277469        -7.5503 
  31   2.0000      -0.251364        -6.8400 
  32   0.0000      -0.023081        -0.6281 
  33   0.0000       0.077190         2.1005 
  34   0.0000       0.103127         2.8062 
  35   0.0000       0.117114         3.1868 
  36   0.0000       0.130964         3.5637 
  37   0.0000       0.135272         3.6809 
  38   0.0000       0.139808         3.8044 
  39   0.0000       0.146764         3.9937 
  40   0.0000       0.155581         4.2336 
  41   0.0000       0.159624         4.3436 
  42   0.0000       0.172177         4.6852 
*Only the first 10 virtual orbitals were printed.

                    ********************************
                    * MULLIKEN POPULATION ANALYSIS *
                    ********************************

-----------------------
MULLIKEN ATOMIC CHARGES
-----------------------
   0 C :   -0.531336
   1 C :   -0.226748
   2 C :   -0.320698
   3 C :    0.386401
   4 O :   -0.514098
   5 O :   -0.179971
   6 C :   -0.154148
   7 C :   -0.485335
   8 H :    0.163526
   9 H :    0.163531
  10 H :    0.161603
  11 H :    0.164463
  12 H :    0.156720
  13 H :    0.179080
  14 H :    0.191928
  15 H :    0.175753
  16 H :    0.171282
  17 H :    0.164738
  18 H :    0.168662
  19 H :    0.164646
Sum of atomic charges:   -0.0000000

--------------------------------
MULLIKEN REDUCED ORBITAL CHARGES
--------------------------------
  0 C s       :     3.348800  s :     3.348800
      pz      :     1.099939  p :     3.155534
      px      :     1.099891
      py      :     0.955704
      dz2     :     0.003249  d :     0.027002
      dxz     :     0.005780
      dyz     :     0.006531
      dx2y2   :     0.006454
      dxy     :     0.004987

  1 C s       :     3.202283  s :     3.202283
      pz      :     1.057922  p :     2.987548
      px      :     1.001697
      py      :     0.927929
      dz2     :     0.005379  d :     0.036917
      dxz     :     0.007304
      dyz     :     0.008093
      dx2y2   :     0.009490
      dxy     :     0.006650

  2 C s       :     3.251337  s :     3.251337
      pz      :     0.983162  p :     3.034846
      px      :     0.937047
      py      :     1.114636
      dz2     :     0.005801  d :     0.034515
      dxz     :     0.009937
      dyz     :     0.005126
      dx2y2   :     0.009239
      dxy     :     0.004413

  3 C s       :     3.174603  s :     3.174603
      pz      :     0.742067  p :     2.313705
      px      :     0.829153
      py      :     0.742486
      dz2     :     0.027362  d :     0.125290
      dxz     :     0.042342
      dyz     :     0.020568
      dx2y2   :     0.016305
      dxy     :     0.018713

  4 O s       :     3.832354  s :     3.832354
      pz      :     1.357140  p :     4.659127
      px      :     1.808880
      py      :     1.493107
      dz2     :     0.009195  d :     0.022616
      dxz     :     0.000578
      dyz     :     0.008317
      dx2y2   :     0.001834
      dxy     :     0.002692

  5 O s       :     3.702209  s :     3.702209
      pz      :     1.650491  p :     4.439757
      px      :     1.134690
      py      :     1.654576
      dz2     :     0.007359  d :     0.038006
      dxz     :     0.009582
      dyz     :     0.005586
      dx2y2   :     0.003727
      dxy     :     0.011752

  6 C s       :     3.290208  s :     3.290208
      pz      :     1.021477  p :     2.810952
      px      :     0.764572
      py      :     1.024903
      dz2     :     0.011769  d :     0.052989
      dxz     :     0.010921
      dyz     :     0.004746
      dx2y2   :     0.012351
      dxy     :     0.013201

  7 C s       :     3.333834  s :     3.333834
      pz      :     1.088981  p :     3.125874
      px      :     1.070254
      py      :     0.966638
      dz2     :     0.007405  d :     0.025627
      dxz     :     0.003563
      dyz     :     0.003012
      dx2y2   :     0.005412
      dxy     :     0.006235

  8 H s       :     0.818235  s :     0.818235
      pz      :     0.006060  p :     0.018239
      px      :     0.008525
      py      :     0.003654

  9 H s       :     0.818240  s :     0.818240
      pz      :     0.009113  p :     0.018228
      px      :     0.003885
      py      :     0.005230

 10 H s       :     0.820064  s :     0.820064
      pz      :     0.005295  p :     0.018333
      px      :     0.007904
      py      :     0.005134

 11 H s       :     0.817559  s :     0.817559
      pz      :     0.005511  p :     0.017978
      px      :     0.009012
      py      :     0.003455

 12 H s       :     0.825362  s :     0.825362
      pz      :     0.009382  p :     0.017918
      px      :     0.003486
      py      :     0.005050

 13 H s       :     0.803085  s :     0.803085
      pz      :     0.009315  p :     0.017835
      px      :     0.003436
      py      :     0.005084

 14 H s       :     0.789910  s :     0.789910
      pz      :     0.003696  p :     0.018162
      px      :     0.004004
      py      :     0.010462

 15 H s       :     0.806226  s :     0.806226
      pz      :     0.011855  p :     0.018021
      px      :     0.002695
      py      :     0.003471

 16 H s       :     0.811246  s :     0.811246
      pz      :     0.003616  p :     0.017472
      px      :     0.005077
      py      :     0.008779

 17 H s       :     0.816980  s :     0.816980
      pz      :     0.004117  p :     0.018282
      px      :     0.005690
      py      :     0.008475

 18 H s       :     0.812843  s :     0.812843
      pz      :     0.005074  p :     0.018495
      px      :     0.009891
      py      :     0.003530

 19 H s       :     0.817019  s :     0.817019
      pz      :     0.011115  p :     0.018335
      px      :     0.003707
      py      :     0.003513


------------------------
MULLIKEN OVERLAP CHARGES
------------------------
B(  0-C ,  1-C ) :   0.4109 B(  0-C ,  2-C ) :  -0.2034 B(  0-C ,  8-H ) :   0.8414 
B(  0-C ,  9-H ) :   0.8511 B(  0-C , 10-H ) :   0.7899 B(  0-C , 12-H ) :  -0.0621 
B(  1-C ,  2-C ) :   0.3753 B(  1-C ,  3-C ) :  -0.0872 B(  1-C ,  8-H ) :  -0.0836 
B(  1-C ,  9-H ) :  -0.0953 B(  1-C , 10-H ) :  -0.0693 B(  1-C , 11-H ) :   0.8308 
B(  1-C , 12-H ) :   0.8525 B(  1-C , 13-H ) :  -0.0693 B(  1-C , 14-H ) :  -0.0680 
B(  2-C ,  3-C ) :   0.2427 B(  2-C ,  4-O ) :  -0.1049 B(  2-C ,  8-H ) :  -0.0580 
B(  2-C , 11-H ) :  -0.1113 B(  2-C , 12-H ) :  -0.0559 B(  2-C , 13-H ) :   0.9067 
B(  2-C , 14-H ) :   0.7844 B(  3-C ,  4-O ) :   0.9019 B(  3-C ,  5-O ) :   0.3645 
B(  3-C ,  6-C ) :  -0.2086 B(  3-C ,  8-H ) :   0.0625 B(  3-C , 12-H ) :  -0.0502 
B(  3-C , 13-H ) :  -0.1728 B(  4-O ,  5-O ) :  -0.2071 B(  5-O ,  6-C ) :   0.2590 
B(  5-O ,  7-C ) :  -0.0786 B(  5-O , 15-H ) :  -0.0703 B(  5-O , 16-H ) :  -0.0712 
B(  6-C ,  7-C ) :   0.4602 B(  6-C , 15-H ) :   0.8579 B(  6-C , 16-H ) :   0.7661 
B(  6-C , 17-H ) :  -0.0839 B(  6-C , 18-H ) :  -0.0726 B(  7-C , 15-H ) :  -0.0613 
B(  7-C , 17-H ) :   0.8411 B(  7-C , 18-H ) :   0.8172 B(  7-C , 19-H ) :   0.8134 
B( 15-H , 16-H ) :  -0.0575 


                     *******************************
                     * LOEWDIN POPULATION ANALYSIS *
                     *******************************

----------------------
LOEWDIN ATOMIC CHARGES
----------------------
   0 C :   -0.424143
   1 C :   -0.291156
   2 C :   -0.229341
   3 C :    0.363340
   4 O :   -0.499403
   5 O :   -0.599111
   6 C :    0.035972
   7 C :   -0.389958
   8 H :    0.156344
   9 H :    0.156120
  10 H :    0.156262
  11 H :    0.160528
  12 H :    0.163051
  13 H :    0.184155
  14 H :    0.190137
  15 H :    0.190767
  16 H :    0.184666
  17 H :    0.161705
  18 H :    0.167921
  19 H :    0.162145

-------------------------------
LOEWDIN REDUCED ORBITAL CHARGES
-------------------------------
  0 C s       :     2.971497  s :     2.971497
      pz      :     1.158062  p :     3.389876
      px      :     1.153380
      py      :     1.078434
      dz2     :     0.007960  d :     0.062769
      dxz     :     0.014376
      dyz     :     0.014386
      dx2y2   :     0.015299
      dxy     :     0.010747

  1 C s       :     2.934828  s :     2.934828
      pz      :     1.125277  p :     3.276610
      px      :     1.082606
      py      :     1.068727
      dz2     :     0.011905  d :     0.079717
      dxz     :     0.016837
      dyz     :     0.016995
      dx2y2   :     0.020833
      dxy     :     0.013147

  2 C s       :     2.924270  s :     2.924270
      pz      :     1.082971  p :     3.232062
      px      :     1.020667
      py      :     1.128424
      dz2     :     0.012598  d :     0.073009
      dxz     :     0.020547
      dyz     :     0.011866
      dx2y2   :     0.018729
      dxy     :     0.009271

  3 C s       :     2.739305  s :     2.739305
      pz      :     0.940579  p :     2.625198
      px      :     0.923696
      py      :     0.760924
      dz2     :     0.058708  d :     0.272158
      dxz     :     0.092668
      dyz     :     0.048050
      dx2y2   :     0.032860
      dxy     :     0.039871

  4 O s       :     3.544746  s :     3.544746
      pz      :     1.492100  p :     4.733400
      px      :     1.741914
      py      :     1.499386
      dz2     :     0.063086  d :     0.221258
      dxz     :     0.059982
      dyz     :     0.054318
      dx2y2   :     0.020098
      dxy     :     0.023774

  5 O s       :     3.463722  s :     3.463722
      pz      :     1.654503  p :     4.655549
      px      :     1.353141
      py      :     1.647906
      dz2     :     0.092251  d :     0.479840
      dxz     :     0.116442
      dyz     :     0.043979
      dx2y2   :     0.105503
      dxy     :     0.121666

  6 C s       :     2.869174  s :     2.869174
      pz      :     1.044448  p :     2.976046
      px      :     0.858376
      py      :     1.073221
      dz2     :     0.029470  d :     0.118809
      dxz     :     0.024510
      dyz     :     0.007950
      dx2y2   :     0.025620
      dxy     :     0.031259

  7 C s       :     2.972841  s :     2.972841
      pz      :     1.151588  p :     3.357021
      px      :     1.125179
      py      :     1.080254
      dz2     :     0.018164  d :     0.060097
      dxz     :     0.008590
      dyz     :     0.006556
      dx2y2   :     0.012712
      dxy     :     0.014074

  8 H s       :     0.799590  s :     0.799590
      pz      :     0.014593  p :     0.044066
      px      :     0.021133
      py      :     0.008339

  9 H s       :     0.800056  s :     0.800056
      pz      :     0.022780  p :     0.043823
      px      :     0.008694
      py      :     0.012349

 10 H s       :     0.799801  s :     0.799801
      pz      :     0.012410  p :     0.043937
      px      :     0.019531
      py      :     0.011995

 11 H s       :     0.795763  s :     0.795763
      pz      :     0.013527  p :     0.043709
      px      :     0.022090
      py      :     0.008092

 12 H s       :     0.793192  s :     0.793192
      pz      :     0.023517  p :     0.043756
      px      :     0.008011
      py      :     0.012228

 13 H s       :     0.771486  s :     0.771486
      pz      :     0.023389  p :     0.044360
      px      :     0.008192
      py      :     0.012778

 14 H s       :     0.765045  s :     0.765045
      pz      :     0.008499  p :     0.044818
      px      :     0.009758
      py      :     0.026561

 15 H s       :     0.765945  s :     0.765945
      pz      :     0.028392  p :     0.043288
      px      :     0.006943
      py      :     0.007953

 16 H s       :     0.774312  s :     0.774312
      pz      :     0.008784  p :     0.041023
      px      :     0.010990
      py      :     0.021249

 17 H s       :     0.794501  s :     0.794501
      pz      :     0.009444  p :     0.043794
      px      :     0.013818
      py      :     0.020532

 18 H s       :     0.787665  s :     0.787665
      pz      :     0.011993  p :     0.044414
      px      :     0.024509
      py      :     0.007913

 19 H s       :     0.794010  s :     0.794010
      pz      :     0.027983  p :     0.043845
      px      :     0.008118
      py      :     0.007744


---------------------------------
LOEWDIN BOND ORDERS (THRESH 0.050000)
---------------------------------
B(  0-C ,  1-C ) :   1.1419 B(  0-C ,  2-C ) :   0.0668 B(  0-C ,  8-H ) :   0.9206 
B(  0-C ,  9-H ) :   0.9275 B(  0-C , 10-H ) :   0.9280 B(  1-C ,  2-C ) :   1.0824 
B(  1-C ,  3-C ) :   0.0736 B(  1-C , 11-H ) :   0.8914 B(  1-C , 12-H ) :   0.8878 
B(  2-C ,  3-C ) :   0.9276 B(  2-C ,  4-O ) :   0.1817 B(  2-C ,  5-O ) :   0.1866 
B(  2-C , 13-H ) :   0.8611 B(  2-C , 14-H ) :   0.8594 B(  3-C ,  4-O ) :   2.1322 
B(  3-C ,  5-O ) :   1.4725 B(  3-C ,  6-C ) :   0.0880 B(  4-O ,  5-O ) :   0.4564 
B(  4-O ,  6-C ) :   0.0722 B(  5-O ,  6-C ) :   1.2902 B(  5-O ,  7-C ) :   0.1701 
B(  5-O , 15-H ) :   0.0910 B(  5-O , 16-H ) :   0.0953 B(  6-C ,  7-C ) :   1.0900 
B(  6-C , 15-H ) :   0.8127 B(  6-C , 16-H ) :   0.8271 B(  7-C , 17-H ) :   0.9231 
B(  7-C , 18-H ) :   0.9155 B(  7-C , 19-H ) :   0.9206 

------------------------------------------
LOEWDIN REDUCED ORBITAL POPULATIONS PER MO
-------------------------------------------
THRESHOLD FOR PRINTING IS 0.1%%
                      0         1         2         3         4         5   
                 -19.00334 -18.94270 -10.16203 -10.08295 -10.03493 -10.02862
                   2.00000   2.00000   2.00000   2.00000   2.00000   2.00000
                  --------  --------  --------  --------  --------  --------
 1 C  s               0.0       0.0       0.0       0.0       0.0      99.7
 2 C  s               0.0       0.0       0.0       0.0      99.7       0.0
 3 C  s               0.0       0.0      98.9       0.0       0.0       0.0
 4 O  s               0.0      99.9       0.0       0.0       0.0       0.0
 4 O  pz              0.0       0.0       0.2       0.0       0.0       0.0
 4 O  dz2             0.0       0.0       0.2       0.0       0.0       0.0
 4 O  dyz             0.0       0.0       0.2       0.0       0.0       0.0
 5 O  s              99.9       0.0       0.0       0.0       0.0       0.0
 5 O  dxz             0.0       0.0       0.1       0.1       0.0       0.0
 5 O  dx2y2           0.0       0.0       0.0       0.1       0.0       0.0
 5 O  dxy             0.0       0.0       0.1       0.0       0.0       0.0
 6 C  s               0.0       0.0       0.0      99.4       0.0       0.0

                      6         7         8         9        10        11   
                 -10.01871 -10.01167  -1.07907  -0.98841  -0.76963  -0.73528
                   2.00000   2.00000   2.00000   2.00000   2.00000   2.00000
                  --------  --------  --------  --------  --------  --------
 0 C  s               0.0      99.7       0.0       0.0       7.5       5.9
 0 C  pz              0.0       0.0       0.0       0.0       0.1       0.0
 0 C  py              0.0       0.0       0.0       0.0       2.2       0.8
 1 C  s               0.0       0.0       0.1       0.0      17.5       8.4
 1 C  pz              0.0       0.0       0.0       0.0       0.3       0.0
 1 C  px              0.0       0.0       0.2       0.1       1.7       0.1
 1 C  py              0.0       0.1       0.0       0.0       0.0       0.3
 2 C  s               0.0       0.0       1.0       0.2      20.0       1.6
 2 C  pz              0.0       0.0       0.5       0.4       0.7       0.2
 2 C  px              0.0       0.0       1.6       0.0       0.2       2.1
 2 C  py              0.0       0.0       0.0       0.1       0.6       0.2
 3 C  s               0.0       0.0      16.9       3.2       3.2       1.0
 3 C  pz              0.0       0.0       0.2      15.6       4.6       0.9
 3 C  px              0.0       0.0       4.4       2.0       4.8       1.2
 3 C  py              0.0       0.0       0.2       6.0       0.5       0.4
 3 C  dz2             0.0       0.0       0.1       1.0       0.0       0.0
 3 C  dxz             0.0       0.0       0.1       0.3       0.0       0.1
 3 C  dyz             0.0       0.0       0.6       0.3       0.0       0.0
 3 C  dx2y2           0.0       0.0       0.1       0.1       0.1       0.0
 3 C  dxy             0.0       0.0       0.3       0.2       0.0       0.1
 4 O  s               0.0       0.0      14.1      41.0       1.6       0.2
 4 O  pz              0.0       0.0       2.5       2.6       0.4       0.1
 4 O  px              0.0       0.0       0.0       0.1       0.2       0.0
 4 O  py              0.0       0.0       0.7       0.5       0.1       0.0
 4 O  dz2             0.0       0.0       0.4       0.1       0.2       0.1
 4 O  dxz             0.0       0.0       0.1       0.2       0.3       0.0
 4 O  dyz             0.0       0.0       0.8       0.1       0.1       0.1
 5 O  s               0.0       0.0      39.8      18.4       0.0       0.8
 5 O  pz              0.0       0.0       1.8       0.3       0.2       0.2
 5 O  px              0.0       0.0       0.3       0.6       6.2       9.8
 5 O  py              0.0       0.0       0.7       0.2       0.4       1.1
 5 O  dz2             0.0       0.0       0.0       0.1       0.1       0.1
 5 O  dxz             0.0       0.0       0.1       0.6       0.2       0.8
 5 O  dyz             0.0       0.0       0.3       0.4       0.0       0.0
 5 O  dx2y2           0.0       0.0       0.1       0.1       0.0       0.6
 5 O  dxy             0.0       0.0       0.3       0.1       0.1       0.1
 6 C  s               0.0       0.0       4.0       2.0       4.9      17.1
 6 C  pz              0.0       0.0       0.6       0.7       0.1       0.2
 6 C  px              0.0       0.0       4.5       1.2       0.1       1.3
 6 C  py              0.1       0.0       0.1       0.0       0.2       1.8
 6 C  dxz             0.0       0.0       0.2       0.1       0.0       0.0
 6 C  dx2y2           0.0       0.0       0.2       0.1       0.0       0.0
 7 C  s              99.7       0.0       0.3       0.2       2.7      18.4
 7 C  pz              0.0       0.0       0.0       0.0       0.0       0.1
 7 C  px              0.0       0.0       0.3       0.2       0.2       0.4
 7 C  py              0.0       0.0       0.3       0.2       0.4       1.4
 8 H  s               0.0       0.0       0.0       0.0       1.0       0.9
 9 H  s               0.0       0.0       0.0       0.0       1.0       0.9
10 H  s               0.0       0.0       0.0       0.0       0.9       0.9
11 H  s               0.0       0.0       0.0       0.0       2.2       1.3
11 H  px              0.0       0.0       0.0       0.0       0.2       0.1
12 H  s               0.0       0.0       0.0       0.0       2.2       1.3
12 H  pz              0.0       0.0       0.0       0.0       0.2       0.1
13 H  s               0.0       0.0       0.1       0.0       3.0       0.1
13 H  pz              0.0       0.0       0.0       0.0       0.2       0.0
14 H  s               0.0       0.0       0.0       0.0       2.7       0.3
14 H  py              0.0       0.0       0.0       0.0       0.2       0.0
15 H  s               0.0       0.0       0.3       0.1       0.7       2.6
15 H  pz              0.0       0.0       0.0       0.0       0.1       0.2
16 H  s               0.0       0.0       0.2       0.1       0.7       2.8
16 H  py              0.0       0.0       0.0       0.0       0.0       0.2
17 H  s               0.0       0.0       0.0       0.0       0.4       2.8
17 H  py              0.0       0.0       0.0       0.0       0.0       0.2
18 H  s               0.0       0.0       0.0       0.0       0.4       2.9
18 H  px              0.0       0.0       0.0       0.0       0.0       0.2
19 H  s               0.0       0.0       0.0       0.0       0.4       2.9
19 H  pz              0.0       0.0       0.0       0.0       0.0       0.3

                     12        13        14        15        16        17   
                  -0.67184  -0.61326  -0.55901  -0.52765  -0.47195  -0.46233
                   2.00000   2.00000   2.00000   2.00000   2.00000   2.00000
                  --------  --------  --------  --------  --------  --------
 0 C  s              19.9       6.3       6.9       0.8       0.1       0.0
 0 C  pz              0.0       0.1       0.1       0.0       1.9       0.1
 0 C  px              0.1       0.1       1.0       0.2       0.2       1.9
 0 C  py              0.1       1.1       5.8       1.4       0.5       0.0
 1 C  s               3.0       1.9      12.3       2.2       0.1       0.2
 1 C  pz              1.3       0.5       0.1       0.4       8.5       0.5
 1 C  px              1.0       0.0       3.4       1.0       0.7       2.9
 1 C  py              6.8       3.9       2.7       0.1       0.2       0.0
 1 C  dx2y2           0.1       0.0       0.0       0.0       0.0       0.0
 2 C  s              11.7       3.2       2.0       1.6       1.8       0.3
 2 C  pz              0.2       0.0       0.8       1.0      17.6       0.0
 2 C  px              1.9       2.9       5.9       0.1       2.8       0.3
 2 C  py              0.9       0.3       0.6       0.4       0.2       3.5
 2 C  dxz             0.1       0.0       0.2       0.0       0.2       0.0
 3 C  s               2.6       1.8       0.9       2.1       3.0       0.1
 3 C  pz              2.9       0.8       0.8       0.3       0.7       3.0
 3 C  px              3.8       1.1       2.3       3.4       9.0       0.4
 3 C  py              0.1       0.9       0.3       0.9       0.4      10.4
 3 C  dxz             0.1       0.1       0.1       0.0       0.0       0.1
 4 O  s               0.7       0.2       0.5       2.2       6.6       0.0
 4 O  pz              0.5       0.2       0.6       1.6      11.8       2.2
 4 O  px              0.3       0.0       0.1       1.5       7.2       0.0
 4 O  py              0.0       0.1       0.0       1.6       3.2       4.7
 4 O  dz2             0.2       0.1       0.1       0.0       0.1       0.6
 4 O  dxz             0.3       0.0       0.1       0.2       0.6       0.0
 4 O  dyz             0.0       0.1       0.0       0.2       0.2       0.2
 4 O  dx2y2           0.0       0.1       0.0       0.0       0.0       0.1
 4 O  dxy             0.0       0.0       0.0       0.1       0.2       0.0
 5 O  s               0.9       0.1       1.5       4.7       0.0       0.1
 5 O  pz              0.1       0.1       0.2       8.0       0.0       9.6
 5 O  px              1.5      16.2       0.4       9.6       1.7       0.8
 5 O  py              0.0       0.6       0.3       6.4       1.9      15.9
 5 O  dz2             0.4       0.1       0.1       0.1       0.2       0.7
 5 O  dxz             0.0       0.6       0.4       0.3       0.6       0.0
 5 O  dyz             0.0       0.0       0.0       0.1       0.0       0.2
 5 O  dx2y2           0.5       0.1       0.8       0.1       0.1       0.0
 5 O  dxy             0.5       0.4       0.0       0.1       0.2       0.0
 6 C  s               0.6       3.5       4.9       4.6       0.1       0.0
 6 C  pz              0.0       0.1       1.1      11.5       1.3       7.8
 6 C  px              1.9       2.8       0.4       4.1       0.3       5.1
 6 C  py              1.1       4.0       2.0       2.5       0.4       8.0
 6 C  dxz             0.1       0.1       0.0       0.4       0.0       0.0
 6 C  dx2y2           0.1       0.1       0.0       0.1       0.0       0.0
 7 C  s               7.4      15.2       2.7       0.3       0.1       0.0
 7 C  pz              0.0       0.0       0.5       2.3       0.1       2.3
 7 C  px              0.0       1.0       0.2       0.4       0.6       2.9
 7 C  py              0.0       1.9       2.3       1.4       0.2       0.9
 8 H  s               3.8       2.0       3.4       0.4       0.2       0.2
 8 H  pz              0.1       0.0       0.1       0.0       0.0       0.0
 8 H  px              0.2       0.1       0.2       0.0       0.0       0.0
 9 H  s               3.9       1.8       3.3       0.6       0.8       0.0
 9 H  pz              0.3       0.1       0.2       0.0       0.0       0.0
10 H  s               4.4       1.9       2.6       0.3       0.0       0.5
10 H  px              0.2       0.1       0.1       0.0       0.0       0.0
11 H  s               0.7       0.7       6.0       1.1       0.9       0.6
11 H  pz              0.0       0.0       0.2       0.0       0.0       0.0
11 H  px              0.0       0.1       0.3       0.0       0.1       0.0
12 H  s               0.6       0.6       5.4       1.2       2.1       0.5
12 H  pz              0.0       0.1       0.4       0.1       0.1       0.0
13 H  s               2.5       0.4       1.1       1.1       7.0       0.5
13 H  pz              0.2       0.0       0.1       0.0       0.2       0.0
13 H  py              0.1       0.0       0.0       0.0       0.1       0.0
14 H  s               2.9       1.4       0.8       1.2       1.6       0.3
14 H  py              0.2       0.1       0.0       0.1       0.1       0.0
15 H  s               0.1       0.9       2.5       7.3       0.5       2.8
15 H  pz              0.0       0.1       0.2       0.4       0.0       0.1
16 H  s               0.1       1.3       2.9       3.8       0.0       5.3
16 H  pz              0.0       0.0       0.0       0.1       0.0       0.0
16 H  py              0.0       0.1       0.1       0.1       0.0       0.2
17 H  s               1.5       4.4       1.4       0.4       0.0       1.0
17 H  px              0.0       0.1       0.0       0.0       0.0       0.0
17 H  py              0.1       0.2       0.0       0.0       0.0       0.0
18 H  s               1.7       5.0       0.9       0.0       0.4       0.3
18 H  px              0.1       0.3       0.0       0.0       0.0       0.0
19 H  s               1.5       4.2       1.3       0.9       0.0       1.0
19 H  pz              0.1       0.3       0.1       0.0       0.0       0.0

                     18        19        20        21        22        23   
                  -0.44762  -0.41973  -0.40295  -0.38072  -0.36892  -0.36045
                   2.00000   2.00000   2.00000   2.00000   2.00000   2.00000
                  --------  --------  --------  --------  --------  --------
 0 C  s               0.2       0.2       0.0       0.1       0.0       0.0
 0 C  pz              0.2       8.3       5.6       3.4       9.1       9.4
 0 C  px              0.4       2.1      12.4       1.8       3.3       0.1
 0 C  py              1.5       1.5       0.2       4.7       4.5       2.5
 0 C  dz2             0.0       0.0       0.0       0.0       0.1       0.0
 1 C  s               0.1       0.1       0.0       0.4       0.0       0.0
 1 C  pz              2.1       8.1       4.2       0.0       4.1       1.5
 1 C  px              0.6       2.6      12.9       2.8       0.3       0.1
 1 C  py              0.1       2.5       2.7       3.1       3.6       0.6
 2 C  s               0.5       0.1       0.5       0.1       0.1       0.1
 2 C  pz              1.4       0.3       0.8       1.3       6.9       8.7
 2 C  px              3.1       0.2       3.0       1.8       5.0       0.1
 2 C  py              4.6      17.7       0.1       3.8       2.8       1.4
 2 C  dxz             0.0       0.0       0.1       0.0       0.0       0.0
 2 C  dxy             0.0       0.1       0.0       0.1       0.0       0.0
 3 C  s               0.6       0.3       0.7       0.0       0.1       0.3
 3 C  pz              3.4       2.8       0.7       2.8       0.2       2.7
 3 C  px              3.0       0.0       1.4       0.3       0.2       0.7
 3 C  py              3.1       1.7       0.7       6.3       0.0       0.9
 3 C  dz2             0.1       0.0       0.1       0.1       0.0       0.2
 3 C  dxz             0.1       0.0       0.0       0.0       0.2       0.0
 3 C  dx2y2           0.0       0.0       0.2       0.0       0.0       0.1
 3 C  dxy             0.0       0.1       0.0       0.1       0.1       0.0
 4 O  s               7.6       1.1       0.2       0.0       0.0       0.6
 4 O  pz             22.1       3.3       3.7       0.8       0.0       6.1
 4 O  px              1.7       0.0       1.5       0.1       2.1       0.1
 4 O  py              2.5       5.2       0.1      11.2       0.0       1.1
 4 O  dz2             0.2       0.0       0.1       0.2       0.0       0.0
 4 O  dxz             0.1       0.0       0.1       0.0       0.1       0.1
 4 O  dyz             0.1       0.1       0.0       0.1       0.0       0.1
 4 O  dx2y2           0.0       0.1       0.0       0.2       0.0       0.0
 4 O  dxy             0.2       0.1       0.0       0.0       0.0       0.0
 5 O  s               0.9       0.1       0.2       0.0       1.7       0.9
 5 O  pz             10.5       0.0       3.5       0.9       1.2       4.9
 5 O  px              4.1       0.3       0.8       3.2       0.1       0.3
 5 O  py              2.3       0.1       4.7       6.6       0.3       0.5
 5 O  dz2             0.2       0.1       0.1       0.0       0.1       0.1
 5 O  dxz             0.1       0.4       0.1       0.5       0.1       0.0
 5 O  dyz             0.1       0.1       0.1       0.0       0.0       0.0
 5 O  dx2y2           0.7       0.4       0.0       0.3       0.2       0.1
 5 O  dxy             0.1       0.3       0.7       0.1       0.3       0.0
 6 C  s               0.7       0.0       0.3       0.0       0.1       0.1
 6 C  pz              0.0       5.5       0.2       2.2       0.3       0.0
 6 C  px              5.6       1.2       0.6       3.0       0.8       0.7
 6 C  py              0.1       2.0       5.7       0.2       0.0       1.2
 7 C  s               0.3       0.0       0.2       0.0       0.0       0.0
 7 C  pz              0.1       4.2       2.1       5.6       9.8      15.8
 7 C  px              0.0       1.0       4.5       1.2      10.0       5.5
 7 C  py              3.8       1.2       1.8      10.2       0.5       1.3
 7 C  dz2             0.0       0.0       0.0       0.0       0.1       0.1
 7 C  dxz             0.0       0.0       0.0       0.0       0.1       0.1
 8 H  s               0.0       0.3       6.7       0.1       0.0       1.5
 8 H  px              0.0       0.1       0.1       0.0       0.0       0.1
 9 H  s               0.5       1.0       0.9       0.2       7.2       5.2
 9 H  pz              0.0       0.0       0.0       0.0       0.1       0.1
10 H  s               0.5       3.9       1.1       3.8       1.4       0.1
10 H  pz              0.0       0.0       0.1       0.0       0.0       0.1
10 H  px              0.0       0.1       0.0       0.1       0.0       0.0
10 H  py              0.0       0.0       0.0       0.0       0.1       0.0
11 H  s               0.3       0.0       6.6       0.5       0.2       0.4
11 H  px              0.0       0.0       0.1       0.0       0.0       0.0
12 H  s               0.6       3.5       1.2       0.2       0.4       0.2
12 H  px              0.0       0.0       0.1       0.0       0.0       0.0
12 H  py              0.0       0.0       0.0       0.0       0.1       0.0
13 H  s               0.0       1.7       0.1       0.0       6.5       5.7
13 H  pz              0.0       0.1       0.0       0.0       0.1       0.1
14 H  s               3.9       5.8       0.6       3.4       1.0       0.1
14 H  py              0.2       0.1       0.0       0.1       0.0       0.0
15 H  s               0.1       2.3       0.2       1.0       0.0       0.2
16 H  s               1.8       1.9       0.5       0.6       0.0       0.3
17 H  s               1.3       1.3       0.0       6.5       1.0       0.8
17 H  pz              0.0       0.0       0.0       0.0       0.1       0.2
18 H  s               0.0       0.0       1.2       0.1       8.5       7.3
18 H  px              0.0       0.0       0.0       0.0       0.2       0.2
19 H  s               0.2       1.6       1.7       2.2       3.7       7.0
19 H  pz              0.0       0.0       0.1       0.1       0.1       0.1
19 H  px              0.0       0.0       0.0       0.0       0.1       0.1

                     24        25        26        27        28        29   
                  -0.35607  -0.33440  -0.31510  -0.30491  -0.30406  -0.30276
                   2.00000   2.00000   2.00000   2.00000   2.00000   2.00000
                  --------  --------  --------  --------  --------  --------
 0 C  s               0.0       0.1       0.0       0.6       0.0       0.1
 0 C  pz              0.0       0.8       0.0       4.4      10.7       3.6
 0 C  px             15.0       0.3       8.5       0.0       2.9       7.2
 0 C  py              0.0       4.2       0.0      19.2       2.8       0.6
 0 C  dxz             0.1       0.0       0.1       0.0       0.3       0.1
 0 C  dyz             0.0       0.0       0.0       0.0       0.3       0.2
 0 C  dx2y2           0.0       0.1       0.0       0.2       0.1       0.0
 0 C  dxy             0.0       0.0       0.1       0.1       0.0       0.2
 1 C  s               0.1       0.1       0.1       0.0       0.0       0.3
 1 C  pz              0.0       0.4       0.0       2.0      16.3       5.3
 1 C  px              0.5       0.8       6.5       0.3       3.4      11.4
 1 C  py              1.6       3.9       0.0      17.3       3.4       0.3
 1 C  dz2             0.0       0.0       0.0       0.1       0.1       0.1
 1 C  dxz             0.0       0.0       0.1       0.0       0.3       0.1
 1 C  dyz             0.0       0.0       0.0       0.0       0.4       0.3
 1 C  dx2y2           0.0       0.1       0.0       0.5       0.1       0.0
 1 C  dxy             0.0       0.0       0.1       0.1       0.0       0.2
 2 C  s               0.2       0.0       0.5       0.2       0.1       0.3
 2 C  pz              0.1       0.3       1.9       1.0       0.9       5.1
 2 C  px              3.4       0.8       1.6       0.0       0.1       9.7
 2 C  py              0.6       0.3       0.3      16.7       0.8       0.4
 2 C  dz2             0.0       0.0       0.0       0.1       0.2       0.0
 2 C  dxz             0.1       0.0       0.0       0.0       0.2       0.0
 2 C  dyz             0.0       0.0       0.1       0.1       0.0       0.1
 2 C  dx2y2           0.0       0.0       0.0       0.4       0.0       0.0
 3 C  s               0.1       0.0       0.1       0.1       0.3       0.3
 3 C  pz              0.2       1.5       0.2       0.6       0.7       0.4
 3 C  px              4.4       0.1       0.9       0.1       0.7       0.2
 3 C  py              1.5       1.6       1.0       0.3       0.2       0.3
 3 C  dz2             0.0       0.4       0.0       0.2       0.1       0.0
 3 C  dxz             0.0       0.2       0.0       0.0       0.0       0.0
 3 C  dyz             0.1       0.0       0.1       0.1       0.0       0.2
 3 C  dx2y2           0.1       0.0       0.2       0.0       0.0       0.0
 3 C  dxy             0.0       0.0       0.0       0.1       0.0       0.0
 4 O  s               0.1       0.1       0.2       0.0       0.1       0.1
 4 O  pz              3.6       0.1       2.5       0.8       1.1       2.3
 4 O  px              3.2       1.5       0.5       0.1       1.9       0.9
 4 O  py              2.3      10.5       0.4       6.5       0.6       1.0
 4 O  dz2             0.0       0.1       0.1       0.0       0.1       0.0
 4 O  dyz             0.1       0.0       0.1       0.0       0.0       0.0
 4 O  dx2y2           0.0       0.0       0.0       0.0       0.2       0.0
 5 O  s               0.0       0.3       0.7       0.2       0.2       1.3
 5 O  pz              2.2       9.9       4.4       1.0       3.6       8.0
 5 O  px              3.7       0.3       0.3       0.7       0.0       1.7
 5 O  py              0.1       0.5       6.0       0.6       0.1       1.5
 5 O  dz2             0.1       0.0       0.6       0.1       0.3       0.4
 5 O  dxz             0.0       0.0       0.3       0.1       0.1       0.0
 5 O  dyz             0.0       0.0       0.1       0.0       0.1       0.2
 5 O  dx2y2           0.2       0.0       0.1       0.0       0.1       0.4
 5 O  dxy             0.7       0.8       0.1       0.1       0.0       0.1
 6 C  s               0.2       0.2       0.3       0.0       0.0       0.2
 6 C  pz              0.5       0.1      11.1       0.0       1.2       4.7
 6 C  px              4.1       1.5       1.4       0.7       0.0       0.2
 6 C  py              7.7       7.4       2.2       0.7       0.0       0.2
 6 C  dz2             0.0       0.0       0.5       0.0       0.1       0.2
 6 C  dx2y2           0.2       0.2       0.0       0.0       0.0       0.0
 6 C  dxy             0.0       0.2       0.1       0.1       0.0       0.0
 7 C  s               0.1       0.1       0.4       0.0       0.0       0.1
 7 C  pz              0.1       1.9       9.3       0.0       0.5       2.1
 7 C  px             15.8       7.1       4.4       0.2       0.0       0.1
 7 C  py              6.0      14.4       1.7       0.6       0.0       0.3
 7 C  dz2             0.0       0.1       0.3       0.0       0.0       0.1
 7 C  dxz             0.1       0.0       0.0       0.0       0.0       0.0
 7 C  dx2y2           0.2       0.1       0.1       0.0       0.0       0.0
 7 C  dxy             0.0       0.3       0.0       0.0       0.0       0.0
 8 H  s               4.9       0.7       3.9       1.0       7.8       0.9
 8 H  pz              0.1       0.0       0.1       0.0       0.0       0.1
 8 H  py              0.0       0.0       0.0       0.2       0.0       0.0
 9 H  s               0.2       0.0       0.1       0.0       8.4       4.0
 9 H  py              0.0       0.0       0.0       0.2       0.0       0.0
10 H  s               4.2       0.4       3.3       4.1       0.1       5.5
10 H  pz              0.1       0.0       0.0       0.0       0.1       0.0
10 H  px              0.0       0.0       0.0       0.1       0.0       0.0
11 H  s               0.0       0.8       3.3       1.5       9.6       1.9
[...]
 4 O  pz              0.3       0.7       0.2      17.2       0.0       0.0
 4 O  px              5.0       0.1       0.3       0.2       0.0       0.0
 4 O  py              1.2       0.2       0.0       4.6       0.0       0.0
 4 O  dz2             0.9       1.0       0.0      16.4       0.0       0.0
 4 O  dxz            10.1       0.1       1.6       0.4       0.0       0.0
 4 O  dyz             0.8       1.0       0.0      15.2       0.0       0.0
 4 O  dx2y2           0.0       0.2       0.5       1.0       0.0       0.0
 4 O  dxy             3.9       0.0       0.0       0.1       0.0       0.0
 5 O  s               3.2      25.4       6.6       1.3       0.0       0.0
 5 O  pz              4.1       6.5       1.0       0.2       0.0       0.0
 5 O  px              0.1       7.3      26.1       0.5       0.0       0.0
 5 O  py              1.2       0.1       4.4       0.0       0.0       0.0
 5 O  dz2             3.9       1.8       0.6       0.1       0.0       0.0
 5 O  dxz             0.1       4.4      16.8       0.9       0.0       0.0
 5 O  dyz             3.0       0.4       3.1       0.0       0.0       0.0
 5 O  dx2y2           0.9      15.4       0.3       1.1       0.0       0.0
 5 O  dxy             0.1       3.3       8.0       0.1       0.0       0.0
 6 C  s               0.0       1.4       0.5       0.2      15.7       3.7
 6 C  pz              0.1       1.3       0.8       0.1       0.0       0.0
 6 C  px              0.1       6.8       1.3       0.3       0.0       0.0
 6 C  py              0.1       0.0       0.0       0.0       0.0       0.0
 6 C  dz2             1.0       0.3       0.4       0.0       0.0       0.0
 6 C  dxz             0.4       6.6       1.3       0.4       0.0       0.0
 6 C  dx2y2           0.0       5.8       1.0       0.2       0.0       0.0
 6 C  dxy             0.2       0.6       0.0       0.0       0.0       0.0
 7 C  s               0.1       0.0       0.0       0.0      75.4       4.0
 7 C  pz              0.2       0.0       0.0       0.0       0.0       0.0
 7 C  px              0.2       0.1       0.0       0.0       0.0       0.0
 7 C  dz2             0.8       0.0       0.0       0.0       0.0       0.0
 7 C  dxz             0.0       0.2       0.0       0.0       0.0       0.0
 7 C  dx2y2           0.4       0.4       0.0       0.0       0.0       0.0
 8 H  s               0.6       0.0       0.0       0.0       0.0       0.0
 8 H  pz              0.7       0.0       0.0       0.0       0.0       0.0
 8 H  px              0.8       0.0       0.0       0.0       0.0       0.0
 8 H  py              0.1       0.0       0.0       0.0       0.0       0.0
 9 H  s               0.2       0.0       0.0       0.0       0.0       0.0
 9 H  pz              0.2       0.0       0.0       0.0       0.0       0.0
 9 H  py              0.2       0.0       0.0       0.0       0.0       0.0
10 H  s               0.1       0.0       0.0       0.0       0.0       0.0
10 H  px              0.1       0.0       0.0       0.0       0.0       0.0
11 H  s               1.2       0.0       0.0       0.0       0.0       0.0
11 H  pz              0.8       0.0       0.0       0.0       0.0       0.0
11 H  px              2.2       0.0       0.0       0.0       0.0       0.0
12 H  s               0.7       0.0       0.0       0.0       0.0       0.0
12 H  pz              1.2       0.0       0.0       0.0       0.0       0.0
12 H  px              0.2       0.0       0.0       0.0       0.0       0.0
12 H  py              0.4       0.0       0.0       0.0       0.0       0.0
13 H  s               2.4       0.0       0.1       0.0       0.0       0.0
13 H  pz              5.0       0.1       0.0       0.0       0.0       0.0
13 H  px              0.5       0.0       0.1       0.0       0.0       0.0
13 H  py              0.9       0.0       0.0       0.0       0.0       0.0
14 H  s               0.1       0.0       0.0       0.0       0.0       0.0
14 H  py              0.1       0.0       0.0       0.0       0.0       0.0
15 H  s               0.1       0.2       0.2       0.0       0.0       0.0
15 H  pz              0.2       0.3       0.2       0.0       0.0       0.0
15 H  px              0.8       0.3       0.1       0.0       0.0       0.0
16 H  s               0.0       0.7       0.0       0.0       0.0       0.0
16 H  pz              0.1       0.4       0.0       0.0       0.0       0.0
16 H  py              0.0       1.2       0.0       0.0       0.0       0.0
17 H  s               0.2       0.0       0.0       0.0       0.0       0.0
17 H  py              0.2       0.0       0.0       0.0       0.0       0.0
18 H  px              0.1       0.2       0.0       0.0       0.0       0.0
19 H  s               0.2       0.0       0.0       0.0       0.0       0.0
19 H  pz              0.5       0.0       0.0       0.0       0.0       0.0

                    216       217       218       219       220       221   
                  22.00521  22.02022  22.09425  22.29167  43.68811  43.75181
                   0.00000   0.00000   0.00000   0.00000   0.00000   0.00000
                  --------  --------  --------  --------  --------  --------
 0 C  s              12.0       0.1       1.5       0.2       0.0       0.0
 1 C  s               0.1      91.8       0.1       6.5       0.0       0.0
 2 C  s              14.6       0.1      70.8       0.6       0.0       0.0
 3 C  s               1.3       6.4       0.1      91.3       0.0       0.0
 4 O  s               0.0       0.0       0.0       0.2      99.3       0.6
 4 O  pz              0.0       0.0       0.0       0.1       0.0       0.0
 5 O  s               0.0       0.0       0.1       0.1       0.6      99.4
 6 C  s              52.8       0.0      27.0       0.4       0.0       0.0
 7 C  s              18.9       1.3       0.1       0.0       0.0       0.0



                      *****************************
                      * MAYER POPULATION ANALYSIS *
                      *****************************

  NA   - Mulliken gross atomic population
  ZA   - Total nuclear charge
  QA   - Mulliken gross atomic charge
  VA   - Mayer's total valence
  BVA  - Mayer's bonded valence
  FA   - Mayer's free valence

  ATOM       NA         ZA         QA         VA         BVA        FA
  0 C      6.5313     6.0000    -0.5313     3.8079     3.8079     0.0000
  1 C      6.2267     6.0000    -0.2267     3.6289     3.6289     0.0000
  2 C      6.3207     6.0000    -0.3207     3.6753     3.6753     0.0000
  3 C      5.6136     6.0000     0.3864     3.7700     3.7700    -0.0000
  4 O      8.5141     8.0000    -0.5141     1.8697     1.8697     0.0000
  5 O      8.1800     8.0000    -0.1800     1.9393     1.9393    -0.0000
  6 C      6.1541     6.0000    -0.1541     3.6116     3.6116     0.0000
  7 C      6.4853     6.0000    -0.4853     3.8416     3.8416    -0.0000
  8 H      0.8365     1.0000     0.1635     0.9593     0.9593     0.0000
  9 H      0.8365     1.0000     0.1635     0.9587     0.9587    -0.0000
 10 H      0.8384     1.0000     0.1616     0.9579     0.9579     0.0000
 11 H      0.8355     1.0000     0.1645     0.9561     0.9561    -0.0000
 12 H      0.8433     1.0000     0.1567     0.9610     0.9610     0.0000
 13 H      0.8209     1.0000     0.1791     0.9579     0.9579     0.0000
 14 H      0.8081     1.0000     0.1919     0.9486     0.9486    -0.0000
 15 H      0.8242     1.0000     0.1758     0.9527     0.9527     0.0000
 16 H      0.8287     1.0000     0.1713     0.9449     0.9449    -0.0000
 17 H      0.8353     1.0000     0.1647     0.9570     0.9570    -0.0000
 18 H      0.8313     1.0000     0.1687     0.9585     0.9585     0.0000
 19 H      0.8354     1.0000     0.1646     0.9566     0.9566    -0.0000

  Mayer bond orders larger than 0.100000
B(  0-C ,  1-C ) :   0.8938 B(  0-C ,  8-H ) :   0.9699 B(  0-C ,  9-H ) :   0.9783 
B(  0-C , 10-H ) :   0.9653 B(  1-C ,  2-C ) :   0.8725 B(  1-C , 11-H ) :   0.9619 
B(  1-C , 12-H ) :   0.9737 B(  2-C ,  3-C ) :   0.9408 B(  2-C , 13-H ) :   0.9948 
B(  2-C , 14-H ) :   0.9368 B(  3-C ,  4-O ) :   1.7559 B(  3-C ,  5-O ) :   1.0885 
B(  5-O ,  6-C ) :   0.7781 B(  6-C ,  7-C ) :   0.9423 B(  6-C , 15-H ) :   0.9604 
B(  6-C , 16-H ) :   0.9377 B(  7-C , 17-H ) :   0.9717 B(  7-C , 18-H ) :   0.9619 
B(  7-C , 19-H ) :   0.9662 

-------
TIMINGS
-------

Total SCF time: 0 days 0 hours 0 min 34 sec 

Total time                  ....      34.954 sec
Sum of individual times     ....      34.312 sec  ( 98.2%)

SCF preparation             ....       0.371 sec  (  1.1%)
Fock matrix formation       ....      32.687 sec  ( 93.5%)
  Startup                   ....       0.093 sec  (  0.3% of F)
  Split-RI-J                ....       5.375 sec  ( 16.4% of F)
  XC integration            ....      20.469 sec  ( 62.6% of F)
    XC Preparation          ....       0.000 sec  (  0.0% of XC)
    Basis function eval.    ....       3.756 sec  ( 18.4% of XC)
    Density eval.           ....       6.170 sec  ( 30.1% of XC)
    XC-Functional eval.     ....       2.606 sec  ( 12.7% of XC)
    XC-Potential eval.      ....       6.810 sec  ( 33.3% of XC)
  CPCM terms                ....       6.111 sec  ( 18.7% of F)
Diagonalization             ....       0.000 sec  (  0.0%)
Density matrix formation    ....       0.304 sec  (  0.9%)
Total Energy calculation    ....       0.069 sec  (  0.2%)
Population analysis         ....       0.158 sec  (  0.5%)
Orbital Transformation      ....       0.072 sec  (  0.2%)
Orbital Orthonormalization  ....       0.000 sec  (  0.0%)
DIIS solution               ....       0.583 sec  (  1.7%)
  MO trafo                  ....       0.000 sec  (  0.0 % of DIIS)
  Orb grad                  ....       0.000 sec  (  0.0 % of DIIS)
  Energy W gradient         ....       0.000 sec  (  0.0 % of DIIS)
  DIIS error                ....       0.027 sec  (  4.7 % of DIIS)
  DIIS work                 ....       0.488 sec  ( 83.7 % of DIIS)
  Form Q                    ....       0.000 sec  (  0.0 % of DIIS)
  Form QpQm                 ....       0.000 sec  (  0.0 % of DIIS)
  Exp/Cayley                ....       0.000 sec  (  0.0 % of DIIS)
  Orb update                ....       0.000 sec  (  0.0 % of DIIS)
  Wake-sleep                ....       0.029 sec  (  5.0 % of DIIS)
SOSCF solution              ....       0.070 sec  (  0.2%)
  MO trafo                  ....       0.050 sec  ( 71.9 % of SOSCF)
  Orb grad                  ....       0.001 sec  (  1.2 % of SOSCF)
  Rot update                ....       0.000 sec  (  0.1 % of SOSCF)
  Step                      ....       0.019 sec  ( 26.6 % of SOSCF)
Finished LeanSCF after  35.1 sec

Maximum memory used throughout the entire LEANSCF-calculation: 30.6 MB


-------------------------------------------------------------------------------
                          DFT DISPERSION CORRECTION                            
                                                                               
                                DFTD4 V3.4.0                                   
-------------------------------------------------------------------------------
The R2SCAN3C composite method is recognized
Using three-body term ABC
Active option DFTDOPT                   ...         5   

-------------------------   ----------------
Dispersion correction           -0.005098423
-------------------------   ----------------

------------------   -----------------
gCP correction             0.011725352
------------------   -----------------

-------------------------   --------------------
FINAL SINGLE POINT ENERGY      -386.240980807679
-------------------------   --------------------


------------------------------------------------------------------------------
                              ORCA PROPERTY CALCULATIONS
------------------------------------------------------------------------------

GBWName                                 ... sp_solv.gbw
Number of atoms                         ...     20
Number of basis functions               ...    222
Max core memory                         ...   1024 MB

Electric properties:
Dipole moment                           ... YES
Quadrupole moment                       ...  NO
Static polarizability (Dipole/Dipole)   ...  NO
Static polarizability (Dipole/Quad.)    ...  NO
Static polarizability (Quad./Quad.)     ...  NO
Static polarizability (Velocity)        ...  NO

Atomic electric properties:
Dipole moment                           ...  NO
Quadrupole moment                       ...  NO
Static polarizability                   ...  NO

Choice of electric origin               ... Center of mass
Position of electric origin             ...    -0.000008    -0.000020     0.000007

General magnetic properties:
Magnetizability                         ...  NO

EPR properties:
g-Tensor (aka g-matrix)                 ...  NO
Zero-Field splitting spin-orbit         ...  NO
Zero-field splitting spin-spin          ...  NO
Hyperfine couplings                     ...  NO (   0 nuclei)
Quadrupole couplings                    ...  NO (   0 nuclei)
Contact density                         ...  NO (   0 nuclei)

NMR properties:
Chemical shifts                         ...  NO (   0 nuclei)
Spin-rotation constants                 ...  NO (   0 nuclei)
Spin-spin couplings                     ...  NO (   0 nuclei,    0 pairs)

Choice of magnetic origin               ... GIAO
Position of magnetic origin             ...     0.000000     0.000000     0.000000

Properties with geometric perturbations:
SCF Hessian                             ...  NO
IR spectrum                             ...  NO
VCD spectrum                            ...  NO
X-ray spectroscopy properties:
SCF XES/XAS/RIXS spectra                ...  NO


-------------
DIPOLE MOMENT
-------------

Method             : SCF
Type of density    : Electron Density
Multiplicity       :   1
Irrep              :   0
Energy             :  -386.2476077371653673 Eh
Relativity type    : 
Basis              : AO
                                X                 Y                 Z
Electronic contribution:      1.453834999       5.602993071      -0.608539869
Nuclear contribution   :     -1.169888985      -6.286967221       1.507539498
                        -----------------------------------------
Total Dipole Moment    :      0.283946014      -0.683974151       0.898999629
                        -----------------------------------------
Magnitude (a.u.)       :      1.164751609
Magnitude (Debye)      :      2.960563310



--------------------
Rotational spectrum 
--------------------
 
Rotational constants in cm-1:             0.113066             0.038054             0.033145 
Rotational constants in MHz :          3389.621945          1140.837275           993.651921 

Dipole components along the rotational axes: 
x,y,z [a.u.] :     0.351047    -0.849979     0.714806 
x,y,z [Debye]:     0.892291    -2.160475     1.816893 

 

Dipole moment calculation done in   0.0 sec 

Maximum memory used throughout the entire PROP-calculation: 13.8 MB

--------------------------------
SUGGESTED CITATIONS FOR THIS RUN
--------------------------------

Below you find a list of papers that are relevant to this ORCA run
We neither can nor want to force you to cite these papers, but we appreciate if you do
You receive ORCA, which is the product of decades of hard work by many enthusiastic individuals, for free
The only thing we kindly ask in return is that you cite our papers,
We deeply appreciate it, if you show your appreciation for ORCA by not just citing the generic ORCA reference.

Please note that relegating all ORCA citations to the supporting information does *not* help us.
SI sections are not indexed - citations you put there will not count into any citation statistics
But we need these citations in order to attract the funding resources that allow us to do what we are doing

Therefore, if you are a happy ORCA user, please consider citing a few of the papers listed below in the main body of your paper

In addition to the list printed below, the program has created the file sp_solv.bibtex that contains the list in bibtex format
You can import this file easily into all common literature databanks and citation aid programs


List of essential papers. We consider these as the minimum necessary citations

  1. Neese,F.
     Software update: the ORCA program system, version 5.0
     WIRES Comput. Molec. Sci., 2022 12(1)e1606
     doi.org/10.1002/wcms.1606
  2. Grimme,S.; Hansen,A.; Ehlert,S.; Mewes,J.
     r2SCAN-3c: A 'Swiss army knife' composite electronic-structure method
     J. Chem. Phys., 2021 154 064103
     doi.org/10.1063/5.0040021

List of papers to cite with high priority. The work reported in these papers was absolutely
necessary for this run to complete.
Our perspective: the developers of density functionals and basis sets usually get cited in chemistry papers
Good! But without the algorithms to do something with them, the functionals or basis sets would not do anything.
Hence, in our opinion, the algorithm design and method developments papers are equally worthy of getting cited

  1. Neese,F.
     An improvement of the resolution of the identity approximation for the formation of the Coulomb matrix
     J. Comp. Chem., 2003 24(14)1740-1747
     doi.org/10.1002/jcc.10318
  2. Garcia-Rates,M.; Neese,F.
     Effect of the Solute Cavity on the Solvation Energy and its Derivatives within the Framework of the Gaussian Charge Scheme
     J. Comput. Chem., 2020 41 922-939
     doi.org/10.1002/jcc.26139
  3. Neese,F.
     The SHARK Integral Generation and Digestion System
     J. Comp. Chem., 2022  1-16
     doi.org/10.1002/jcc.26942
  4. Lehtola,S.; Steigemann,C.; Oliveira,M.; Marques,M.
     Recent developments in Libxc - A comprehensive library of functionals for density functional theory
     Software X, 2018 7 
     doi.org/10.1016/j.softx.2017.11.002
  5. Caldeweyher,E.; Bannwarth,C.; Grimme,S.
     Extension of the D3 dispersion coefficient model
     J. Chem. Phys., 2017 147 034112-XXXX
     doi.org/10.1063/1.4993215
  6. Caldeweyher,E.; Ehlert,S.; Hansen,A.; Neugebauer,H.; Spicher,S.; Bannwarth,C.; Grimme,S.
     A generally applicable atomic-charge dependent London dispersion correction
     J. Chem. Phys., 2019 150 154122-XXXX
     doi.org/10.1063/1.5090222
  7. Caldeweyher,E.; Mewes,J.; Ehlert,S.; Grimme,S.
     Extension and evaluation of the D4 London-dispersion model for periodic systems
     Phys. Chem. Chem. Phys., 2020 22(16)8499-8512
     doi.org/10.1039/D0CP00502A

List of suggested additional citations. These are papers that are important in the 'surrounding' of 
of this run, or papers that preceded the highly important papers. If you like your results we are grateful for a citation.

  1. Neese,F.
     The ORCA program system
     WIRES Comput. Molec. Sci., 2012 2(1)73-78
     doi.org/10.1002/wcms.81
  2. Neese,F.
     Software update: the ORCA program system, version 4.0
     WIRES Comput. Molec. Sci., 2018 8(1)1-6
     doi.org/10.1002/wcms.1327
  3. Neese,F.; Wennmohs,F.; Becker,U.; Riplinger,C.
     The ORCA quantum chemistry program package
     J. Chem. Phys., 2020 152 Art. No. L224108
     doi.org/10.1063/5.0004608

List of optional additional citations

  1. Neese,F.
     Approximate second-order SCF convergence for spin unrestricted wavefunctions
     Chem. Phys. Lett., 2000 325(1-3)93-98
     doi.org/10.1016/s0009-2614(00)00662-x

Timings for individual modules:

Sum of individual times          ...       37.302 sec (=   0.622 min)
Startup calculation              ...        1.642 sec (=   0.027 min)   4.4 %
SCF iterations                   ...       35.535 sec (=   0.592 min)  95.3 %
Property calculations            ...        0.125 sec (=   0.002 min)   0.3 %
                             ****ORCA TERMINATED NORMALLY****
TOTAL RUN TIME: 0 days 0 hours 0 minutes 38 seconds 261 msec
