
                                 *****************
                                 * O   R   C   A *
                                 *****************

                                            #,                                       
                                            ###                                      
                                            ####                                     
                                            #####                                    
                                            ######                                   
                                           ########,                                 
                                     ,,################,,,,,                         
                               ,,#################################,,                 
                          ,,##########################################,,             
                       ,#########################################, ''#####,          
                    ,#############################################,,   '####,        
                  ,##################################################,,,,####,       
                ,###########''''           ''''###############################       
              ,#####''   ,,,,##########,,,,          '''####'''          '####       
            ,##' ,,,,###########################,,,                        '##       
           ' ,,###''''                  '''############,,,                           
         ,,##''                                '''############,,,,        ,,,,,,###''
      ,#''                                            '''#######################'''  
     '                                                          ''''####''''         
             ,#######,   #######,   ,#######,      ##                                
            ,#'     '#,  ##    ##  ,#'     '#,    #''#        ,####,   ,####,        
            ##       ##  ##   ,#'  ##            #'  '#       #'       #'  '#        
            ##       ##  #######   ##           ,######,      #####,   #    #        
            '#,     ,#'  ##    ##  '#,     ,#' ,#      #,     #,   #   #,  ,#        
             '#######'   ##     ##  '#######'  #'      '#     '####' # '####'        



                #########################################################
                #                        -***-                          #
                #          Department of theory and spectroscopy        #
                #                                                       #
                #                      Frank Neese                      #
                #                                                       #
                #     Directorship, Architecture, Infrastructure        #
                #                    SHARK, DRIVERS                     #
                #        Core code/Algorithms in most modules           #
                #                                                       #
                #        Max Planck Institute fuer Kohlenforschung      #
                #                Kaiser Wilhelm Platz 1                 #
                #                 D-45470 Muelheim/Ruhr                 #
                #                      Germany                          #
                #                                                       #
                #                  All rights reserved                  #
                #                        -***-                          #
                #########################################################


                         Program Version 6.0.0  -   RELEASE  -


 With contributions from (in alphabetic order):
   Daniel Aravena         : Magnetic Suceptibility
   Michael Atanasov       : Ab Initio Ligand Field Theory (pilot matlab implementation)
   Alexander A. Auer      : GIAO ZORA, VPT2 properties, NMR spectrum
   Ute Becker             : All parallelization in ORCA, NUMFREQ, NUMCALC
   Giovanni Bistoni       : ED, misc. LED, open-shell LED, HFLD
   Martin Brehm           : Molecular dynamics
   Dmytro Bykov           : pre 5.0 version of the SCF Hessian
   Marcos Casanova-Páez   : Triplet and SCS-CIS(D). UHF-(DLPNO)-IP/EA/STEOM-CCSD. UHF-CVS-IP/STEOM-CCSD
   Vijay G. Chilkuri      : MRCI spin determinant printing, contributions to CSF-ICE
   Pauline Colinet        : FMM embedding
   Dipayan Datta          : RHF DLPNO-CCSD density
   Achintya Kumar Dutta   : EOM-CC, STEOM-CC
   Nicolas Foglia         : Exact transition moments, OPA infrastructure, MCD improvements
   Dmitry Ganyushin       : Spin-Orbit,Spin-Spin,Magnetic field MRCI
   Miquel Garcia          : C-PCM and meta-GGA Hessian, CCSD/C-PCM, Gaussian charge scheme
   Tiago L. C. Gouveia    : GS-ROHF, GS-ROCIS
   Yang Guo               : DLPNO-NEVPT2, F12-NEVPT2, CIM, IAO-localization
   Andreas Hansen         : Spin unrestricted coupled pair/coupled cluster methods
   Ingolf Harden          : AUTO-CI MPn and infrastructure 
   Benjamin Helmich-Paris : MC-RPA, TRAH-(SCF,CASSCF), AVAS, COSX integrals, SCF dyn. polar.
   Lee Huntington         : MR-EOM, pCC
   Robert Izsak           : Overlap fitted RIJCOSX, COSX-SCS-MP3, EOM
   Riya Kayal             : Wick's Theorem for AUTO-CI, AUTO-CI UHF-CCSDT
   Emily Kempfer          : AUTO-CI, RHF CISDT and CCSDT
   Christian Kollmar      : KDIIS, OOCD, Brueckner-CCSD(T), CCSD density, CASPT2, CASPT2-K, improved NEVPT2
   Axel Koslowski         : Symmetry handling
   Simone Kossmann        : Meta GGA functionals, TD-DFT gradient, OOMP2, (MP2 Hessian; deprecated post 5.0)
   Lucas Lang             : DCDCAS
   Marvin Lechner         : AUTO-CI (C++ implementation), FIC-MRCC
   Spencer Leger          : CASSCF response
   Dagmar Lenk            : GEPOL surface, SMD, ORCA-2-JSON
   Dimitrios Liakos       : Extrapolation schemes; Compound Job, initial MDCI parallelization
   Dimitrios Manganas     : Further ROCIS development; embedding schemes. LFT, Crystal Embedding
   Dimitrios Pantazis     : SARC Basis sets
   Anastasios Papadopoulos: AUTO-CI, single reference methods and gradients
   Taras Petrenko         : pre 6.0 DFT Hessian and TD-DFT gradient, (ASA, deprecated), ECA, 1-Electron XAS/XES, NRVS
   Peter Pinski           : DLPNO-MP2, DLPNO-MP2 Gradient
   Christoph Reimann      : Effective Core Potentials
   Marius Retegan         : Local ZFS, SOC
   Christoph Riplinger    : Optimizer, TS searches, QM/MM, DLPNO-CCSD(T), (RO)-DLPNO pert. Triples
   Michael Roemelt        : Original ROCIS implementation
   Masaaki Saitow         : Open-shell DLPNO-CCSD energy and density
   Barbara Sandhoefer     : DKH picture change effects
   Kantharuban Sivalingam : CASSCF convergence/infrastructure, NEVPT2 and variants, FIC-MRCI
   Bernardo de Souza      : ESD, SOC TD-DFT
   Georgi Stoychev        : AutoAux, RI-MP2 NMR, DLPNO-MP2 response, X2C
   Van Anh Tran           : RI-MP2 g-tensors
   Willem Van den Heuvel  : Paramagnetic NMR
   Zikuan Wang            : NOTCH, Electric field optimization 
   Frank Wennmohs         : Technical directorship and infrastructure
   Hang Xu                : AUTO-CI-Response properties 


 We gratefully acknowledge several colleagues who have allowed us to
 interface, adapt or use parts of their codes:
   Stefan Grimme, W. Hujo, H. Kruse, P. Pracht,  : VdW corrections, initial TS optimization,
                  C. Bannwarth, S. Ehlert,         DFT functionals, gCP, sTDA/sTD-DF
                  L. Wittmann, M. Mueller
   Ed Valeev, F. Pavosevic, A. Kumar             : LibInt (2-el integral package), F12 methods
   Garnet Chan, S. Sharma, J. Yang, R. Olivares  : DMRG
   Ulf Ekstrom                                   : XCFun DFT Library
   Mihaly Kallay                                 : mrcc  (arbitrary order and MRCC methods)
   Frank Weinhold                                : gennbo (NPA and NBO analysis)
   Simon Mueller                                 : openCOSMO-RS
   Christopher J. Cramer and Donald G. Truhlar   : smd solvation model
   Lars Goerigk                                  : TD-DFT with DH, B97 family of functionals
   V. Asgeirsson, H. Jonsson                     : NEB implementation
   FAccTs GmbH                                   : IRC, NEB, NEB-TS, DLPNO-Multilevel, CI-OPT
                                                   MM, QMMM, 2- and 3-layer-ONIOM, Crystal-QMMM,
                                                   LR-CPCM, SF, NACMEs, symmetry and pop. for TD-DFT,
                                                   nearIR, NL-DFT gradient (VV10), updates on ESD,
                                                   ML-optimized integration grids, MBIS, APM,
                                                   GOAT, DOCKER, SOLVATOR, interface openCOSMO-RS
   S Lehtola, MJT Oliveira, MAL Marques          : LibXC Library
   Liviu Ungur et al                             : ANISO software


 Your calculation uses the libint2 library for the computation of 2-el integrals
 For citations please refer to: http://libint.valeyev.net

 Your ORCA version has been built with support for libXC version: 6.2.2
 For citations please refer to: https://libxc.gitlab.io

 This ORCA versions uses:
   CBLAS   interface :  Fast vector & matrix operations
   LAPACKE interface :  Fast linear algebra routines
   SCALAPACK package :  Parallel linear algebra routines
   Shared memory     :  Shared parallel matrices
   BLAS/LAPACK       :  OpenBLAS 0.3.27  USE64BITINT DYNAMIC_ARCH NO_AFFINITY SkylakeX SINGLE_THREADED
        Core in use  :  SkylakeX
   Copyright (c) 2011-2014, The OpenBLAS Project


Your calculation utilizes the geometrical counterpoise correction gCP
Please cite in your paper:
H.Kruse, S. Grimme J.Chem.Phys., 136, (2012), 154101 
   

Your calculation utilizes the atom-pairwise dispersion correction
based on EEQ partial charges (D4)


================================================================================

----- Orbital basis set information -----
Your calculation utilizes the basis: def2-SV(P)
   F. Weigend and R. Ahlrichs, Phys. Chem. Chem. Phys. 7, 3297 (2005).

----- AuxJ basis set information -----
Your calculation utilizes the auxiliary basis: def2/J
   F. Weigend, Phys. Chem. Chem. Phys. 8, 1057 (2006).

================================================================================
                                        WARNINGS
                       Please study these warnings very carefully!
================================================================================


================================================================================
                                       INPUT FILE
================================================================================
NAME = sp.inp
|  1> ! pbe def2-sv(p) def2/J RI DEFGRID1 loosescf d4 GCP(DFT/SV(P)) printgap
|  2> %output
|  3>     printlevel normal
|  4> end
|  5> * xyz 0 1
|  6> C -2.175982922 -1.4726577065 -0.2335127725
|  7> C -2.4864582801 -0.0005296009 0.0083631467
|  8> C -1.356895936 0.6972159742 0.7754890847
|  9> C -0.1008631672 0.7349128644 -0.05655279
| 10> O -0.0086618059 1.2605744015 -1.1476442739
| 11> O 0.9016613258 0.1098554972 0.5427921838
| 12> C 2.1717487761 0.0298340089 -0.1266959062
| 13> C 2.8647462017 -1.2501152653 0.3029651141
| 14> H -1.2892414551 -1.5770286492 -0.8560783338
| 15> H -1.9969821382 -1.9852869435 0.7085613653
| 16> H -3.0068425285 -1.9565871135 -0.7398448197
| 17> H -3.4079773733 0.0906259967 0.5837299595
| 18> H -2.6254224271 0.5084723137 -0.9473539438
| 19> H -1.1420555686 0.1781841907 1.7085853719
| 20> H -1.6462045454 1.7277483681 0.9860119088
| 21> H 1.9971805592 0.0596681998 -1.2071489069
| 22> H 2.7540242711 0.9114125661 0.1583280006
| 23> H 2.2744542261 -2.1143749506 0.0116814321
| 24> H 3.8387541387 -1.3071902957 -0.1716783702
| 25> H 2.9892037738 -1.2586367203 1.3816657005
| 26> *
| 27> 
| 28>                          ****END OF INPUT****
================================================================================

                       ****************************
                       * Single Point Calculation *
                       ****************************

---------------------------------
CARTESIAN COORDINATES (ANGSTROEM)
---------------------------------
  C     -2.175983   -1.472658   -0.233513
  C     -2.486458   -0.000530    0.008363
  C     -1.356896    0.697216    0.775489
  C     -0.100863    0.734913   -0.056553
  O     -0.008662    1.260574   -1.147644
  O      0.901661    0.109855    0.542792
  C      2.171749    0.029834   -0.126696
  C      2.864746   -1.250115    0.302965
  H     -1.289241   -1.577029   -0.856078
  H     -1.996982   -1.985287    0.708561
  H     -3.006843   -1.956587   -0.739845
  H     -3.407977    0.090626    0.583730
  H     -2.625422    0.508472   -0.947354
  H     -1.142056    0.178184    1.708585
  H     -1.646205    1.727748    0.986012
  H      1.997181    0.059668   -1.207149
  H      2.754024    0.911413    0.158328
  H      2.274454   -2.114375    0.011681
  H      3.838754   -1.307190   -0.171678
  H      2.989204   -1.258637    1.381666

----------------------------
CARTESIAN COORDINATES (A.U.)
----------------------------
  NO LB      ZA    FRAG     MASS         X           Y           Z
   0 C     6.0000    0    12.011   -4.112012   -2.782920   -0.441275
   1 C     6.0000    0    12.011   -4.698725   -0.001001    0.015804
   2 C     6.0000    0    12.011   -2.564162    1.317547    1.465462
   3 C     6.0000    0    12.011   -0.190604    1.388784   -0.106869
   4 O     8.0000    0    15.999   -0.016368    2.382140   -2.168733
   5 O     8.0000    0    15.999    1.703893    0.207597    1.025729
   6 C     6.0000    0    12.011    4.104010    0.056378   -0.239421
   7 C     6.0000    0    12.011    5.413586   -2.362375    0.572521
   8 H     1.0000    0     1.008   -2.436313   -2.980152   -1.617754
   9 H     1.0000    0     1.008   -3.773749   -3.751649    1.338987
  10 H     1.0000    0     1.008   -5.682109   -3.697414   -1.398104
  11 H     1.0000    0     1.008   -6.440144    0.171258    1.103090
  12 H     1.0000    0     1.008   -4.961329    0.960873   -1.790240
  13 H     1.0000    0     1.008   -2.158172    0.336719    3.228758
  14 H     1.0000    0     1.008   -3.110876    3.264971    1.863292
  15 H     1.0000    0     1.008    3.774124    0.112757   -2.281181
  16 H     1.0000    0     1.008    5.204352    1.722320    0.299197
  17 H     1.0000    0     1.008    4.298096   -3.995590    0.022075
  18 H     1.0000    0     1.008    7.254194   -2.470232   -0.324425
  19 H     1.0000    0     1.008    5.648776   -2.378479    2.610970

--------------------------------
INTERNAL COORDINATES (ANGSTROEM)
--------------------------------
 C      0   0   0     0.000000000000     0.00000000     0.00000000
 C      1   0   0     1.523830721430     0.00000000     0.00000000
 C      2   1   0     1.533376073093   111.64898313     0.00000000
 C      3   2   1     1.507094241607   110.43331714    65.43640808
 O      4   3   2     1.214620010065   124.75197243    59.08519891
 O      4   3   2     1.324751474419   111.66145923   239.63537632
 C      6   4   3     1.437963793929   118.94918471   178.86969104
 C      7   6   4     1.517604747218   108.56912829   210.12477286
 H      1   2   3     1.088481327776   110.45084706   297.28652366
 H      1   2   3     1.087351689353   110.57730948    57.31926815
 H      1   2   3     1.086686476724   110.38909466   177.56721423
 H      2   1   3     1.090208122964   109.68004356   239.45071892
 H      2   1   3     1.091690954571   109.71904091   120.49875481
 H      3   2   1     1.089136840316   110.92031908   304.86666922
 H      3   2   1     1.090878703531   109.33246242   183.75909653
 H      7   6   4     1.094871146766   108.48796679   332.10628789
 H      7   6   4     1.094287042800   107.69104544    89.54037998
 H      8   7   6     1.086386489005   110.29962385    61.71461985
 H      8   7   6     1.085004819170   109.29537444   181.76420052
 H      8   7   6     1.085890076181   109.88899135   301.75740824

---------------------------
INTERNAL COORDINATES (A.U.)
---------------------------
 C      0   0   0     0.000000000000     0.00000000     0.00000000
 C      1   0   0     2.879622737958     0.00000000     0.00000000
 C      2   1   0     2.897660838453   111.64898313     0.00000000
 C      3   2   1     2.847995374647   110.43331714    65.43640808
 O      4   3   2     2.295299175804   124.75197243    59.08519891
 O      4   3   2     2.503417482160   111.66145923   239.63537632
 C      6   4   3     2.717357761020   118.94918471   178.86969104
 C      7   6   4     2.867857351781   108.56912829   210.12477286
 H      1   2   3     2.056931611383   110.45084706   297.28652366
 H      1   2   3     2.054796904135   110.57730948    57.31926815
 H      1   2   3     2.053539834444   110.38909466   177.56721423
 H      2   1   3     2.060194781379   109.68004356   239.45071892
 H      2   1   3     2.062996927018   109.71904091   120.49875481
 H      3   2   1     2.058170350562   110.92031908   304.86666922
 H      3   2   1     2.061461995000   109.33246242   183.75909653
 H      7   6   4     2.069006619319   108.48796679   332.10628789
 H      7   6   4     2.067902822790   107.69104544    89.54037998
 H      8   7   6     2.052972939811   110.29962385    61.71461985
 H      8   7   6     2.050361962216   109.29537444   181.76420052
 H      8   7   6     2.052034855525   109.88899135   301.75740824

---------------------
BASIS SET INFORMATION
---------------------
There are 3 groups of distinct atoms

 Group   1 Type C   : 7s4p1d contracted to 3s2p1d pattern {511/31/1}
 Group   2 Type O   : 7s4p1d contracted to 3s2p1d pattern {511/31/1}
 Group   3 Type H   : 4s contracted to 2s pattern {31}

Atom   0C    basis set group =>   1
Atom   1C    basis set group =>   1
Atom   2C    basis set group =>   1
Atom   3C    basis set group =>   1
Atom   4O    basis set group =>   2
Atom   5O    basis set group =>   2
Atom   6C    basis set group =>   1
Atom   7C    basis set group =>   1
Atom   8H    basis set group =>   3
Atom   9H    basis set group =>   3
Atom  10H    basis set group =>   3
Atom  11H    basis set group =>   3
Atom  12H    basis set group =>   3
Atom  13H    basis set group =>   3
Atom  14H    basis set group =>   3
Atom  15H    basis set group =>   3
Atom  16H    basis set group =>   3
Atom  17H    basis set group =>   3
Atom  18H    basis set group =>   3
Atom  19H    basis set group =>   3
---------------------------------
AUXILIARY/J BASIS SET INFORMATION
---------------------------------
There are 3 groups of distinct atoms

 Group   1 Type C   : 12s5p4d2f1g contracted to 6s4p3d1f1g pattern {711111/2111/211/2/1}
 Group   2 Type O   : 12s5p4d2f1g contracted to 6s4p3d1f1g pattern {711111/2111/211/2/1}
 Group   3 Type H   : 5s2p1d contracted to 3s1p1d pattern {311/2/1}

Atom   0C    basis set group =>   1
Atom   1C    basis set group =>   1
Atom   2C    basis set group =>   1
Atom   3C    basis set group =>   1
Atom   4O    basis set group =>   2
Atom   5O    basis set group =>   2
Atom   6C    basis set group =>   1
Atom   7C    basis set group =>   1
Atom   8H    basis set group =>   3
Atom   9H    basis set group =>   3
Atom  10H    basis set group =>   3
Atom  11H    basis set group =>   3
Atom  12H    basis set group =>   3
Atom  13H    basis set group =>   3
Atom  14H    basis set group =>   3
Atom  15H    basis set group =>   3
Atom  16H    basis set group =>   3
Atom  17H    basis set group =>   3
Atom  18H    basis set group =>   3
Atom  19H    basis set group =>   3
------------------------------------------------------------------------------
                             ORCA STARTUP CALCULATIONS
                           -- RI-GTO INTEGRALS CHOSEN --
------------------------------------------------------------------------------
------------------------------------------------------------------------------
                   ___                                                        
                  /   \      - P O W E R E D   B Y -                         
                 /     \                                                     
                 |  |  |   _    _      __       _____    __    __             
                 |  |  |  | |  | |    /  \     |  _  \  |  |  /  |          
                  \  \/   | |  | |   /    \    | | | |  |  | /  /          
                 / \  \   | |__| |  /  /\  \   | |_| |  |  |/  /          
                |  |  |   |  __  | /  /__\  \  |    /   |      \           
                |  |  |   | |  | | |   __   |  |    \   |  |\   \          
                \     /   | |  | | |  |  |  |  | |\  \  |  | \   \       
                 \___/    |_|  |_| |__|  |__|  |_| \__\ |__|  \__/        
                                                                              
                      - O R C A' S   B I G   F R I E N D -                    
                                      &                                       
                       - I N T E G R A L  F E E D E R -                       
                                                                              
 v1 FN, 2020, v2 2021, v3 2022-2024                                           
------------------------------------------------------------------------------


----------------------
SHARK INTEGRAL PACKAGE
----------------------

Number of atoms                             ...     20
Number of basis functions                   ...    136
Number of shells                            ...     72
Maximum angular momentum                    ...      2
Integral batch strategy                     ... SHARK/LIBINT Hybrid
RI-J (if used) integral strategy            ... SPLIT-RIJ (Revised 2003 algorithm where possible)
Printlevel                                  ...      1
Contraction scheme used                     ... SEGMENTED contraction
Prescreening option                         ... SCHWARTZ
   Thresh                                   ... 1.000e-09
   Tcut                                     ... 1.000e-10
   Tpresel                                  ... 1.000e-10 
Coulomb Range Separation                    ... NOT USED
Exchange Range Separation                   ... NOT USED
Multipole approximations                    ... NOT USED
Finite Nucleus Model                        ... NOT USED
CABS basis                                  ... NOT available
Auxiliary Coulomb fitting basis             ... AVAILABLE
   # of basis functions in Aux-J            ...    524
   # of shells in Aux-J                     ...    180
   Maximum angular momentum in Aux-J        ...      4
Auxiliary J/K fitting basis                 ... NOT available
Auxiliary Correlation fitting basis         ... NOT available
Auxiliary 'external' fitting basis          ... NOT available

Checking pre-screening integrals            ... done (  0.0 sec) Dimension = 72
Check shell pair data                       ... done (  0.0 sec)
Shell pair information
Shell pair cut-off parameter TPreSel        ...   1.0e-10
Total number of shell pairs                 ...      2628
Shell pairs after pre-screening             ...      2437
Total number of primitive shell pairs       ...     10580
Primitive shell pairs kept                  ...      6769
          la=0 lb=0:   1070 shell pairs
          la=1 lb=0:    734 shell pairs
          la=1 lb=1:    135 shell pairs
          la=2 lb=0:    343 shell pairs
          la=2 lb=1:    124 shell pairs
          la=2 lb=2:     31 shell pairs

Calculating one electron integrals          ... done (  0.0 sec)
Calculating RI/J V-Matrix + Cholesky decomp.... done (  0.1 sec)
Calculating Nuclear repulsion               ... done (  0.0 sec) ENN=    394.616036104292 Eh

Diagonalization of the overlap matrix:
Smallest eigenvalue                        ... 2.045e-03
Time for diagonalization                   ...    0.003 sec
Threshold for overlap eigenvalues          ... 1.000e-07
Number of eigenvalues below threshold      ... 0
Time for construction of square roots      ...    0.014 sec
Total time needed                          ...    0.026 sec

-------------------
DFT GRID GENERATION
-------------------

General Integration Accuracy     IntAcc      ... 4.159
Radial Grid Type                 RadialGrid  ... OptM3 with GC (2021)
Angular Grid (max. ang.)         AngularGrid ... 3 (Lebedev-194)
Angular grid pruning method      GridPruning ... 4 (adaptive)
Weight generation scheme         WeightScheme... mBecke (2022)
Basis function cutoff            BFCut       ... 1.0000e-10
Integration weight cutoff        WCut        ... 1.0000e-14
Partially contracted basis set               ... off
Rotationally invariant grid construction     ... off
Angular grids for H and He will be reduced by one unit

Total number of grid points                  ...    43009
Total number of batches                      ...      683
Average number of points per batch           ...       62
Average number of grid points per atom       ...     2150
Initializing property integral containers    ... done (  0.0 sec)

SHARK setup successfully completed in   0.7 seconds

Maximum memory used throughout the entire STARTUP-calculation: 21.2 MB
-------------------------------------------------------------------------------
                                 ORCA GUESS
                   Start orbitals & Density for SCF / CASSCF
-------------------------------------------------------------------------------

------------
SCF SETTINGS
------------
Hamiltonian:
 Density Functional     Method          .... DFT(GTOs)
 Exchange Functional    Exchange        .... PBE
   PBE kappa parameter   XKappa         ....  0.804000
   PBE mue parameter    XMuePBE         ....  0.219520
 Correlation Functional Correlation     .... PBE
   PBE beta parameter  CBetaPBE         ....  0.066725
 LDA part of GGA corr.  LDAOpt          .... PW91-LDA
 Gradients option       PostSCFGGA      .... off
   NL short-range parameter             ....  6.400000
 RI-approximation to the Coulomb term is turned on
   Number of AuxJ basis functions       .... 524


General Settings:
 Integral files         IntName         .... sp
 Hartree-Fock type      HFTyp           .... RHF
 Total Charge           Charge          ....    0
 Multiplicity           Mult            ....    1
 Number of Electrons    NEL             ....   64
 Basis Dimension        Dim             ....  136
 Nuclear Repulsion      ENuc            ....    394.6160361043 Eh

Convergence Acceleration:
 AO-DIIS                CNVDIIS         .... on
   Start iteration      DIISMaxIt       ....    12
   Startup error        DIISStart       ....  0.200000
   # of expansion vecs  DIISMaxEq       ....     5
   Bias factor          DIISBfac        ....   1.050
   Max. coefficient     DIISMaxC        ....  10.000
 MO-DIIS                CNVKDIIS        .... off
 Trust-Rad. Augm. Hess. CNVTRAH         .... auto
   Auto Start mean grad. ratio tolernc. ....  1.125000
   Auto Start start iteration           ....    50
   Auto Start num. interpolation iter.  ....    10
   Max. Number of Micro iterations      ....    24
   Max. Number of Macro iterations      .... Maxiter - #DIIS iter
   Number of Davidson start vectors     ....     2
   Converg. threshold    (grad. norm)   ....   1.000e-04
   Grad. Scal. Fac. for Micro threshold ....   0.100
   Minimum threshold for Micro iter.    ....   1.000e-02
   NR start threshold (gradient norm)   ....   1.000e-04
   Initial trust radius                 ....   0.400
   Minimum AH scaling param. (alpha)    ....   1.000
   Maximum AH scaling param. (alpha)    .... 1000.000
   Quad. conv. algorithm                .... NR
   White noise on init. David. guess    .... on
   Maximum white noise                  ....   0.010
   Pseudo random numbers                .... off
   Inactive MOs                         .... canonical
   Orbital update algorithm             .... Taylor
   Preconditioner                       .... Diag
   Full preconditioner red. dimension   ....   250
 SOSCF                  CNVSOSCF        .... on
   Start iteration      SOSCFMaxIt      ....   150
   Startup grad/error   SOSCFStart      ....  0.003300
   Hessian update       SOSCFHessUp     .... L-BFGS
 Level Shifting         CNVShift        .... on
   Level shift para.    LevelShift      ....    0.2500
   Turn off err/grad.   ShiftErr        ....    0.0010
 Zerner damping         CNVZerner       .... off
 Static damping         CNVDamp         .... on
   Fraction old density DampFac         ....    0.7000
   Max. Damping (<1)    DampMax         ....    0.9800
   Min. Damping (>=0)   DampMin         ....    0.0000
   Turn off err/grad.   DampErr         ....    0.1000

SCF Procedure:
 Maximum # iterations   MaxIter         ....   125
 SCF integral mode      SCFMode         .... Direct
   Integral package                     .... SHARK and LIBINT hybrid scheme
 Reset frequency        DirectResetFreq ....    20
 Integral Threshold     Thresh          ....  1.000e-09 Eh
 Primitive CutOff       TCut            ....  1.000e-10 Eh

Convergence Tolerance:
 Convergence Check Mode ConvCheckMode   .... Total+1el-Energy
 Convergence forced     ConvForced      .... 0
 Energy Change          TolE            ....  1.000e-05 Eh
 1-El. energy change                    ....  1.000e-02 Eh
 Orbital Gradient       TolG            ....  1.000e-04
 Orbital Rotation angle TolX            ....  1.000e-04
 DIIS Error             TolErr          ....  5.000e-04

------------------------------
INITIAL GUESS: MODEL POTENTIAL
------------------------------
Loading Hartree-Fock densities                     ... done
Calculating cut-offs                               ... done
Initializing the effective Hamiltonian             ... done
Setting up the integral package (SHARK)            ... done
Starting the Coulomb interaction                   ... done (   0.2 sec)
Making the grid                                    ... done (   0.2 sec)
Mapping shells                                     ... done
Starting the XC term evaluation                    ... done (   0.2 sec)
  promolecular density results
     # of electrons  =     63.990488427
     EX              =    -50.542943740
     EC              =     -2.106135756
     EX+EC           =    -52.649079496
Transforming the Hamiltonian                       ... done (   0.0 sec)
Diagonalizing the Hamiltonian                      ... done (   0.0 sec)
Back transforming the eigenvectors                 ... done (   0.0 sec)
Now organizing SCF variables                       ... done
                      ------------------
                      INITIAL GUESS DONE (   0.6 sec)
                      ------------------
             **** ENERGY FILE WAS UPDATED (sp.en.tmp) ****
Finished Guess after   0.8 sec
Maximum memory used throughout the entire GUESS-calculation: 16.2 MB

-------------------------------------------------------------------------------------------
                                      ORCA LEAN-SCF
                              memory conserving SCF solver
-------------------------------------------------------------------------------------------

----------------------------------------D-I-I-S--------------------------------------------
Iteration    Energy (Eh)           Delta-E    RMSDP     MaxDP     DIISErr   Damp  Time(sec)
-------------------------------------------------------------------------------------------
               ***  Starting incremental Fock matrix formation  ***
    1    -385.2854147810640484     0.00e+00  4.91e-03  9.89e-02  2.45e-01  0.700   0.8
    2    -385.4103559586945380    -1.25e-01  3.10e-03  4.88e-02  7.61e-02  0.700   0.9
                               ***Turning on AO-DIIS***
    3    -385.4487653020558469    -3.84e-02  1.25e-03  1.39e-02  2.29e-02  0.700   0.8
    4    -385.4737713653051401    -2.50e-02  1.77e-03  2.16e-02  1.43e-02  0.000   0.8
    5    -385.5318520544099670    -5.81e-02  5.59e-04  6.88e-03  8.62e-03  0.000   0.8
                              *** Initializing SOSCF ***
---------------------------------------S-O-S-C-F--------------------------------------
Iteration    Energy (Eh)           Delta-E    RMSDP     MaxDP     MaxGrad    Time(sec)
--------------------------------------------------------------------------------------
    6    -385.5325863860403501    -7.34e-04  2.08e-04  2.52e-03  3.15e-03     0.8
               *** Restarting incremental Fock matrix formation ***
    7    -385.5326408534097595    -5.45e-05  1.61e-04  2.90e-03  6.83e-04     0.8
    8    -385.5326194640893505     2.14e-05  8.91e-05  2.25e-03  2.00e-03     0.8
    9    -385.5326474872711628    -2.80e-05  6.67e-05  1.11e-03  3.10e-04     0.8
   10    -385.5326435392502731     3.95e-06  3.94e-05  7.74e-04  3.36e-04     0.8
                 **** Energy Check signals convergence ****

               *****************************************************
               *                     SUCCESS                       *
               *           SCF CONVERGED AFTER  10 CYCLES          *
               *****************************************************

             **** ENERGY FILE WAS UPDATED (sp.en.tmp) ****

----------------
TOTAL SCF ENERGY
----------------

Total Energy       :       -385.53264353925027 Eh          -10490.87658 eV

Components:
Nuclear Repulsion  :        394.61603610429216 Eh           10738.04825 eV
Electronic Energy  :       -780.14867964354244 Eh          -21228.92483 eV
One Electron Energy:      -1305.63923530262377 Eh          -35528.24981 eV
Two Electron Energy:        525.49055565908134 Eh           14299.32498 eV

Virial components:
Potential Energy   :       -767.93064983962086 Eh          -20896.45534 eV
Kinetic Energy     :        382.39800630037058 Eh           10405.57876 eV
Virial Ratio       :          2.00819731585216

DFT components:
N(Alpha)           :       32.000140377029 electrons
N(Beta)            :       32.000140377029 electrons
N(Total)           :       64.000280754058 electrons
E(X)               :      -51.600005312315 Eh       
E(C)               :       -2.122949308876 Eh       
E(XC)              :      -53.722954621191 Eh       

---------------
SCF CONVERGENCE
---------------

  Last Energy change         ...   -3.9480e-06  Tolerance :   1.0000e-05
  Last MAX-Density change    ...    7.7449e-04  Tolerance :   1.0000e-03
  Last RMS-Density change    ...    3.9449e-05  Tolerance :   1.0000e-04
  Last DIIS Error            ...    3.1518e-03  Tolerance :   5.0000e-04
  Last Orbital Gradient      ...    3.3622e-04  Tolerance :   1.0000e-04
  Last Orbital Rotation      ...    3.1394e-04  Tolerance :   1.0000e-04


----------------
ORBITAL ENERGIES
----------------

  NO   OCC          E(Eh)            E(eV) 
   0   2.0000     -18.797974      -511.5189 
   1   2.0000     -18.729330      -509.6510 
   2   2.0000     -10.003621      -272.2124 
   3   2.0000      -9.945934      -270.6426 
   4   2.0000      -9.895349      -269.2661 
   5   2.0000      -9.891643      -269.1653 
   6   2.0000      -9.889753      -269.1138 
   7   2.0000      -9.877673      -268.7851 
   8   2.0000      -1.003805       -27.3149 
   9   2.0000      -0.906792       -24.6751 
  10   2.0000      -0.727998       -19.8098 
  11   2.0000      -0.699831       -19.0434 
  12   2.0000      -0.636395       -17.3172 
  13   2.0000      -0.585512       -15.9326 
  14   2.0000      -0.531393       -14.4600 
  15   2.0000      -0.502061       -13.6618 
  16   2.0000      -0.446782       -12.1575 
  17   2.0000      -0.445762       -12.1298 
  18   2.0000      -0.417848       -11.3702 
  19   2.0000      -0.398545       -10.8450 
  20   2.0000      -0.387718       -10.5503 
  21   2.0000      -0.368435       -10.0256 
  22   2.0000      -0.362801        -9.8723 
  23   2.0000      -0.352149        -9.5825 
  24   2.0000      -0.344570        -9.3762 
  25   2.0000      -0.325806        -8.8656 
  26   2.0000      -0.307251        -8.3607 
  27   2.0000      -0.298355        -8.1187 
  28   2.0000      -0.296813        -8.0767 
  29   2.0000      -0.288845        -7.8599 
  30   2.0000      -0.254807        -6.9336 
  31   2.0000      -0.215939        -5.8760 
  32   0.0000      -0.019149        -0.5211 
  33   0.0000       0.034275         0.9327 
  34   0.0000       0.054200         1.4749 
  35   0.0000       0.072688         1.9780 
  36   0.0000       0.080475         2.1898 
  37   0.0000       0.090031         2.4499 
  38   0.0000       0.095057         2.5866 
  39   0.0000       0.103208         2.8084 
  40   0.0000       0.104485         2.8432 
  41   0.0000       0.117956         3.2098 
  42   0.0000       0.126189         3.4338 
*Only the first 10 virtual orbitals were printed.

                    ********************************
                    * MULLIKEN POPULATION ANALYSIS *
                    ********************************

-----------------------
MULLIKEN ATOMIC CHARGES
-----------------------
   0 C :   -0.288864
   1 C :   -0.205745
   2 C :   -0.117548
   3 C :    0.087223
   4 O :   -0.212167
   5 O :   -0.237495
   6 C :   -0.029606
   7 C :   -0.280920
   8 H :    0.115783
   9 H :    0.099537
  10 H :    0.107992
  11 H :    0.092908
  12 H :    0.108759
  13 H :    0.091800
  14 H :    0.111554
  15 H :    0.113264
  16 H :    0.103674
  17 H :    0.114235
  18 H :    0.111277
  19 H :    0.114339
Sum of atomic charges:    0.0000000

--------------------------------
MULLIKEN REDUCED ORBITAL CHARGES
--------------------------------
  0 C s       :     3.093107  s :     3.093107
      pz      :     1.067099  p :     3.166488
      px      :     1.072746
      py      :     1.026642
      dz2     :     0.003326  d :     0.029269
      dxz     :     0.006923
      dyz     :     0.007517
      dx2y2   :     0.005998
      dxy     :     0.005506

  1 C s       :     3.081830  s :     3.081830
      pz      :     1.036944  p :     3.086877
      px      :     1.021384
      py      :     1.028549
      dz2     :     0.005608  d :     0.037037
      dxz     :     0.007616
      dyz     :     0.008669
      dx2y2   :     0.009050
      dxy     :     0.006094

  2 C s       :     3.010275  s :     3.010275
      pz      :     1.035508  p :     3.074123
      px      :     1.004594
      py      :     1.034021
      dz2     :     0.006638  d :     0.033150
      dxz     :     0.007559
      dyz     :     0.005574
      dx2y2   :     0.008969
      dxy     :     0.004409

  3 C s       :     3.064660  s :     3.064660
      pz      :     0.925670  p :     2.717238
      px      :     0.929945
      py      :     0.861623
      dz2     :     0.027793  d :     0.130880
      dxz     :     0.043994
      dyz     :     0.021875
      dx2y2   :     0.016966
      dxy     :     0.020252

  4 O s       :     3.747007  s :     3.747007
      pz      :     1.325058  p :     4.447672
      px      :     1.713142
      py      :     1.409473
      dz2     :     0.006512  d :     0.017487
      dxz     :     0.003323
      dyz     :     0.005646
      dx2y2   :     0.001143
      dxy     :     0.000864

  5 O s       :     3.731331  s :     3.731331
      pz      :     1.625759  p :     4.490087
      px      :     1.225111
      py      :     1.639217
      dz2     :     0.002472  d :     0.016077
      dxz     :     0.005441
      dyz     :     0.002265
      dx2y2   :     0.002775
      dxy     :     0.003125

  6 C s       :     3.082618  s :     3.082618
      pz      :     1.023933  p :     2.888361
      px      :     0.797107
      py      :     1.067321
      dz2     :     0.013621  d :     0.058627
      dxz     :     0.012596
      dyz     :     0.004866
      dx2y2   :     0.013386
      dxy     :     0.014157

  7 C s       :     3.091789  s :     3.091789
      pz      :     1.077578  p :     3.161249
      px      :     1.051422
      py      :     1.032249
      dz2     :     0.008558  d :     0.027882
      dxz     :     0.004274
      dyz     :     0.003061
      dx2y2   :     0.006139
      dxy     :     0.005851

  8 H s       :     0.884217  s :     0.884217

  9 H s       :     0.900463  s :     0.900463

 10 H s       :     0.892008  s :     0.892008

 11 H s       :     0.907092  s :     0.907092

 12 H s       :     0.891241  s :     0.891241

 13 H s       :     0.908200  s :     0.908200

 14 H s       :     0.888446  s :     0.888446

 15 H s       :     0.886736  s :     0.886736

 16 H s       :     0.896326  s :     0.896326

 17 H s       :     0.885765  s :     0.885765

 18 H s       :     0.888723  s :     0.888723

 19 H s       :     0.885661  s :     0.885661


------------------------
MULLIKEN OVERLAP CHARGES
------------------------
B(  0-C ,  1-C ) :   0.8779 B(  0-C ,  2-C ) :  -0.1318 B(  0-C ,  8-H ) :   0.7586 
B(  0-C ,  9-H ) :   0.7548 B(  0-C , 10-H ) :   0.7312 B(  0-C , 11-H ) :  -0.0551 
B(  1-C ,  2-C ) :   0.7957 B(  1-C ,  3-C ) :  -0.0519 B(  1-C ,  9-H ) :  -0.0573 
B(  1-C , 11-H ) :   0.7278 B(  1-C , 12-H ) :   0.7035 B(  2-C ,  3-C ) :   0.6157 
B(  2-C ,  4-O ) :  -0.1912 B(  2-C ,  5-O ) :  -0.2384 B(  2-C , 12-H ) :  -0.0601 
B(  2-C , 13-H ) :   0.6115 B(  2-C , 14-H ) :   0.6302 B(  3-C ,  4-O ) :   1.3579 
B(  3-C ,  5-O ) :   0.7170 B(  3-C ,  6-C ) :  -0.0688 B(  4-O ,  5-O ) :  -0.1671 
B(  4-O , 15-H ) :   0.0661 B(  5-O ,  6-C ) :   0.5352 B(  5-O ,  7-C ) :  -0.1084 
B(  5-O , 15-H ) :  -0.0717 B(  5-O , 16-H ) :  -0.0574 B(  6-C ,  7-C ) :   0.8737 
B(  6-C , 15-H ) :   0.7072 B(  6-C , 16-H ) :   0.7474 B(  7-C , 16-H ) :  -0.0545 
B(  7-C , 17-H ) :   0.7488 B(  7-C , 18-H ) :   0.7167 B(  7-C , 19-H ) :   0.7303 
B(  8-H ,  9-H ) :  -0.0506 B( 11-H , 12-H ) :  -0.0590 B( 15-H , 16-H ) :  -0.0755 
B( 17-H , 19-H ) :  -0.0533 


                     *******************************
                     * LOEWDIN POPULATION ANALYSIS *
                     *******************************

----------------------
LOEWDIN ATOMIC CHARGES
----------------------
   0 C :   -0.342843
   1 C :   -0.226285
   2 C :   -0.245949
   3 C :    0.034578
   4 O :   -0.174313
   5 O :   -0.067407
   6 C :   -0.111880
   7 C :   -0.350907
   8 H :    0.119724
   9 H :    0.117661
  10 H :    0.121704
  11 H :    0.118147
  12 H :    0.124648
  13 H :    0.125617
  14 H :    0.140916
  15 H :    0.118725
  16 H :    0.116279
  17 H :    0.125804
  18 H :    0.129925
  19 H :    0.125856

-------------------------------
LOEWDIN REDUCED ORBITAL CHARGES
-------------------------------
  0 C s       :     2.944806  s :     2.944806
      pz      :     1.123388  p :     3.327203
      px      :     1.125357
      py      :     1.078458
      dz2     :     0.008762  d :     0.070833
      dxz     :     0.016904
      dyz     :     0.016748
      dx2y2   :     0.016006
      dxy     :     0.012412

  1 C s       :     2.907040  s :     2.907040
      pz      :     1.098892  p :     3.230230
      px      :     1.064282
      py      :     1.067056
      dz2     :     0.013353  d :     0.089014
      dxz     :     0.018967
      dyz     :     0.019384
      dx2y2   :     0.023192
      dxy     :     0.014117

  2 C s       :     2.917675  s :     2.917675
      pz      :     1.084353  p :     3.244401
      px      :     1.062714
      py      :     1.097334
      dz2     :     0.015192  d :     0.083873
      dxz     :     0.021881
      dyz     :     0.014086
      dx2y2   :     0.021610
      dxy     :     0.011104

  3 C s       :     2.848667  s :     2.848667
      pz      :     0.996755  p :     2.818629
      px      :     0.954405
      py      :     0.867470
      dz2     :     0.062860  d :     0.298126
      dxz     :     0.104758
      dyz     :     0.050807
      dx2y2   :     0.035116
      dxy     :     0.044585

  4 O s       :     3.551684  s :     3.551684
      pz      :     1.444846  p :     4.591802
      px      :     1.713236
      py      :     1.433720
      dz2     :     0.012006  d :     0.030827
      dxz     :     0.005288
      dyz     :     0.010599
      dx2y2   :     0.001673
      dxy     :     0.001262

  5 O s       :     3.451705  s :     3.451705
      pz      :     1.654485  p :     4.582838
      px      :     1.290425
      py      :     1.637928
      dz2     :     0.004118  d :     0.032863
      dxz     :     0.011389
      dyz     :     0.003593
      dx2y2   :     0.006534
      dxy     :     0.007229

  6 C s       :     2.924720  s :     2.924720
      pz      :     1.080572  p :     3.056436
      px      :     0.869085
      py      :     1.106779
      dz2     :     0.032224  d :     0.130724
      dxz     :     0.027070
      dyz     :     0.009476
      dx2y2   :     0.028480
      dxy     :     0.033474

  7 C s       :     2.949931  s :     2.949931
      pz      :     1.128669  p :     3.331851
      px      :     1.112807
      py      :     1.090374
      dz2     :     0.021081  d :     0.069125
      dxz     :     0.010149
      dyz     :     0.007426
      dx2y2   :     0.014751
      dxy     :     0.015717

  8 H s       :     0.880276  s :     0.880276

  9 H s       :     0.882339  s :     0.882339

 10 H s       :     0.878296  s :     0.878296

 11 H s       :     0.881853  s :     0.881853

 12 H s       :     0.875352  s :     0.875352

 13 H s       :     0.874383  s :     0.874383

 14 H s       :     0.859084  s :     0.859084

 15 H s       :     0.881275  s :     0.881275

 16 H s       :     0.883721  s :     0.883721

 17 H s       :     0.874196  s :     0.874196

 18 H s       :     0.870075  s :     0.870075

 19 H s       :     0.874144  s :     0.874144


---------------------------------
LOEWDIN BOND ORDERS (THRESH 0.050000)
---------------------------------
B(  0-C ,  1-C ) :   1.1330 B(  0-C ,  2-C ) :   0.0532 B(  0-C ,  8-H ) :   0.9373 
B(  0-C ,  9-H ) :   0.9402 B(  0-C , 10-H ) :   0.9389 B(  1-C ,  2-C ) :   1.0783 
B(  1-C ,  3-C ) :   0.0632 B(  1-C , 11-H ) :   0.9058 B(  1-C , 12-H ) :   0.9032 
B(  2-C ,  3-C ) :   1.0553 B(  2-C ,  4-O ) :   0.0951 B(  2-C ,  5-O ) :   0.0733 
B(  2-C , 13-H ) :   0.8968 B(  2-C , 14-H ) :   0.8846 B(  3-C ,  4-O ) :   2.1977 
B(  3-C ,  5-O ) :   1.4062 B(  3-C ,  6-C ) :   0.0761 B(  4-O ,  5-O ) :   0.2098 
B(  5-O ,  6-C ) :   1.0648 B(  5-O ,  7-C ) :   0.0559 B(  6-C ,  7-C ) :   1.1563 
B(  6-C , 15-H ) :   0.9048 B(  6-C , 16-H ) :   0.9169 B(  7-C , 17-H ) :   0.9383 
B(  7-C , 18-H ) :   0.9307 B(  7-C , 19-H ) :   0.9371 

------------------------------------------
LOEWDIN REDUCED ORBITAL POPULATIONS PER MO
-------------------------------------------
THRESHOLD FOR PRINTING IS 0.1%%
                      0         1         2         3         4         5   
                 -18.79797 -18.72933 -10.00362  -9.94593  -9.89535  -9.89164
                   2.00000   2.00000   2.00000   2.00000   2.00000   2.00000
                  --------  --------  --------  --------  --------  --------
 0 C  py              0.0       0.0       0.0       0.0       0.0       0.1
 1 C  s               0.0       0.0       0.0       0.0       0.0      99.6
 2 C  s               0.0       0.0       0.0       0.0      99.6       0.0
 3 C  s               0.0       0.0      99.3       0.0       0.0       0.0
 4 O  s               0.0      99.9       0.0       0.0       0.0       0.0
 4 O  pz              0.0       0.0       0.2       0.0       0.0       0.0
 5 O  s              99.9       0.0       0.0       0.0       0.0       0.0
 5 O  px              0.0       0.0       0.1       0.1       0.0       0.0
 6 C  s               0.0       0.0       0.0      99.7       0.0       0.0

                      6         7         8         9        10        11   
                  -9.88975  -9.87767  -1.00380  -0.90679  -0.72800  -0.69983
                   2.00000   2.00000   2.00000   2.00000   2.00000   2.00000
                  --------  --------  --------  --------  --------  --------
 0 C  s               0.0      99.7       0.0       0.0       7.1       6.1
 0 C  py              0.0       0.0       0.0       0.0       1.8       0.9
 1 C  s               0.0       0.0       0.1       0.1      16.1       9.1
 1 C  pz              0.0       0.0       0.0       0.0       0.3       0.0
 1 C  px              0.0       0.0       0.1       0.1       1.5       0.2
 1 C  py              0.0       0.1       0.0       0.0       0.0       0.2
 2 C  s               0.0       0.0       1.0       0.3      18.5       2.3
 2 C  pz              0.0       0.0       0.4       0.5       0.6       0.2
 2 C  px              0.0       0.0       1.4       0.1       0.1       1.9
 2 C  py              0.0       0.0       0.0       0.1       0.6       0.2
 3 C  s               0.0       0.0      18.3       5.5       3.2       0.8
 3 C  pz              0.0       0.0       0.0      16.4       5.2       0.7
 3 C  px              0.0       0.0       4.9       1.6       3.5       1.7
 3 C  py              0.0       0.0       0.4       6.0       0.7       0.4
 3 C  dz2             0.0       0.0       0.0       1.0       0.0       0.0
 3 C  dxz             0.0       0.0       0.2       0.2       0.0       0.1
 3 C  dyz             0.0       0.0       0.5       0.4       0.0       0.0
 3 C  dx2y2           0.0       0.0       0.1       0.1       0.1       0.0
 3 C  dxy             0.0       0.0       0.3       0.2       0.0       0.1
 4 O  s               0.0       0.0      10.4      42.4       1.7       0.1
 4 O  pz              0.0       0.0       2.0       3.7       0.1       0.0
 4 O  py              0.0       0.0       0.6       0.8       0.0       0.0
 5 O  s               0.0       0.0      42.3      14.5       0.0       1.0
 5 O  pz              0.0       0.0       2.2       0.1       0.2       0.1
 5 O  px              0.0       0.0       0.2       0.5       6.0       7.6
 5 O  py              0.0       0.0       0.8       0.1       0.4       1.0
 6 C  s               0.0       0.0       4.7       2.2       6.3      16.5
 6 C  pz              0.0       0.0       0.8       0.6       0.1       0.1
 6 C  px              0.0       0.0       4.7       1.0       0.1       1.4
 6 C  py              0.1       0.0       0.1       0.0       0.2       1.8
 6 C  dxz             0.0       0.0       0.2       0.1       0.0       0.0
 6 C  dx2y2           0.0       0.0       0.2       0.1       0.0       0.0
 7 C  s              99.7       0.0       0.3       0.2       3.7      18.4
 7 C  pz              0.0       0.0       0.0       0.0       0.0       0.1
 7 C  px              0.0       0.0       0.3       0.2       0.2       0.3
 7 C  py              0.0       0.0       0.3       0.2       0.5       1.3
 8 H  s               0.0       0.1       0.0       0.0       1.4       1.1
 9 H  s               0.0       0.1       0.0       0.0       1.4       1.2
10 H  s               0.0       0.1       0.0       0.0       1.1       1.1
11 H  s               0.0       0.0       0.0       0.0       2.8       1.8
12 H  s               0.0       0.0       0.0       0.0       2.7       1.7
13 H  s               0.0       0.0       0.2       0.0       3.7       0.3
14 H  s               0.0       0.0       0.1       0.1       3.2       0.5
15 H  s               0.0       0.0       0.8       0.1       1.1       2.9
16 H  s               0.0       0.0       0.5       0.3       1.1       3.3
17 H  s               0.1       0.0       0.0       0.0       0.7       3.5
18 H  s               0.1       0.0       0.0       0.0       0.6       3.6
19 H  s               0.1       0.0       0.1       0.0       0.7       3.6

                     12        13        14        15        16        17   
                  -0.63639  -0.58551  -0.53139  -0.50206  -0.44678  -0.44576
                   2.00000   2.00000   2.00000   2.00000   2.00000   2.00000
                  --------  --------  --------  --------  --------  --------
 0 C  s              19.2       6.5       6.7       0.8       0.1       0.0
 0 C  pz              0.0       0.1       0.0       0.0       3.2       0.2
 0 C  px              0.1       0.0       1.0       0.3       0.8       1.5
 0 C  py              0.0       0.9       5.9       1.4       1.3       0.0
 0 C  dx2y2           0.0       0.0       0.1       0.0       0.0       0.0
 1 C  s               2.7       1.7      12.6       2.2       0.1       0.2
 1 C  pz              1.2       0.6       0.1       0.3      12.6       0.8
 1 C  px              1.1       0.0       3.6       1.1       2.0       2.2
 1 C  py              6.5       4.0       2.5       0.0       0.2       0.0
 1 C  dx2y2           0.1       0.0       0.0       0.0       0.0       0.0
 2 C  s              12.3       3.6       2.3       1.4       1.4       0.3
 2 C  pz              0.1       0.0       0.9       0.6      21.3       0.1
 2 C  px              2.0       2.8       6.6       0.0       5.0       0.5
 2 C  py              0.7       0.2       0.5       0.5       0.0       2.5
 2 C  dxz             0.1       0.0       0.1       0.0       0.2       0.0
 2 C  dx2y2           0.0       0.0       0.0       0.1       0.1       0.0
 3 C  s               3.0       1.7       0.9       1.3       2.4       0.2
 3 C  pz              3.6       0.8       1.2       0.5       0.0       2.7
 3 C  px              4.1       1.4       2.4       3.4      11.5       0.1
 3 C  py              0.0       1.0       0.2       1.2       0.9       7.6
 3 C  dxz             0.1       0.1       0.1       0.0       0.0       0.1
 4 O  s               0.6       0.1       0.3       1.0       2.0       0.0
 4 O  pz              0.2       0.1       0.2       0.3       1.3       0.9
 4 O  px              0.2       0.1       0.1       1.2       5.5       0.0
 4 O  py              0.0       0.1       0.0       0.6       0.9       2.6
 5 O  s               0.7       0.0       1.3       3.8       0.1       0.2
 5 O  pz              0.2       0.1       0.1       4.7       0.3       9.2
 5 O  px              2.3      16.3       0.2      11.8       0.1       0.5
 5 O  py              0.0       0.6       0.2       5.8       2.9      11.4
 5 O  dxz             0.0       0.2       0.0       0.0       0.0       0.0
 6 C  s               0.2       4.5       5.3       5.0       0.2       0.0
 6 C  pz              0.0       0.1       1.1      13.1       0.6      11.1
 6 C  px              2.2       2.6       0.7       5.8       0.0       6.5
 6 C  py              1.3       4.0       1.9       2.9       0.6       9.4
 6 C  dxz             0.1       0.1       0.0       0.5       0.0       0.0
 7 C  s               7.4      14.1       2.2       0.3       0.2       0.0
 7 C  pz              0.0       0.1       0.5       3.0       0.0       3.9
 7 C  px              0.1       1.1       0.1       0.7       0.9       3.9
 7 C  py              0.0       2.1       2.5       1.6       0.8       1.7
 8 H  s               4.3       2.2       3.7       0.5       0.7       0.2
 9 H  s               4.3       2.0       3.7       0.7       1.8       0.1
10 H  s               5.0       2.2       2.7       0.3       0.1       0.5
11 H  s               0.7       0.7       6.9       1.3       2.1       0.5
12 H  s               0.6       0.6       5.9       1.2       3.6       0.6
13 H  s               2.9       0.6       1.5       0.9       7.5       0.6
14 H  s               3.5       1.8       0.9       1.3       3.0       0.1
15 H  s               0.0       1.1       2.7       8.9       0.1       4.6
16 H  s               0.0       1.7       3.5       5.0       0.0       7.7
17 H  s               1.8       4.7       1.4       0.6       0.1       2.1
18 H  s               2.1       5.5       0.8       0.1       0.6       0.3
19 H  s               1.8       4.3       1.3       1.3       0.1       1.9

                     18        19        20        21        22        23   
                  -0.41785  -0.39855  -0.38772  -0.36844  -0.36280  -0.35215
                   2.00000   2.00000   2.00000   2.00000   2.00000   2.00000
                  --------  --------  --------  --------  --------  --------
 0 C  s               0.3       0.0       0.0       0.0       0.0       0.0
 0 C  pz              3.4       1.7      11.2       2.3       5.5       7.8
 0 C  px              1.7       6.4       8.2       0.6       1.1       8.1
 0 C  py              2.6       0.3       0.1       4.4       3.3       2.6
 0 C  dz2             0.0       0.0       0.0       0.0       0.1       0.1
 0 C  dyz             0.0       0.0       0.0       0.0       0.0       0.1
 1 C  s               0.1       0.0       0.0       0.3       0.0       0.0
 1 C  pz              2.2       1.8       6.5       0.0       2.6       1.3
 1 C  px              2.1       7.4       6.3       1.6       0.1       0.2
 1 C  py              2.1       0.0       3.4       3.2       2.3       4.0
 2 C  s               0.1       0.1       0.4       0.1       0.1       0.3
 2 C  pz              0.3       1.0       0.1       0.7       4.2       6.1
 2 C  px              0.3       2.5       2.6       2.3       2.9       2.5
 2 C  py             21.5       2.4       0.5       2.5       1.8       2.7
 2 C  dz2             0.0       0.0       0.0       0.0       0.0       0.2
 2 C  dxz             0.0       0.0       0.2       0.0       0.0       0.0
 2 C  dxy             0.0       0.0       0.0       0.1       0.0       0.0
 3 C  s               0.5       0.6       2.9       0.0       0.0       0.0
 3 C  pz              0.2       3.6       1.0       2.9       0.4       1.7
 3 C  px              0.4       0.7       1.3       0.5       0.4       0.4
 3 C  py              5.0       0.3       0.9       7.0       0.0       0.6
 3 C  dz2             0.2       0.1       0.0       0.0       0.0       0.1
 3 C  dxz             0.0       0.0       0.0       0.0       0.1       0.1
 3 C  dyz             0.1       0.1       0.0       0.0       0.0       0.0
 3 C  dx2y2           0.1       0.1       0.0       0.0       0.0       0.0
 3 C  dxy             0.1       0.0       0.0       0.2       0.1       0.0
 4 O  s               4.2       6.4       4.4       0.2       0.0       0.8
 4 O  pz              7.6       9.6      14.1       0.1       0.0       1.8
 4 O  px              0.1       0.3       1.1       0.0       1.6       0.2
 4 O  py              0.0       5.7       1.0       7.5       0.1       3.2
 4 O  dz2             0.1       0.1       0.1       0.0       0.0       0.0
 4 O  dyz             0.0       0.1       0.0       0.1       0.0       0.0
 5 O  s               0.4       1.4       0.2       0.1       2.1       0.0
 5 O  pz              5.5       9.2       0.0       3.4       1.0       0.5
 5 O  px              1.5       2.9       0.0       3.8       0.0       2.8
 5 O  py              2.2       3.9       0.7       6.8       1.4       0.7
 6 C  s               0.1       0.3       0.2       0.0       0.2       0.2
 6 C  pz              2.3       1.4       0.4       1.5       0.0       0.1
 6 C  px              4.6       1.1       0.0       2.0       0.7       1.0
 6 C  py              0.2       5.5       2.6       1.4       0.5       0.1
 6 C  dxz             0.0       0.0       0.0       0.1       0.1       0.1
 6 C  dyz             0.0       0.0       0.0       0.1       0.0       0.0
 6 C  dx2y2           0.0       0.1       0.0       0.0       0.1       0.2
 7 C  s               0.1       0.1       0.0       0.0       0.0       0.0
 7 C  pz              0.8       5.4       0.0      10.0      13.6       2.8
 7 C  px              0.2       2.8       4.7       0.1      15.7      13.5
 7 C  py              4.5       1.4       0.9      12.9       2.1       0.0
 7 C  dz2             0.0       0.1       0.0       0.1       0.1       0.0
 7 C  dxz             0.0       0.0       0.0       0.0       0.2       0.1
 7 C  dx2y2           0.0       0.0       0.0       0.0       0.2       0.2
 7 C  dxy             0.0       0.0       0.0       0.1       0.1       0.0
 8 H  s               0.1       0.5       7.9       0.3       0.0       0.5
 9 H  s               0.1       0.6       2.4       0.1       4.8       7.2
10 H  s               3.5       3.3       0.2       2.7       0.5       3.9
11 H  s               0.0       1.1       5.4       0.5       0.2       0.1
12 H  s               1.1       1.2       3.0       0.1       0.3       0.0
13 H  s               2.9       0.1       0.0       0.0       4.1       7.0
14 H  s               8.7       0.4       1.6       2.9       0.7       0.8
15 H  s               0.5       1.2       0.2       0.5       0.3       0.2
16 H  s               2.1       0.5       0.2       0.0       0.3       0.3
17 H  s               2.3       0.0       0.0       7.7       3.2       1.8
18 H  s               0.1       0.3       2.2       1.1      14.5       9.8
19 H  s               0.1       3.4       0.1       4.5       5.9       1.0

                     24        25        26        27        28        29   
                  -0.34457  -0.32581  -0.30725  -0.29835  -0.29681  -0.28885
                   2.00000   2.00000   2.00000   2.00000   2.00000   2.00000
                  --------  --------  --------  --------  --------  --------
 0 C  s               0.0       0.1       0.1       0.3       0.1       0.1
 0 C  pz              2.8       2.5       0.5       2.0      12.8       0.0
 0 C  px              8.7       0.0      14.2       0.1       0.2       3.0
 0 C  py              2.0       6.1       0.3      15.9       3.5       0.3
 0 C  dxz             0.2       0.0       0.3       0.2       0.0       0.1
 0 C  dyz             0.0       0.0       0.0       0.2       0.4       0.0
 0 C  dx2y2           0.0       0.1       0.1       0.0       0.1       0.0
 0 C  dxy             0.0       0.0       0.2       0.0       0.1       0.1
 1 C  s               0.1       0.1       0.1       0.0       0.0       0.1
 1 C  pz              0.1       1.0       0.2       7.2      16.1       0.1
 1 C  px              0.2       0.8      14.1       0.0       0.7       7.3
 1 C  py              0.0       5.1       0.4      16.0       3.0       0.0
 1 C  dz2             0.0       0.0       0.0       0.3       0.0       0.0
 1 C  dxz             0.0       0.0       0.3       0.2       0.0       0.1
 1 C  dyz             0.0       0.0       0.0       0.5       0.3       0.0
 1 C  dx2y2           0.0       0.1       0.2       0.0       0.3       0.2
 1 C  dxy             0.1       0.0       0.2       0.0       0.1       0.1
 2 C  s               0.1       0.0       0.7       0.0       0.3       0.0
 2 C  pz              4.2       0.1       2.2       0.6       6.7       0.1
 2 C  px              1.5       1.1       3.8       0.4       1.8       7.2
 2 C  py              0.0       1.1       0.1       8.9       7.5       0.0
 2 C  dz2             0.0       0.0       0.0       0.3       0.0       0.0
 2 C  dxz             0.1       0.0       0.0       0.2       0.0       0.1
 2 C  dyz             0.0       0.0       0.1       0.2       0.0       0.0
 2 C  dx2y2           0.0       0.0       0.0       0.1       0.3       0.1
 2 C  dxy             0.0       0.0       0.0       0.0       0.2       0.0
 3 C  s               0.1       0.0       0.1       0.0       0.1       0.8
 3 C  pz              1.4       2.5       0.3       0.1       1.1       2.9
 3 C  px              5.4       0.1       1.6       0.3       0.1       0.6
 3 C  py              3.1       3.6       0.8       0.6       1.0       1.1
 3 C  dz2             0.0       0.2       0.1       0.0       0.2       0.1
 3 C  dxz             0.0       0.1       0.0       0.0       0.0       0.1
 3 C  dyz             0.1       0.0       0.0       0.0       0.1       0.3
 3 C  dx2y2           0.1       0.0       0.2       0.0       0.0       0.1
 3 C  dxy             0.0       0.0       0.0       0.1       0.1       0.0
 4 O  s               1.4       0.3       0.3       0.0       0.1       0.9
 4 O  pz             12.0       0.1       2.0       0.9       0.2       7.2
 4 O  px              1.8       1.4       1.2       0.6       0.1       0.1
 4 O  py              0.1       8.9       0.0       0.5       6.4       0.4
 5 O  s               0.0       0.2       0.3       0.2       0.0       3.5
 5 O  pz              1.9       3.4       3.3       0.0       0.0      24.5
 5 O  px              0.3       0.2       0.1       0.6       0.2       1.9
 5 O  py              0.4       0.0       3.0       1.3       1.5       3.0
 5 O  dx2y2           0.0       0.0       0.0       0.0       0.0       0.1
 6 C  s               0.0       0.0       0.0       0.0       0.0       0.3
 6 C  pz              2.1       2.0       5.5       0.1       0.5       9.3
 6 C  px              3.3       2.5       1.2       0.4       0.4       0.5
 6 C  py              9.9       6.5       1.1       0.9       0.9       0.4
 6 C  dz2             0.1       0.1       0.3       0.0       0.0       0.6
 6 C  dyz             0.0       0.1       0.0       0.0       0.0       0.0
 6 C  dx2y2           0.1       0.2       0.0       0.0       0.0       0.0
 6 C  dxy             0.1       0.2       0.1       0.1       0.1       0.1
 7 C  s               0.1       0.0       0.2       0.0       0.0       0.2
 7 C  pz              5.6       4.9       3.1       0.0       0.2       2.2
 7 C  px              4.3       3.5       2.6       0.0       0.0       0.2
 7 C  py              7.8       9.2       1.2       0.7       0.6       0.7
 7 C  dz2             0.1       0.2       0.1       0.0       0.0       0.1
 7 C  dx2y2           0.0       0.1       0.0       0.0       0.0       0.0
 7 C  dxy             0.1       0.2       0.0       0.0       0.0       0.0
 8 H  s               5.3       0.8       8.9       1.3       1.8       2.1
 9 H  s               1.3       0.1       0.0       6.8       5.6       0.0
10 H  s               2.5       1.9       4.5       0.8       6.0       1.1
11 H  s               0.1       1.1       9.6       1.4       2.2       5.1
12 H  s               0.1       0.0       0.2      14.0       6.4       0.0
13 H  s               1.2       0.4       1.1       5.8       1.1       0.2
14 H  s               0.1       0.4       0.4       6.6       5.4       0.4
15 H  s               2.0       1.7       4.8       0.1       0.4       7.2
16 H  s               0.7       8.3       0.1       1.2       1.5       0.0
17 H  s               0.1      11.3       0.4       0.5       0.6       0.0
18 H  s               0.5       0.3       0.3       0.0       0.0       0.2
19 H  s               3.9       4.2       2.6       0.1       0.3       2.2

                     30        31        32        33        34        35   
                  -0.25481  -0.21594  -0.01915   0.03427   0.05420   0.07269
                   2.00000   2.00000   0.00000   0.00000   0.00000   0.00000
                  --------  --------  --------  --------  --------  --------
 0 C  s               0.0       0.0       0.2       6.8       3.4       6.1
 0 C  pz              0.0       0.0       0.1       0.1       0.2       0.0
 0 C  px              0.0       0.0       0.1       0.6       0.6       0.9
 0 C  py              0.0       0.1       0.2       1.0       1.6       0.7
 0 C  dxy             0.0       0.0       0.0       0.1       0.2       0.1
 1 C  s               0.0       0.0       2.0       1.4       4.7       0.4
 1 C  pz              0.1       0.0       1.1       0.1       0.0       0.0
 1 C  px              0.1       0.3       0.8       0.8       3.7       0.6
 1 C  py              0.1       0.1       0.3       0.2       0.1       0.4
 1 C  dxz             0.0       0.0       0.0       0.0       0.1       0.0
 1 C  dxy             0.0       0.0       0.0       0.0       0.0       0.4
 2 C  s               0.0       0.6       0.1       1.6       4.2       3.1
 2 C  pz              0.0       3.1       0.1       0.5       1.8       0.0
 2 C  px              0.1       3.6       0.3       0.1       0.1       0.2
 2 C  py              0.2       0.1       0.4       0.1       0.4       2.2
 2 C  dxz             0.0       0.0       0.3       0.0       0.0       0.0
 2 C  dyz             0.0       0.0       0.1       0.0       0.0       0.1
 2 C  dx2y2           0.0       0.0       0.3       0.0       0.1       0.0
 2 C  dxy             0.0       0.0       1.3       0.0       0.0       0.0
 3 C  s               0.0       0.4       0.0       1.2       0.2       0.2
 3 C  pz              0.1       0.4       8.8       0.6       0.3       0.1
 3 C  px              0.1       0.9       3.2       0.3       0.3       0.3
 3 C  py              0.5       0.2      33.2       0.4       2.0       0.6
 3 C  dz2             0.9       0.0       0.5       0.1       0.0       0.0
 3 C  dxz             0.2       3.4       0.0       0.0       0.0       0.0
 3 C  dyz             0.6       0.2       0.4       0.3       0.0       0.0
 3 C  dx2y2           0.7       0.0       0.0       0.0       0.0       0.1
 3 C  dxy             0.1       0.9       0.3       0.0       0.0       0.2
 4 O  s               0.0       0.0       0.0       0.6       0.1       0.0
 4 O  pz              7.1       0.2       4.6       0.1       0.3       0.0
 4 O  px              1.6      68.4       1.8       0.1       0.1       0.1
 4 O  py             28.0       4.4      18.1       0.0       0.9       0.1
 4 O  dz2             0.0       0.0       0.2       0.0       0.0       0.0
 4 O  dyz             0.0       0.0       0.2       0.0       0.0       0.0
 5 O  s               0.0       0.3       0.0       0.7       0.1       1.1
 5 O  pz              9.2       3.6       2.1       0.1       0.0       0.2
 5 O  px              3.5       1.1       0.8       0.1       0.2       0.2
 5 O  py             30.8       3.0       7.8       0.1       0.6       0.0
 5 O  dx2y2           0.0       0.0       0.2       0.0       0.0       0.0
 5 O  dxy             0.0       0.0       0.2       0.0       0.0       0.0
 6 C  s               0.0       0.2       0.0       4.5       2.3       1.2
 6 C  pz              0.7       0.7       0.0       0.9       0.2       0.2
 6 C  px              0.4       0.3       0.0       0.7       0.2       6.1
 6 C  py              3.1       0.1       0.1       1.2       0.8       2.4
 6 C  dz2             0.3       0.0       0.1       0.0       0.1       0.0
 6 C  dx2y2           0.0       0.0       0.0       0.0       0.1       0.7
 6 C  dxy             0.7       0.0       0.3       0.1       0.0       0.1
 7 C  s               0.1       0.0       0.1       9.0       7.1       0.0
 7 C  pz              0.0       0.1       0.1       0.0       0.1       0.6
 7 C  px              0.2       0.1       0.0       0.2       0.6       4.1
 7 C  py              1.3       0.0       0.0       2.0       0.6       1.2
 7 C  dyz             0.0       0.0       0.0       0.1       0.0       0.0
 7 C  dx2y2           0.0       0.0       0.0       0.1       0.0       0.6
 7 C  dxy             0.0       0.0       0.0       0.0       0.0       0.1
 8 H  s               0.0       0.0       0.1       9.6       0.0       8.7
 9 H  s               0.0       0.0       0.1       4.9       5.3       5.9
10 H  s               0.1       0.0       0.1       3.5       6.4       1.8
11 H  s               0.2       0.3       1.5       2.1      11.9       1.7
12 H  s               0.1       0.3       0.1       1.7       4.0       0.2
13 H  s               0.1       1.2       0.1       3.2       6.0       0.1
14 H  s               0.0       0.0       4.7       1.6       6.3      11.8
15 H  s               1.9       0.4       0.2       6.2       2.8       0.0
16 H  s               5.6       0.0       1.4       7.4       2.8      16.3
17 H  s               0.6       0.0       0.0      10.4       3.8      11.9
18 H  s               0.2       0.2       0.2       6.8       6.3       4.0
19 H  s               0.2       0.2       0.0       5.0       5.2       1.3

                     36        37        38        39        40        41   
                   0.08048   0.09003   0.09506   0.10321   0.10448   0.11796
                   0.00000   0.00000   0.00000   0.00000   0.00000   0.00000
                  --------  --------  --------  --------  --------  --------
 0 C  s               0.4       0.3       2.9       0.1       4.2       1.5
 0 C  pz              6.2       0.9       0.2       1.0       0.1       0.1
 0 C  px              0.0       3.9       0.9       1.4       1.1       5.3
 0 C  py              0.2       0.0       0.4       0.5       0.9       0.9
 0 C  dz2             0.0       0.0       0.0       0.0       0.0       0.5
 0 C  dxz             0.0       0.1       0.0       0.1       0.1       0.4
 0 C  dyz             0.3       0.1       0.0       0.2       0.0       0.0
 0 C  dx2y2           0.1       0.0       0.0       0.0       0.0       0.3
 0 C  dxy             0.0       0.1       0.0       0.0       0.0       0.0
 1 C  s               0.2       2.8       0.8       0.7       2.0       8.7
 1 C  pz              3.7       0.1       0.1       1.2       0.1       4.5
 1 C  px              0.1       1.5       0.0       0.6       0.7       0.0
 1 C  py              0.5       0.4       0.8       0.0       0.0       0.4
 1 C  dz2             0.1       0.0       0.0       0.0       0.0       0.1
 1 C  dxz             0.3       0.0       0.0       0.0       0.1       0.0
 1 C  dyz             0.4       0.1       0.0       0.2       0.0       0.0
 1 C  dx2y2           0.0       0.1       0.1       0.0       0.0       0.7
 1 C  dxy             0.1       0.2       0.1       0.0       0.0       0.3
 2 C  s               0.4       0.7       6.0       1.5       0.2       0.4
 2 C  pz              5.0       0.6       0.6       0.3       0.5       0.1
 2 C  px              0.1       1.3       0.2       0.5       0.3       2.3
 2 C  py              2.4       1.9       1.5       1.0       0.3       2.1
 2 C  dz2             0.4       0.1       0.1       0.0       0.2       0.0
 2 C  dxz             0.1       0.0       0.1       0.0       0.0       0.4
 2 C  dyz             0.1       0.1       0.0       0.0       0.1       0.4
 2 C  dx2y2           0.0       0.2       0.0       0.0       0.0       0.1
 3 C  s               1.0       0.8       0.1       0.5       0.0       0.4
 3 C  pz              0.4       0.4       0.4       0.1       0.8       0.7
 3 C  px              0.3       0.4       0.5       0.4       0.3       0.2
 3 C  py              0.1       0.3       0.0       0.0       0.9       0.0
 3 C  dz2             0.1       0.0       0.0       0.0       0.4       0.0
 3 C  dxz             0.0       0.2       0.0       0.0       0.0       0.0
 3 C  dx2y2           0.5       0.1       0.2       0.0       0.2       0.0
 3 C  dxy             0.2       0.0       0.1       0.0       0.1       0.0
 4 O  s               0.3       0.3       0.0       0.1       0.5       0.2
 4 O  pz              0.2       0.0       0.0       0.1       0.1       0.0
 4 O  px              0.3       0.2       0.1       0.1       0.1       0.9
 4 O  py              0.1       0.4       0.1       0.0       0.0       0.1
 5 O  s               1.1       2.2       1.8       0.0       3.3       0.3
 5 O  pz              1.3       0.9       0.1       0.0       1.7       0.2
 5 O  px              0.2       1.6       0.7       0.4       2.1       0.6
 5 O  py              0.1       0.0       0.1       0.1       0.0       0.0
 5 O  dxz             0.0       0.1       0.0       0.0       0.2       0.0
 5 O  dx2y2           0.1       0.1       0.2       0.0       0.2       0.0
 6 C  s               0.0       0.5       6.1       0.0       8.6       1.5
 6 C  pz              2.8       2.3       2.8       1.6       1.8       0.1
 6 C  px              2.0      10.1       0.6       0.3       8.9       0.9
 6 C  py              0.1       0.1       2.6       0.5       0.0       0.3
 6 C  dz2             0.2       0.0       0.3       0.2       0.0       0.0
 6 C  dxz             0.4       1.0       0.2       0.0       0.4       0.0
 6 C  dyz             0.1       0.0       0.1       0.5       0.0       0.0
 6 C  dx2y2           0.2       0.9       0.0       0.0       1.1       0.2
 7 C  s               1.5       5.9       3.2       0.1       1.3       0.2
 7 C  pz              2.2       0.8       1.8       8.4       1.5       1.2
 7 C  px              0.2       0.1       0.0       8.6       1.3       0.9
 7 C  py              0.0       0.2       1.2       0.1       0.5       0.4
 7 C  dz2             0.2       0.1       0.4       0.3       0.0       0.0
 7 C  dxz             0.0       0.0       0.1       0.7       0.0       0.0
 7 C  dyz             0.1       0.2       0.0       0.0       0.0       0.0
 7 C  dx2y2           0.0       0.4       0.0       0.1       0.2       0.0
 7 C  dxy             0.0       0.0       0.0       0.0       0.5       0.1
 8 H  s               6.0       3.4       0.2       3.4       0.3       1.8
 9 H  s               7.7       4.5       0.8       2.4       2.4       0.1
10 H  s               3.0       4.6       6.6       1.1      10.6      12.8
11 H  s               2.4       5.6       1.0       5.2       5.2       0.8
12 H  s              10.5       5.5       0.9       0.3       0.7      26.0
13 H  s              17.1       7.9       3.4       0.7       1.2       1.2
14 H  s               1.7       1.3      13.4       5.9       0.8       8.3
15 H  s               3.7       2.2       0.3       2.4      17.1       0.8
16 H  s               0.1       4.2      20.1       1.7       0.7       2.0
17 H  s               0.0       2.5       8.6       1.8       1.9       2.1
18 H  s               0.5       2.2       5.1      30.9       3.8       0.9
19 H  s               9.8       9.7       0.7      11.1       7.1       3.9

                     42        43        44        45        46        47   
                   0.12619   0.13354   0.13636   0.14700   0.17971   0.19026
                   0.00000   0.00000   0.00000   0.00000   0.00000   0.00000
                  --------  --------  --------  --------  --------  --------
 0 C  s               1.0       0.4       0.7       1.9       0.0       0.9
 0 C  pz              0.2       4.9       7.6       4.1       0.1       2.1
 0 C  px              0.2       4.5       0.0       5.7       0.1       1.7
 0 C  py              0.0       0.8       0.1       2.7       0.9      15.0
 0 C  dz2             0.1       0.1       0.1       0.3       0.1       0.3
 0 C  dxz             0.0       0.1       0.0       0.9       0.0       0.0
 0 C  dyz             0.3       0.1       0.2       0.0       0.0       0.6
 0 C  dx2y2           0.0       0.3       0.4       0.1       0.0       3.9
 0 C  dxy             0.2       0.1       0.1       0.0       0.2       0.0
 1 C  s               0.8       0.1       0.2       2.1       0.3       6.5
 1 C  pz              5.4       0.1       0.1       2.0       1.5       3.1
 1 C  px              6.4       0.0       0.0       3.6       1.9      12.0
 1 C  py              0.7       1.2       0.3       0.3       1.1       8.1
 1 C  dz2             0.0       0.3       0.4       0.0       0.2       2.0
 1 C  dxz             0.3       0.1       0.0       0.4       0.4       1.6
 1 C  dyz             0.1       0.1       0.3       0.3       0.0       0.8
 1 C  dx2y2           0.0       0.2       0.1       0.1       0.4       0.6
 1 C  dxy             0.0       0.1       0.0       0.2       0.3       0.0
 2 C  s               0.8       0.8       0.1       0.5       2.5       1.5
 2 C  pz              2.8       0.6       2.7       0.6       3.5       3.4
 2 C  px              0.3       0.3       0.5       0.8       0.1       2.3
 2 C  py              0.8       5.2       2.6       1.2       2.1       4.2
 2 C  dz2             0.2       0.1       0.2       0.2       0.0       0.1
[...]
 2 C  s               0.3       0.0       0.0       0.0       0.1       0.3
 2 C  pz              0.2       0.1       0.0       0.0       0.1       0.0
 2 C  px              1.3       0.8       0.0       0.0       0.1       0.2
 2 C  py              0.8       0.0       0.0       0.0       0.0       0.0
 2 C  dz2             0.0       0.1       0.0       0.8       1.5       0.5
 2 C  dxz             7.3       3.0       0.0       0.1       1.5       0.2
 2 C  dyz             1.4       1.3       0.1       0.2       0.8       0.1
 2 C  dx2y2           0.1       0.4       0.0       0.1       0.1       0.7
 2 C  dxy             6.2       1.1       0.4       0.4       0.2       0.1
 3 C  s               0.7       0.1       0.0       0.1       0.3       1.0
 3 C  pz              0.0       0.2       0.0       0.2       0.2       1.1
 3 C  px              0.4       0.5       0.0       0.1       0.3       1.4
 3 C  py              0.1       0.1       0.1       0.9       0.0       0.7
 3 C  dz2             0.0       0.0       0.3       0.5       4.1       0.5
 3 C  dxz             0.2       0.4       0.3       2.2       0.1       4.5
 3 C  dyz             0.1       0.8       0.1       0.4       0.6       0.6
 3 C  dx2y2           0.0       2.1       0.1       4.1       3.8       0.6
 3 C  dxy             0.2       0.2       0.8       6.3       3.4       0.1
 4 O  s               0.0       0.0       0.1       0.0       1.2       0.4
 4 O  pz              0.0       0.0       0.1       0.1       0.3       0.4
 4 O  px              0.0       0.0       0.0       0.0       0.3       0.5
 4 O  py              0.0       0.0       0.0       0.2       0.1       0.0
 4 O  dz2             0.0       3.3       2.7       6.1       0.0       1.4
 4 O  dxz             2.7       1.1       0.4       3.3      12.0      20.4
 4 O  dyz             0.3       9.7       1.4       1.6       1.4       0.1
 4 O  dx2y2           0.6      41.3       0.6       9.6       1.9       0.1
 4 O  dxy            27.2      11.7       4.4       3.4       0.0       5.7
 5 O  s               0.0       0.2       0.0       0.0       0.6       7.5
 5 O  pz              0.1       0.4       0.2       0.0       1.4       0.7
 5 O  px              0.0       0.1       0.0       0.3       1.2       0.2
 5 O  py              0.1       0.2       0.8       0.4       0.1       0.2
 5 O  dz2             2.1       3.9      25.0       6.4      18.3       0.9
 5 O  dxz             0.4       0.5       0.9      13.9       6.8       0.0
 5 O  dyz             2.0       2.9      19.2       6.8      21.3       6.9
 5 O  dx2y2           0.7       0.2       0.3      17.6       4.3      23.7
 5 O  dxy             0.2       1.0      26.4      12.4       0.4      13.1
 6 C  s               0.0       0.2       0.0       0.0       0.8       0.3
 6 C  pz              0.0       0.0       0.1       0.0       0.1       0.2
 6 C  px              0.0       0.2       0.3       0.0       0.5       0.6
 6 C  py              0.0       0.2       0.2       0.0       0.0       0.0
 6 C  dz2             0.0       1.1       0.2       0.6       1.5       0.2
 6 C  dxz             0.2       0.4       0.5       0.0       0.0       2.1
 6 C  dyz             0.1       0.3       1.5       0.2       0.2       0.0
 6 C  dx2y2           0.0       0.0       1.9       0.0       2.8       1.2
 6 C  dxy             0.2       1.2       8.2       0.0       3.3       0.0
 7 C  s               0.0       0.2       0.0       0.0       0.0       0.0
 7 C  py              0.0       0.2       0.1       0.0       0.0       0.0
 7 C  dz2             0.0       0.1       0.1       0.0       0.0       0.0
 7 C  dyz             0.0       0.3       0.7       0.0       0.3       0.0
 7 C  dx2y2           0.0       0.5       0.6       0.0       0.8       0.0
 7 C  dxy             0.0       0.3       0.2       0.0       0.2       0.0
10 H  s               0.2       0.0       0.0       0.0       0.0       0.0
14 H  s               0.2       0.0       0.0       0.0       0.0       0.0

                    132       133       134       135   
                   3.11794   3.32541   3.49153   3.56010
                   0.00000   0.00000   0.00000   0.00000
                  --------  --------  --------  --------
 2 C  s               0.0       0.2       0.1       0.0
 2 C  pz              0.0       0.1       0.0       0.1
 2 C  px              0.0       0.1       0.3       0.1
 2 C  dz2             0.0       0.1       0.5       0.1
 2 C  dxz             0.2       0.5       0.2       0.4
 2 C  dx2y2           0.4       0.0       0.9       0.0
 2 C  dxy             0.4       0.1       0.1       0.1
 3 C  s               0.0       3.8       0.1       6.1
 3 C  pz              0.1       0.3       2.4       3.1
 3 C  px              0.0       1.3       0.8       0.2
 3 C  py              0.4       0.0       1.2       0.6
 3 C  dz2             9.3       1.4       1.4       4.0
 3 C  dxz             1.3       1.8      12.8       2.5
 3 C  dyz             5.8       0.5       0.4       5.7
 3 C  dx2y2           4.3       2.8       0.0       1.1
 3 C  dxy             0.0       0.1       4.7       0.4
 4 O  s               0.0       1.7       1.1       3.9
 4 O  pz              0.2       0.5       0.6       2.5
 4 O  px              0.1       0.1       0.4       0.3
 4 O  py              0.7       0.2       0.3       0.4
 4 O  dz2            28.8       4.5       4.2      24.5
 4 O  dxz             1.2       3.8      11.0       8.0
 4 O  dyz            21.0       9.5       9.4      16.4
 4 O  dx2y2           6.3       0.6       2.2       0.6
 4 O  dxy             2.5       1.3       2.0       1.9
 5 O  s               0.0       0.1       0.8       0.5
 5 O  pz              0.0       0.1       0.1       0.1
 5 O  px              0.0       2.4       3.0       0.1
 5 O  py              0.0       0.4       0.5       0.0
 5 O  dz2             0.1       4.7       2.6       4.9
 5 O  dxz             2.5      28.1      19.1       0.0
 5 O  dyz             0.1       7.0       1.7       0.4
 5 O  dx2y2           4.2      12.0       0.9       6.8
 5 O  dxy             8.9       0.6      11.8       2.9
 6 C  s               0.0       0.8       0.2       0.0
 6 C  pz              0.0       0.4       0.0       0.1
 6 C  px              0.0       1.4       0.2       0.1
 6 C  dz2             0.2       0.1       0.5       0.1
 6 C  dxz             0.0       3.5       0.0       0.6
 6 C  dyz             0.2       0.1       0.2       0.0
 6 C  dx2y2           0.0       2.5       0.6       0.1
 6 C  dxy             0.5       0.0       0.2       0.1
 7 C  dxy             0.0       0.1       0.1       0.0


                      *****************************
                      * MAYER POPULATION ANALYSIS *
                      *****************************

  NA   - Mulliken gross atomic population
  ZA   - Total nuclear charge
  QA   - Mulliken gross atomic charge
  VA   - Mayer's total valence
  BVA  - Mayer's bonded valence
  FA   - Mayer's free valence

  ATOM       NA         ZA         QA         VA         BVA        FA
  0 C      6.2889     6.0000    -0.2889     4.0129     4.0129     0.0000
  1 C      6.2057     6.0000    -0.2057     4.1744     4.1744    -0.0000
  2 C      6.1175     6.0000    -0.1175     3.9336     3.9336    -0.0000
  3 C      5.9128     6.0000     0.0872     4.4131     4.4131     0.0000
  4 O      8.2122     8.0000    -0.2122     2.2855     2.2855    -0.0000
  5 O      8.2375     8.0000    -0.2375     2.2604     2.2604     0.0000
  6 C      6.0296     6.0000    -0.0296     4.0079     4.0079     0.0000
  7 C      6.2809     6.0000    -0.2809     4.0059     4.0059    -0.0000
  8 H      0.8842     1.0000     0.1158     0.9569     0.9569     0.0000
  9 H      0.9005     1.0000     0.0995     0.9564     0.9564     0.0000
 10 H      0.8920     1.0000     0.1080     0.9502     0.9502    -0.0000
 11 H      0.9071     1.0000     0.0929     0.9418     0.9418    -0.0000
 12 H      0.8912     1.0000     0.1088     0.9591     0.9591     0.0000
 13 H      0.9082     1.0000     0.0918     0.9741     0.9741    -0.0000
 14 H      0.8884     1.0000     0.1116     0.9539     0.9539    -0.0000
 15 H      0.8867     1.0000     0.1133     0.9829     0.9829     0.0000
 16 H      0.8963     1.0000     0.1037     0.9495     0.9495    -0.0000
 17 H      0.8858     1.0000     0.1142     0.9595     0.9595    -0.0000
 18 H      0.8887     1.0000     0.1113     0.9549     0.9549    -0.0000
 19 H      0.8857     1.0000     0.1143     0.9569     0.9569     0.0000

  Mayer bond orders larger than 0.100000
B(  0-C ,  1-C ) :   1.1542 B(  0-C ,  8-H ) :   0.9483 B(  0-C ,  9-H ) :   0.9538 
B(  0-C , 10-H ) :   0.9516 B(  1-C ,  2-C ) :   1.1124 B(  1-C , 11-H ) :   0.9287 
B(  1-C , 12-H ) :   0.9209 B(  2-C ,  3-C ) :   1.0173 B(  2-C , 13-H ) :   0.9101 
B(  2-C , 14-H ) :   0.8956 B(  3-C ,  4-O ) :   2.0508 B(  3-C ,  5-O ) :   1.2128 
B(  5-O ,  6-C ) :   0.9128 B(  6-C ,  7-C ) :   1.1574 B(  6-C , 15-H ) :   0.9159 
B(  6-C , 16-H ) :   0.9362 B(  7-C , 17-H ) :   0.9521 B(  7-C , 18-H ) :   0.9447 
B(  7-C , 19-H ) :   0.9487 

-------
TIMINGS
-------

Total SCF time: 0 days 0 hours 0 min 8 sec 

Total time                  ....       8.354 sec
Sum of individual times     ....       7.894 sec  ( 94.5%)

SCF preparation             ....       0.172 sec  (  2.1%)
Fock matrix formation       ....       6.880 sec  ( 82.4%)
  Startup                   ....       0.054 sec  (  0.8% of F)
  Split-RI-J                ....       2.536 sec  ( 36.9% of F)
  XC integration            ....       3.803 sec  ( 55.3% of F)
    XC Preparation          ....       0.000 sec  (  0.0% of XC)
    Basis function eval.    ....       1.390 sec  ( 36.6% of XC)
    Density eval.           ....       0.482 sec  ( 12.7% of XC)
    XC-Functional eval.     ....       0.363 sec  (  9.5% of XC)
    XC-Potential eval.      ....       0.741 sec  ( 19.5% of XC)
Diagonalization             ....       0.000 sec  (  0.0%)
Density matrix formation    ....       0.176 sec  (  2.1%)
Total Energy calculation    ....       0.045 sec  (  0.5%)
Population analysis         ....       0.085 sec  (  1.0%)
Orbital Transformation      ....       0.046 sec  (  0.5%)
Orbital Orthonormalization  ....       0.000 sec  (  0.0%)
DIIS solution               ....       0.332 sec  (  4.0%)
  MO trafo                  ....       0.000 sec  (  0.0 % of DIIS)
  Orb grad                  ....       0.000 sec  (  0.0 % of DIIS)
  Energy W gradient         ....       0.000 sec  (  0.0 % of DIIS)
  DIIS error                ....       0.005 sec  (  1.6 % of DIIS)
  DIIS work                 ....       0.288 sec  ( 86.8 % of DIIS)
  Form Q                    ....       0.000 sec  (  0.0 % of DIIS)
  Form QpQm                 ....       0.000 sec  (  0.0 % of DIIS)
  Exp/Cayley                ....       0.000 sec  (  0.0 % of DIIS)
  Orb update                ....       0.000 sec  (  0.0 % of DIIS)
  Wake-sleep                ....       0.015 sec  (  4.5 % of DIIS)
SOSCF solution              ....       0.158 sec  (  1.9%)
  MO trafo                  ....       0.054 sec  ( 34.4 % of SOSCF)
  Orb grad                  ....       0.003 sec  (  1.7 % of SOSCF)
  Rot update                ....       0.065 sec  ( 41.3 % of SOSCF)
  Step                      ....       0.036 sec  ( 22.6 % of SOSCF)
Finished LeanSCF after   8.4 sec

Maximum memory used throughout the entire LEANSCF-calculation: 12.8 MB


-------------------------------------------------------------------------------
                          DFT DISPERSION CORRECTION                            
                                                                               
                                DFTD4 V3.4.0                                   
-------------------------------------------------------------------------------
The PBE functional is recognized
Active option DFTDOPT                   ...         5   

-------------------------   ----------------
Dispersion correction           -0.015008124
-------------------------   ----------------

------------------   -----------------
gCP correction             0.089936222
------------------   -----------------

-------------------------   --------------------
FINAL SINGLE POINT ENERGY      -385.457715441445
-------------------------   --------------------


------------------------------------------------------------------------------
                              ORCA PROPERTY CALCULATIONS
------------------------------------------------------------------------------

GBWName                                 ... sp.gbw
Number of atoms                         ...     20
Number of basis functions               ...    136
Max core memory                         ...   1024 MB

Electric properties:
Dipole moment                           ... YES
Quadrupole moment                       ...  NO
Static polarizability (Dipole/Dipole)   ...  NO
Static polarizability (Dipole/Quad.)    ...  NO
Static polarizability (Quad./Quad.)     ...  NO
Static polarizability (Velocity)        ...  NO

Atomic electric properties:
Dipole moment                           ...  NO
Quadrupole moment                       ...  NO
Static polarizability                   ...  NO

Choice of electric origin               ... Center of mass
Position of electric origin             ...    -0.000008    -0.000020     0.000007

General magnetic properties:
Magnetizability                         ...  NO

EPR properties:
g-Tensor (aka g-matrix)                 ...  NO
Zero-Field splitting spin-orbit         ...  NO
Zero-field splitting spin-spin          ...  NO
Hyperfine couplings                     ...  NO (   0 nuclei)
Quadrupole couplings                    ...  NO (   0 nuclei)
Contact density                         ...  NO (   0 nuclei)

NMR properties:
Chemical shifts                         ...  NO (   0 nuclei)
Spin-rotation constants                 ...  NO (   0 nuclei)
Spin-spin couplings                     ...  NO (   0 nuclei,    0 pairs)

Choice of magnetic origin               ... GIAO
Position of magnetic origin             ...     0.000000     0.000000     0.000000

Properties with geometric perturbations:
SCF Hessian                             ...  NO
IR spectrum                             ...  NO
VCD spectrum                            ...  NO
X-ray spectroscopy properties:
SCF XES/XAS/RIXS spectra                ...  NO


-------------
DIPOLE MOMENT
-------------

Method             : SCF
Type of density    : Electron Density
Multiplicity       :   1
Irrep              :   0
Energy             :  -385.5326435392502731 Eh
Relativity type    : 
Basis              : AO
                                X                 Y                 Z
Electronic contribution:      1.417866092       5.835452479      -0.975903921
Nuclear contribution   :     -1.169888985      -6.286967221       1.507539498
                        -----------------------------------------
Total Dipole Moment    :      0.247977108      -0.451514743       0.531635577
                        -----------------------------------------
Magnitude (a.u.)       :      0.740266571
Magnitude (Debye)      :      1.881608089



--------------------
Rotational spectrum 
--------------------
 
Rotational constants in cm-1:             0.113066             0.038054             0.033145 
Rotational constants in MHz :          3389.621945          1140.837275           993.651921 

Dipole components along the rotational axes: 
x,y,z [a.u.] :     0.290445    -0.542903     0.410965 
x,y,z [Debye]:     0.738253    -1.379950     1.044591 

 

Dipole moment calculation done in   0.0 sec 

Maximum memory used throughout the entire PROP-calculation: 8.0 MB

--------------------------------
SUGGESTED CITATIONS FOR THIS RUN
--------------------------------

Below you find a list of papers that are relevant to this ORCA run
We neither can nor want to force you to cite these papers, but we appreciate if you do
You receive ORCA, which is the product of decades of hard work by many enthusiastic individuals, for free
The only thing we kindly ask in return is that you cite our papers,
We deeply appreciate it, if you show your appreciation for ORCA by not just citing the generic ORCA reference.

Please note that relegating all ORCA citations to the supporting information does *not* help us.
SI sections are not indexed - citations you put there will not count into any citation statistics
But we need these citations in order to attract the funding resources that allow us to do what we are doing

Therefore, if you are a happy ORCA user, please consider citing a few of the papers listed below in the main body of your paper

In addition to the list printed below, the program has created the file sp.bibtex that contains the list in bibtex format
You can import this file easily into all common literature databanks and citation aid programs


List of essential papers. We consider these as the minimum necessary citations

  1. Neese,F.
     Software update: the ORCA program system, version 5.0
     WIRES Comput. Molec. Sci., 2022 12(1)e1606
     doi.org/10.1002/wcms.1606

List of papers to cite with high priority. The work reported in these papers was absolutely
necessary for this run to complete.
Our perspective: the developers of density functionals and basis sets usually get cited in chemistry papers
Good! But without the algorithms to do something with them, the functionals or basis sets would not do anything.
Hence, in our opinion, the algorithm design and method developments papers are equally worthy of getting cited

  1. Neese,F.
     An improvement of the resolution of the identity approximation for the formation of the Coulomb matrix
     J. Comp. Chem., 2003 24(14)1740-1747
     doi.org/10.1002/jcc.10318
  2. Neese,F.
     The SHARK Integral Generation and Digestion System
     J. Comp. Chem., 2022  1-16
     doi.org/10.1002/jcc.26942
  3. Caldeweyher,E.; Bannwarth,C.; Grimme,S.
     Extension of the D3 dispersion coefficient model
     J. Chem. Phys., 2017 147 034112-XXXX
     doi.org/10.1063/1.4993215
  4. Caldeweyher,E.; Ehlert,S.; Hansen,A.; Neugebauer,H.; Spicher,S.; Bannwarth,C.; Grimme,S.
     A generally applicable atomic-charge dependent London dispersion correction
     J. Chem. Phys., 2019 150 154122-XXXX
     doi.org/10.1063/1.5090222
  5. Caldeweyher,E.; Mewes,J.; Ehlert,S.; Grimme,S.
     Extension and evaluation of the D4 London-dispersion model for periodic systems
     Phys. Chem. Chem. Phys., 2020 22(16)8499-8512
     doi.org/10.1039/D0CP00502A

List of suggested additional citations. These are papers that are important in the 'surrounding' of 
of this run, or papers that preceded the highly important papers. If you like your results we are grateful for a citation.

  1. Neese,F.
     The ORCA program system
     WIRES Comput. Molec. Sci., 2012 2(1)73-78
     doi.org/10.1002/wcms.81
  2. Neese,F.
     Software update: the ORCA program system, version 4.0
     WIRES Comput. Molec. Sci., 2018 8(1)1-6
     doi.org/10.1002/wcms.1327
  3. Neese,F.; Wennmohs,F.; Becker,U.; Riplinger,C.
     The ORCA quantum chemistry program package
     J. Chem. Phys., 2020 152 Art. No. L224108
     doi.org/10.1063/5.0004608

List of optional additional citations

  1. Neese,F.
     Approximate second-order SCF convergence for spin unrestricted wavefunctions
     Chem. Phys. Lett., 2000 325(1-3)93-98
     doi.org/10.1016/s0009-2614(00)00662-x

Timings for individual modules:

Sum of individual times          ...       10.165 sec (=   0.169 min)
Startup calculation              ...        0.792 sec (=   0.013 min)   7.8 %
SCF iterations                   ...        9.266 sec (=   0.154 min)  91.2 %
Property calculations            ...        0.107 sec (=   0.002 min)   1.1 %
                             ****ORCA TERMINATED NORMALLY****
TOTAL RUN TIME: 0 days 0 hours 0 minutes 10 seconds 904 msec
