      -----------------------------------------------------------      
     |                   =====================                   |     
     |                           x T B                           |     
     |                   =====================                   |     
     |                         S. Grimme                         |     
     |          Mulliken Center for Theoretical Chemistry        |     
     |                    University of Bonn                     |     
      -----------------------------------------------------------      

   * xtb version 6.7.1 (edcfbbe) compiled by 'albert@albert-system' on 2024-07-22

   xtb is free software: you can redistribute it and/or modify it under
   the terms of the GNU Lesser General Public License as published by
   the Free Software Foundation, either version 3 of the License, or
   (at your option) any later version.
   
   xtb is distributed in the hope that it will be useful,
   but WITHOUT ANY WARRANTY; without even the implied warranty of
   MERCHANTABILITY or FITNESS FOR A PARTICULAR PURPOSE.  See the
   GNU Lesser General Public License for more details.
   
   Cite this work as:
   * C. Bannwarth, E. Caldeweyher, S. Ehlert, A. Hansen, P. Pracht,
     J. Seibert, S. Spicher, S. Grimme, WIREs Comput. Mol. Sci., 2020, 11,
     e01493. DOI: 10.1002/wcms.1493
   
   for GFN2-xTB:
   * C. Bannwarth, S. Ehlert and S. Grimme., J. Chem. Theory Comput., 2019,
     15, 1652-1671. DOI: 10.1021/acs.jctc.8b01176
   for GFN1-xTB:
   * S. Grimme, C. Bannwarth, P. Shushkov, J. Chem. Theory Comput., 2017,
     13, 1989-2009. DOI: 10.1021/acs.jctc.7b00118
   for GFN0-xTB:
   * P. Pracht, E. Caldeweyher, S. Ehlert, S. Grimme, ChemRxiv, 2019, preprint.
     DOI: 10.26434/chemrxiv.8326202.v1
   for GFN-FF:
   * S. Spicher and S. Grimme, Angew. Chem. Int. Ed., 2020, 59, 15665-15673.
     DOI: 10.1002/anie.202004239
   
   for ALPB and GBSA implicit solvation:
   * S. Ehlert, M. Stahn, S. Spicher, S. Grimme, J. Chem. Theory Comput.,
     2021, 17, 4250-4261. DOI: 10.1021/acs.jctc.1c00471
   
   for ddCOSMO and CPCM-X implicit solvation:
   * M. Stahn, S. Ehlert, S. Grimme, J. Phys. Chem. A,
     2023, XX, XXXX-XXXX. DOI: 10.1021/acs.jpca.3c04382
   
   for DFT-D4:
   * E. Caldeweyher, C. Bannwarth and S. Grimme, J. Chem. Phys., 2017,
     147, 034112. DOI: 10.1063/1.4993215
   * E. Caldeweyher, S. Ehlert, A. Hansen, H. Neugebauer, S. Spicher,
     C. Bannwarth and S. Grimme, J. Chem. Phys., 2019, 150, 154122.
     DOI: 10.1063/1.5090222
   * E. Caldeweyher, J.-M. Mewes, S. Ehlert and S. Grimme, Phys. Chem. Chem. Phys.
     2020, 22, 8499-8512. DOI: 10.1039/D0CP00502A
   
   for sTDA-xTB:
   * S. Grimme and C. Bannwarth, J. Chem. Phys., 2016, 145, 054103.
     DOI: 10.1063/1.4959605
   
   in the mass-spec context:
   * V. Asgeirsson, C. Bauer and S. Grimme, Chem. Sci., 2017, 8, 4879.
     DOI: 10.1039/c7sc00601b
   * J. Koopman and S. Grimme, ACS Omega 2019, 4, 12, 15120-15133.
     DOI: 10.1021/acsomega.9b02011
   
   for metadynamics refer to:
   * S. Grimme, J. Chem. Theory Comput., 2019, 155, 2847-2862
     DOI: 10.1021/acs.jctc.9b00143
   
   for SPH calculations refer to:
   * S. Spicher and S. Grimme, J. Chem. Theory Comput., 2021, 17, 1701-1714
     DOI: 10.1021/acs.jctc.0c01306
   
   for ONIOM refer to:
   * C. Plett, A. Katbashev, S. Ehlert, S. Grimme, M. Bursch,
     Phys. Chem. Chem. Phys., 2023, 25, 17860-17868. DOI: 10.1039/D3CP02178E
   
   for DIPRO refer to:
   * J. Kohn, N. Gildemeister, S. Grimme, D. Fazzi, A. Hansen,
     J. Chem. Phys., 2023, just accepted.
   
   for PTB refer to:
   * S. Grimme, M. Mueller, A. Hansen, J. Chem. Phys., 2023, 158, 124111.
     DOI: 10.1063/5.0137838
   
   with help from (in alphabetical order)
   P. Atkinson, C. Bannwarth, F. Bohle, G. Brandenburg, E. Caldeweyher
   M. Checinski, S. Dohm, S. Ehlert, S. Ehrlich, I. Gerasimov, C. Hölzer
   A. Katbashev, J. Kohn, J. Koopman, C. Lavigne, S. Lehtola, F. März, M. Müller,
   F. Musil, H. Neugebauer, J. Pisarek, C. Plett, P. Pracht, F. Pultar,
   J. Seibert, P. Shushkov, S. Spicher, M. Stahn, M. Steiner, T. Strunk,
   J. Stückrath, T. Rose, and J. Unsleber
   
 * started run on 2025/04/11 at 16:26:25.980     
   ID    Z sym.   atoms
    1    6 C      1-4, 7, 8
    2    8 O      5, 6
    3    1 H      9-20

           -------------------------------------------------
          |                Calculation Setup                |
           -------------------------------------------------

          program call               : /srv/scratch/z5358697/.xtb/bin/xtb xtb_opt.coord --opt normal --orca -I xtb_opt-xcontrol-inp
          hostname                   : k061
          coordinate file            : xtb_opt.coord
          omp threads                :                    16

           -------------------------------------------------
          |                   Orca driver                   |
           -------------------------------------------------
orca executable           : /apps/z_install_tree/linux-rocky8-ivybridge/gcc-12.2.0/orca-6.0.0-srtngmq3qlimg2qxbl6avaaiffipurdx/bin/orca
orca input file           : xtb_opt.inp
orca input line           : 
orca parallel             : true
orca number of threads    : 16
                         * ORCA takes the control...
  ------------------------------------------------------------------------

                                 *****************
                                 * O   R   C   A *
                                 *****************

                                            #,                                       
                                            ###                                      
                                            ####                                     
                                            #####                                    
                                            ######                                   
                                           ########,                                 
                                     ,,################,,,,,                         
                               ,,#################################,,                 
                          ,,##########################################,,             
                       ,#########################################, ''#####,          
                    ,#############################################,,   '####,        
                  ,##################################################,,,,####,       
                ,###########''''           ''''###############################       
              ,#####''   ,,,,##########,,,,          '''####'''          '####       
            ,##' ,,,,###########################,,,                        '##       
           ' ,,###''''                  '''############,,,                           
         ,,##''                                '''############,,,,        ,,,,,,###''
      ,#''                                            '''#######################'''  
     '                                                          ''''####''''         
             ,#######,   #######,   ,#######,      ##                                
            ,#'     '#,  ##    ##  ,#'     '#,    #''#        ,####,   ,####,        
            ##       ##  ##   ,#'  ##            #'  '#       #'       #'  '#        
            ##       ##  #######   ##           ,######,      #####,   #    #        
            '#,     ,#'  ##    ##  '#,     ,#' ,#      #,     #,   #   #,  ,#        
             '#######'   ##     ##  '#######'  #'      '#     '####' # '####'        



                #########################################################
                #                        -***-                          #
                #          Department of theory and spectroscopy        #
                #                                                       #
                #                      Frank Neese                      #
                #                                                       #
                #     Directorship, Architecture, Infrastructure        #
                #                    SHARK, DRIVERS                     #
                #        Core code/Algorithms in most modules           #
                #                                                       #
                #        Max Planck Institute fuer Kohlenforschung      #
                #                Kaiser Wilhelm Platz 1                 #
                #                 D-45470 Muelheim/Ruhr                 #
                #                      Germany                          #
                #                                                       #
                #                  All rights reserved                  #
                #                        -***-                          #
                #########################################################


                         Program Version 6.0.0  -   RELEASE  -


 With contributions from (in alphabetic order):
   Daniel Aravena         : Magnetic Suceptibility
   Michael Atanasov       : Ab Initio Ligand Field Theory (pilot matlab implementation)
   Alexander A. Auer      : GIAO ZORA, VPT2 properties, NMR spectrum
   Ute Becker             : All parallelization in ORCA, NUMFREQ, NUMCALC
   Giovanni Bistoni       : ED, misc. LED, open-shell LED, HFLD
   Martin Brehm           : Molecular dynamics
   Dmytro Bykov           : pre 5.0 version of the SCF Hessian
   Marcos Casanova-Páez   : Triplet and SCS-CIS(D). UHF-(DLPNO)-IP/EA/STEOM-CCSD. UHF-CVS-IP/STEOM-CCSD
   Vijay G. Chilkuri      : MRCI spin determinant printing, contributions to CSF-ICE
   Pauline Colinet        : FMM embedding
   Dipayan Datta          : RHF DLPNO-CCSD density
   Achintya Kumar Dutta   : EOM-CC, STEOM-CC
   Nicolas Foglia         : Exact transition moments, OPA infrastructure, MCD improvements
   Dmitry Ganyushin       : Spin-Orbit,Spin-Spin,Magnetic field MRCI
   Miquel Garcia          : C-PCM and meta-GGA Hessian, CCSD/C-PCM, Gaussian charge scheme
   Tiago L. C. Gouveia    : GS-ROHF, GS-ROCIS
   Yang Guo               : DLPNO-NEVPT2, F12-NEVPT2, CIM, IAO-localization
   Andreas Hansen         : Spin unrestricted coupled pair/coupled cluster methods
   Ingolf Harden          : AUTO-CI MPn and infrastructure 
   Benjamin Helmich-Paris : MC-RPA, TRAH-(SCF,CASSCF), AVAS, COSX integrals, SCF dyn. polar.
   Lee Huntington         : MR-EOM, pCC
   Robert Izsak           : Overlap fitted RIJCOSX, COSX-SCS-MP3, EOM
   Riya Kayal             : Wick's Theorem for AUTO-CI, AUTO-CI UHF-CCSDT
   Emily Kempfer          : AUTO-CI, RHF CISDT and CCSDT
   Christian Kollmar      : KDIIS, OOCD, Brueckner-CCSD(T), CCSD density, CASPT2, CASPT2-K, improved NEVPT2
   Axel Koslowski         : Symmetry handling
   Simone Kossmann        : Meta GGA functionals, TD-DFT gradient, OOMP2, (MP2 Hessian; deprecated post 5.0)
   Lucas Lang             : DCDCAS
   Marvin Lechner         : AUTO-CI (C++ implementation), FIC-MRCC
   Spencer Leger          : CASSCF response
   Dagmar Lenk            : GEPOL surface, SMD, ORCA-2-JSON
   Dimitrios Liakos       : Extrapolation schemes; Compound Job, initial MDCI parallelization
   Dimitrios Manganas     : Further ROCIS development; embedding schemes. LFT, Crystal Embedding
   Dimitrios Pantazis     : SARC Basis sets
   Anastasios Papadopoulos: AUTO-CI, single reference methods and gradients
   Taras Petrenko         : pre 6.0 DFT Hessian and TD-DFT gradient, (ASA, deprecated), ECA, 1-Electron XAS/XES, NRVS
   Peter Pinski           : DLPNO-MP2, DLPNO-MP2 Gradient
   Christoph Reimann      : Effective Core Potentials
   Marius Retegan         : Local ZFS, SOC
   Christoph Riplinger    : Optimizer, TS searches, QM/MM, DLPNO-CCSD(T), (RO)-DLPNO pert. Triples
   Michael Roemelt        : Original ROCIS implementation
   Masaaki Saitow         : Open-shell DLPNO-CCSD energy and density
   Barbara Sandhoefer     : DKH picture change effects
   Kantharuban Sivalingam : CASSCF convergence/infrastructure, NEVPT2 and variants, FIC-MRCI
   Bernardo de Souza      : ESD, SOC TD-DFT
   Georgi Stoychev        : AutoAux, RI-MP2 NMR, DLPNO-MP2 response, X2C
   Van Anh Tran           : RI-MP2 g-tensors
   Willem Van den Heuvel  : Paramagnetic NMR
   Zikuan Wang            : NOTCH, Electric field optimization 
   Frank Wennmohs         : Technical directorship and infrastructure
   Hang Xu                : AUTO-CI-Response properties 


 We gratefully acknowledge several colleagues who have allowed us to
 interface, adapt or use parts of their codes:
   Stefan Grimme, W. Hujo, H. Kruse, P. Pracht,  : VdW corrections, initial TS optimization,
                  C. Bannwarth, S. Ehlert,         DFT functionals, gCP, sTDA/sTD-DF
                  L. Wittmann, M. Mueller
   Ed Valeev, F. Pavosevic, A. Kumar             : LibInt (2-el integral package), F12 methods
   Garnet Chan, S. Sharma, J. Yang, R. Olivares  : DMRG
   Ulf Ekstrom                                   : XCFun DFT Library
   Mihaly Kallay                                 : mrcc  (arbitrary order and MRCC methods)
   Frank Weinhold                                : gennbo (NPA and NBO analysis)
   Simon Mueller                                 : openCOSMO-RS
   Christopher J. Cramer and Donald G. Truhlar   : smd solvation model
   Lars Goerigk                                  : TD-DFT with DH, B97 family of functionals
   V. Asgeirsson, H. Jonsson                     : NEB implementation
   FAccTs GmbH                                   : IRC, NEB, NEB-TS, DLPNO-Multilevel, CI-OPT
                                                   MM, QMMM, 2- and 3-layer-ONIOM, Crystal-QMMM,
                                                   LR-CPCM, SF, NACMEs, symmetry and pop. for TD-DFT,
                                                   nearIR, NL-DFT gradient (VV10), updates on ESD,
                                                   ML-optimized integration grids, MBIS, APM,
                                                   GOAT, DOCKER, SOLVATOR, interface openCOSMO-RS
   S Lehtola, MJT Oliveira, MAL Marques          : LibXC Library
   Liviu Ungur et al                             : ANISO software


 Your calculation uses the libint2 library for the computation of 2-el integrals
 For citations please refer to: http://libint.valeyev.net

 Your ORCA version has been built with support for libXC version: 6.2.2
 For citations please refer to: https://libxc.gitlab.io

 This ORCA versions uses:
   CBLAS   interface :  Fast vector & matrix operations
   LAPACKE interface :  Fast linear algebra routines
   SCALAPACK package :  Parallel linear algebra routines
   Shared memory     :  Shared parallel matrices
   BLAS/LAPACK       :  OpenBLAS 0.3.27  USE64BITINT DYNAMIC_ARCH NO_AFFINITY SkylakeX SINGLE_THREADED
        Core in use  :  SkylakeX
   Copyright (c) 2011-2014, The OpenBLAS Project




***************************************
The coordinates will be read from file: xtb_opt.xyz
***************************************


Your calculation utilizes the geometrical counterpoise correction gCP
Please cite in your paper:
H.Kruse, S. Grimme J.Chem.Phys., 136, (2012), 154101 
   

Your calculation utilizes the atom-pairwise dispersion correction
based on EEQ partial charges (D4)


Your calculation utilizes the SMD solvation module
Please cite in your paper:
A.V. Marenich, C.J. Cramer, D.G. Truhlar J. Phys. Chem. B, 113, (2009), 6378 

================================================================================

----- Orbital basis set information -----
Your calculation utilizes the basis: def2-mTZVPP
   Stefan Grimme, Andreas Hansen, Sebastian Ehlert, and Jan-Michael Mewes 
   J. Chem. Phys. 154, 064103 (2021). DOI: 10.1063/5.0040021

----- AuxJ basis set information -----
Your calculation utilizes the auxiliary basis: def2/J
   F. Weigend, Phys. Chem. Chem. Phys. 8, 1057 (2006).

================================================================================
                                        WARNINGS
                       Please study these warnings very carefully!
================================================================================

Using LibXC functional ID 497 : Re-regularized SCAN exchange by Furness et al
[ 1]  J. W. Furness, A. D. Kaplan, J. Ning, J. P. Perdew, and J. Sun.,  J. Phys. Chem. Lett. 11, 8208-8215 (2020)
[ 2]  J. W. Furness, A. D. Kaplan, J. Ning, J. P. Perdew, and J. Sun.,  J. Phys. Chem. Lett. 11, 9248-9248 (2020)
Using LibXC functional ID 498 : Re-regularized SCAN correlation by Furness et al
[ 1]  J. W. Furness, A. D. Kaplan, J. Ning, J. P. Perdew, and J. Sun.,  J. Phys. Chem. Lett. 11, 8208-8215 (2020)
[ 2]  J. W. Furness, A. D. Kaplan, J. Ning, J. P. Perdew, and J. Sun.,  J. Phys. Chem. Lett. 11, 9248-9248 (2020)
Using LibXC functional ID 497 : Re-regularized SCAN exchange by Furness et al
[ 1]  J. W. Furness, A. D. Kaplan, J. Ning, J. P. Perdew, and J. Sun.,  J. Phys. Chem. Lett. 11, 8208-8215 (2020)
[ 2]  J. W. Furness, A. D. Kaplan, J. Ning, J. P. Perdew, and J. Sun.,  J. Phys. Chem. Lett. 11, 9248-9248 (2020)
Using LibXC functional ID 498 : Re-regularized SCAN correlation by Furness et al
[ 1]  J. W. Furness, A. D. Kaplan, J. Ning, J. P. Perdew, and J. Sun.,  J. Phys. Chem. Lett. 11, 8208-8215 (2020)
[ 2]  J. W. Furness, A. D. Kaplan, J. Ning, J. P. Perdew, and J. Sun.,  J. Phys. Chem. Lett. 11, 9248-9248 (2020)

================================================================================
                                       INPUT FILE
================================================================================
NAME = xtb_opt.inp
|  1> ! r2scan-3c def2/J RI DEFGRID2 scfconv7 ENGRAD tightSCF miniprint
|  2> %cpcm
|  3>     smd true
|  4>     smdsolvent "water"
|  5> end
|  6> * xyzfile 0 1 xtb_opt.xyz
|  7> 
|  8>                          ****END OF INPUT****
================================================================================

                     *******************************
                     * Energy+Gradient Calculation *
                     *******************************

---------------------------------
CARTESIAN COORDINATES (ANGSTROEM)
---------------------------------
  C     -3.315440   -1.087626    0.105098
  C     -1.869985   -0.722692    0.417643
  C     -1.355810    0.369750   -0.532230
  C      0.064012    0.709663   -0.168833
  O      0.390777    1.593846    0.596027
  O      0.926104   -0.100201   -0.769910
  C      2.324627    0.040461   -0.468834
  C      2.703476   -0.766937    0.763285
  H     -3.661352   -1.860995    0.785375
  H     -3.959733   -0.218995    0.213615
  H     -3.402614   -1.457605   -0.913118
  H     -1.236388   -1.605856    0.317910
  H     -1.792348   -0.363932    1.446209
  H     -1.967816    1.265420   -0.430080
  H     -1.384981    0.006425   -1.558589
  H      2.835993   -0.328074   -1.358493
  H      2.542816    1.101774   -0.315968
  H      3.772816   -0.688677    0.929694
  H      2.181154   -0.381055    1.635992
  H      2.437241   -1.811155    0.623763

----------------------------
CARTESIAN COORDINATES (A.U.)
----------------------------
  NO LB      ZA    FRAG     MASS         X           Y           Z
   0 C     6.0000    0    12.011   -6.265274   -2.055314    0.198607
   1 C     6.0000    0    12.011   -3.533760   -1.365690    0.789231
   2 C     6.0000    0    12.011   -2.562110    0.698726   -1.005769
   3 C     6.0000    0    12.011    0.120966    1.341069   -0.319048
   4 O     8.0000    0    15.999    0.738462    3.011933    1.126328
   5 O     8.0000    0    15.999    1.750082   -0.189353   -1.454919
   6 C     6.0000    0    12.011    4.392909    0.076461   -0.885968
   7 C     6.0000    0    12.011    5.108830   -1.449301    1.442401
   8 H     1.0000    0     1.008   -6.918953   -3.516771    1.484144
   9 H     1.0000    0     1.008   -7.482812   -0.413841    0.403675
  10 H     1.0000    0     1.008   -6.430009   -2.754474   -1.725543
  11 H     1.0000    0     1.008   -2.336435   -3.034627    0.600763
  12 H     1.0000    0     1.008   -3.387046   -0.687732    2.732939
  13 H     1.0000    0     1.008   -3.718633    2.391297   -0.812734
  14 H     1.0000    0     1.008   -2.617234    0.012141   -2.945307
  15 H     1.0000    0     1.008    5.359250   -0.619971   -2.567180
  16 H     1.0000    0     1.008    4.805225    2.082051   -0.597093
  17 H     1.0000    0     1.008    7.129589   -1.301411    1.756867
  18 H     1.0000    0     1.008    4.121783   -0.720090    3.091576
  19 H     1.0000    0     1.008    4.605719   -3.422587    1.178742

------------------------------------------------------------------------------
                   ___                                                        
                  /   \      - P O W E R E D   B Y -                         
                 /     \                                                     
                 |  |  |   _    _      __       _____    __    __             
                 |  |  |  | |  | |    /  \     |  _  \  |  |  /  |          
                  \  \/   | |  | |   /    \    | | | |  |  | /  /          
                 / \  \   | |__| |  /  /\  \   | |_| |  |  |/  /          
                |  |  |   |  __  | /  /__\  \  |    /   |      \           
                |  |  |   | |  | | |   __   |  |    \   |  |\   \          
                \     /   | |  | | |  |  |  |  | |\  \  |  | \   \       
                 \___/    |_|  |_| |__|  |__|  |_| \__\ |__|  \__/        
                                                                              
                      - O R C A' S   B I G   F R I E N D -                    
                                      &                                       
                       - I N T E G R A L  F E E D E R -                       
                                                                              
 v1 FN, 2020, v2 2021, v3 2022-2024                                           
------------------------------------------------------------------------------


----------------------
SHARK INTEGRAL PACKAGE
----------------------

Number of atoms                             ...     20
Number of basis functions                   ...    222
Number of shells                            ...    110
Maximum angular momentum                    ...      2
Integral batch strategy                     ... SHARK/LIBINT Hybrid
RI-J (if used) integral strategy            ... SPLIT-RIJ (Revised 2003 algorithm where possible)
Printlevel                                  ...      1
Contraction scheme used                     ... SEGMENTED contraction
Prescreening option                         ... SCHWARTZ
   Thresh                                   ... 3.000e-11
   Tcut                                     ... 1.000e-12
   Tpresel                                  ... 1.000e-12 
Coulomb Range Separation                    ... NOT USED
Exchange Range Separation                   ... NOT USED
Multipole approximations                    ... NOT USED
Finite Nucleus Model                        ... NOT USED
CABS basis                                  ... NOT available
Auxiliary Coulomb fitting basis             ... AVAILABLE
   # of basis functions in Aux-J            ...    524
   # of shells in Aux-J                     ...    180
   Maximum angular momentum in Aux-J        ...      4
Auxiliary J/K fitting basis                 ... NOT available
Auxiliary Correlation fitting basis         ... NOT available
Auxiliary 'external' fitting basis          ... NOT available

Checking pre-screening integrals            ... done (  0.0 sec) Dimension = 110
Check shell pair data                       ... done (  0.0 sec)
Shell pair information
Shell pair cut-off parameter TPreSel        ...   1.0e-12
Total number of shell pairs                 ...      6105
Shell pairs after pre-screening             ...      5346
Total number of primitive shell pairs       ...     21533
Primitive shell pairs kept                  ...     13378
          la=0 lb=0:   1789 shell pairs
          la=1 lb=0:   2017 shell pairs
          la=1 lb=1:    588 shell pairs
          la=2 lb=0:    573 shell pairs
          la=2 lb=1:    327 shell pairs
          la=2 lb=2:     52 shell pairs

Calculating one electron integrals          ... done (  0.0 sec)
Calculating RI/J V-Matrix + Cholesky decomp.... done (  0.1 sec)
Calculating Nuclear repulsion               ... done (  0.0 sec) ENN=    391.335597234747 Eh

Diagonalization of the overlap matrix:
Smallest eigenvalue                        ... 1.272e-04
Time for diagonalization                   ...    0.010 sec
Threshold for overlap eigenvalues          ... 1.000e-07
Number of eigenvalues below threshold      ... 0
Time for construction of square roots      ...    0.018 sec
Total time needed                          ...    0.037 sec

-------------------
DFT GRID GENERATION
-------------------

General Integration Accuracy     IntAcc      ... 4.388
Radial Grid Type                 RadialGrid  ... OptM3 with GC (2021)
Angular Grid (max. ang.)         AngularGrid ... 4 (Lebedev-302)
Angular grid pruning method      GridPruning ... 4 (adaptive)
Weight generation scheme         WeightScheme... mBecke (2022)
Basis function cutoff            BFCut       ... 1.0000e-11
Integration weight cutoff        WCut        ... 1.0000e-14
Partially contracted basis set               ... off
Rotationally invariant grid construction     ... off
Angular grids for H and He will be reduced by one unit
Diffuse basis detected: some atoms will have their outermost
                        angular grid increased by 1.

Total number of grid points                  ...    87398
Total number of batches                      ...     1377
Average number of points per batch           ...       63
Average number of grid points per atom       ...     4370
Initializing property integral containers    ... done (  0.0 sec)

SHARK setup successfully completed in   1.3 seconds

Maximum memory used throughout the entire STARTUP-calculation: 39.4 MB
Occupation numbers will be reassigned to an Aufbau configuration
             **** ENERGY FILE WAS UPDATED (xtb_opt.en.tmp) ****
Finished Guess after   0.3 sec
Maximum memory used throughout the entire GUESS-calculation: 15.1 MB
--------------------
CPCM SOLVATION MODEL
--------------------
CPCM parameters:
  Epsilon                                         ...      78.3550
  Refrac                                          ...       1.3328
  Rsolv                                           ...       1.3000
  Surface type                                    ... GAUSSIAN VDW
  Discretization scheme                           ... Constant charge density
    Threshold for H atoms                         ...       5.0000 (charges/Ang^2)
    Threshold for non-H atoms                     ...       5.0000 (charges/Ang^2)
  Epsilon function type                           ...         CPCM
Solvent:                                          ... WATER
SMD-CDS solvent descriptors:
  Soln                                            ...       1.3328
  Soln25                                          ...       1.3323
  Sola                                            ...       0.0000
  Solb                                            ...       0.0000
  Solg                                            ...       0.0000
  Solc                                            ...       0.0000
  Solh                                            ...       0.0000
Radii:
  Scheme                                          ... Element-dependent radii
  Radius for C  used is    3.4960 Bohr (=   1.8500 Ang.)
  Radius for O  used is    2.8724 Bohr (=   1.5200 Ang.)
  Radius for H  used is    2.2677 Bohr (=   1.2000 Ang.)
Calculating surface                               ...        done! (  0.0s)
Cavity surface points                             ...         1501
Cavity Volume                                     ...     881.3007
Cavity Surface-area                               ...     591.2613
Calculating surface distance matrix               ...        done! (  0.0s)
Performing Cholesky decomposition & store         ...        done! (  0.1s)
Overall time for CPCM initialization              ...                 0.2s

----------------------------------------D-I-I-S--------------------------------------------
Iteration    Energy (Eh)           Delta-E    RMSDP     MaxDP     DIISErr   Damp  Time(sec)
-------------------------------------------------------------------------------------------
               ***  Starting incremental Fock matrix formation  ***
                              *** Initializing SOSCF ***
---------------------------------------S-O-S-C-F--------------------------------------
Iteration    Energy (Eh)           Delta-E    RMSDP     MaxDP     MaxGrad    Time(sec)
--------------------------------------------------------------------------------------
    1    -386.2555802912582408     0.00e+00  6.83e-06  2.63e-04  4.73e-05     3.7
               *** Restarting incremental Fock matrix formation ***
    2    -386.2555802116801829     7.96e-08  1.06e-05  4.15e-04  1.29e-04     3.8
    3    -386.2555793651706040     8.47e-07  7.23e-06  2.75e-04  2.70e-04     2.9
    4    -386.2555805483969493    -1.18e-06  1.17e-06  3.95e-05  1.44e-05     3.2
                  *** Gradient check signals convergence ***

               *****************************************************
               *                     SUCCESS                       *
               *           SCF CONVERGED AFTER   4 CYCLES          *
               *****************************************************


SMD CDS free energy correction energy :                 5.04490     Kcal/mol
Total Energy after SMD CDS correction =              -386.247540986 Eh
             **** ENERGY FILE WAS UPDATED (xtb_opt.en.tmp) ****

----------------
TOTAL SCF ENERGY
----------------

Total Energy       :       -386.24754098638323 Eh          -10510.32993 eV

Components:
Nuclear Repulsion  :        391.33559723474735 Eh           10648.78297 eV
Electronic Energy  :       -777.57538120825734 Eh          -21158.90182 eV
One Electron Energy:      -1299.97457426083929 Eh          -35374.10655 eV
Two Electron Energy:        522.39919305258195 Eh           14215.20473 eV
CPCM Dielectric    :         -0.01579657488698 Eh              -0.42985 eV
SMD CDS (Gcds)     :          0.00803956201373 Eh               0.21877 eV

Virial components:
Potential Energy   :       -770.88983873141194 Eh          -20976.97896 eV
Kinetic Energy     :        384.64229774502871 Eh           10466.64904 eV
Virial Ratio       :          2.00417334040163

DFT components:
N(Alpha)           :       31.999975705389 electrons
N(Beta)            :       31.999975705389 electrons
N(Total)           :       63.999951410779 electrons
E(X)               :      -52.086023718696 Eh       
E(C)               :       -2.037073439691 Eh       
E(XC)              :      -54.123097158387 Eh       

CPCM Solvation Model Properties:
Surface-charge          :         -0.04753039784406
Corrected charge        :          0.00000000000000
Outlying charge corr.   :          0.00016982217608 Eh               0.00462 eV
Free-energy (cav+disp)  :          0.00803956201373 Eh               0.21877 eV

---------------
SCF CONVERGENCE
---------------

  Last Energy change         ...    1.1832e-06  Tolerance :   1.0000e-07
  Last MAX-Density change    ...    3.9493e-05  Tolerance :   1.0000e-07
  Last RMS-Density change    ...    1.1742e-06  Tolerance :   5.0000e-09
  Last DIIS Error            ...    3.8036e-04  Tolerance :   1.0000e-07
  Last Orbital Gradient      ...    1.4412e-05  Tolerance :   1.0000e-04
  Last Orbital Rotation      ...    5.3615e-05  Tolerance :   1.0000e-04


----------------
ORBITAL ENERGIES
----------------

  NO   OCC          E(Eh)            E(eV) 
   0   2.0000     -19.001529      -517.0579 
   1   2.0000     -18.942604      -515.4545 
   2   2.0000     -10.161715      -276.5143 
   3   2.0000     -10.083244      -274.3790 
   4   2.0000     -10.034621      -273.0559 
   5   2.0000     -10.030536      -272.9448 
   6   2.0000     -10.018184      -272.6086 
   7   2.0000     -10.011989      -272.4401 
   8   2.0000      -1.078295       -29.3419 
   9   2.0000      -0.988219       -26.8908 
  10   2.0000      -0.769866       -20.9491 
  11   2.0000      -0.732473       -19.9316 
  12   2.0000      -0.674140       -18.3443 
  13   2.0000      -0.616107       -16.7651 
  14   2.0000      -0.561384       -15.2760 
  15   2.0000      -0.519848       -14.1458 
  16   2.0000      -0.472439       -12.8557 
  17   2.0000      -0.461377       -12.5547 
  18   2.0000      -0.439024       -11.9464 
  19   2.0000      -0.425094       -11.5674 
  20   2.0000      -0.408150       -11.1063 
  21   2.0000      -0.384121       -10.4525 
  22   2.0000      -0.363012        -9.8781 
  23   2.0000      -0.357181        -9.7194 
  24   2.0000      -0.355682        -9.6786 
  25   2.0000      -0.339878        -9.2485 
  26   2.0000      -0.320273        -8.7151 
  27   2.0000      -0.305822        -8.3218 
  28   2.0000      -0.303826        -8.2675 
  29   2.0000      -0.300627        -8.1805 
  30   2.0000      -0.276893        -7.5346 
  31   2.0000      -0.248715        -6.7679 
  32   0.0000      -0.022568        -0.6141 
  33   0.0000       0.079297         2.1578 
  34   0.0000       0.098784         2.6880 
  35   0.0000       0.113076         3.0770 
  36   0.0000       0.130599         3.5538 
  37   0.0000       0.135749         3.6939 
  38   0.0000       0.139495         3.7958 
  39   0.0000       0.143920         3.9163 
  40   0.0000       0.153589         4.1794 
  41   0.0000       0.167878         4.5682 
  42   0.0000       0.170494         4.6394 
*Only the first 10 virtual orbitals were printed.
Total SCF time: 0 days 0 hours 0 min 14 sec 
Finished LeanSCF after  14.4 sec

Maximum memory used throughout the entire LEANSCF-calculation: 30.6 MB


-------------------------------------------------------------------------------
                          DFT DISPERSION CORRECTION                            
                                                                               
                                DFTD4 V3.4.0                                   
-------------------------------------------------------------------------------
-------------------------   ----------------
Dispersion correction           -0.005032271
-------------------------   ----------------

------------------   -----------------
gCP correction             0.011654863
------------------   -----------------

-------------------------   --------------------
FINAL SINGLE POINT ENERGY      -386.240918394970
-------------------------   --------------------

------------------------------------------------------------------------------
                         ORCA SCF GRADIENT CALCULATION
------------------------------------------------------------------------------

Nuc. rep. gradient        (SHARK) ... done (  0.0 sec)
HCore & Overlap gradient  (SHARK) ... done (  0.3 sec)
Split-RIJ-J gradient      (SHARK) ... done (  1.9 sec)
XC gradient                       ... done (  7.1 sec)
CPCM gradient                     ... done (  1.0 sec)
SMD gradient                      ... done (  0.0 sec)
Dispersion correction             ... done (  0.0 sec)

-------------------
DISPERSION GRADIENT
-------------------

   1   C   :   -0.000073367   -0.000033094    0.000004544
   2   C   :   -0.000070530   -0.000024800    0.000015850
   3   C   :   -0.000057982    0.000025095   -0.000026875
   4   C   :    0.000012250    0.000048845   -0.000014582
   5   O   :    0.000010841    0.000086475    0.000021864
   6   O   :    0.000045097    0.000008996   -0.000035693
   7   C   :    0.000077324    0.000006069   -0.000014965
   8   C   :    0.000085195   -0.000030053    0.000027481
   9   H   :   -0.000023375   -0.000016949    0.000007586
  10   H   :   -0.000028572   -0.000008153    0.000004001
  11   H   :   -0.000027205   -0.000016457   -0.000003638
  12   H   :   -0.000034253   -0.000024157    0.000003896
  13   H   :   -0.000031340   -0.000005284    0.000018925
  14   H   :   -0.000015588    0.000021459   -0.000004949
  15   H   :   -0.000016667    0.000004823   -0.000023995
  16   H   :    0.000027458   -0.000006006   -0.000014836
  17   H   :    0.000021668    0.000006114   -0.000004047
  18   H   :    0.000026691   -0.000011279    0.000010413
  19   H   :    0.000036170   -0.000007571    0.000019688
  20   H   :    0.000036185   -0.000024073    0.000009333

Difference to translation invariance:
           :   -0.0000000000    0.0000000000   -0.0000000000

Difference to rotation invariance:
           :   -0.0000000000   -0.0000000000   -0.0000000000

Norm of the Dispersion gradient    ...    0.0002453364
RMS gradient                       ...    0.0000316728
MAX gradient                       ...    0.0000864749
gCP correction                   ... done

------------------
CARTESIAN GRADIENT
------------------

   1   C   :   -0.006023553   -0.001007229   -0.002101821
   2   C   :    0.003003932   -0.000962665    0.002477010
   3   C   :   -0.005405435    0.001403558   -0.004107245
   4   C   :    0.014269436   -0.002109393    0.003838424
   5   O   :   -0.003012032   -0.009707937   -0.009998431
   6   O   :    0.001009304    0.013093556    0.010353582
   7   C   :   -0.011632298   -0.002215392   -0.007917122
   8   C   :    0.007137187   -0.004740066    0.007113663
   9   H   :    0.002961917    0.003653913   -0.002490578
  10   H   :    0.003975008   -0.003609432   -0.000235054
  11   H   :    0.001507909    0.001965055    0.004801635
  12   H   :   -0.001978823    0.002141343   -0.001039639
  13   H   :   -0.000984996    0.000001712   -0.002613852
  14   H   :    0.000702106   -0.002143241    0.000732283
  15   H   :    0.001738261    0.000065364    0.003031744
  16   H   :   -0.000896492   -0.000691761    0.000710059
  17   H   :   -0.001895107    0.000620232    0.002544656
  18   H   :   -0.005526751   -0.000065799   -0.000910051
  19   H   :    0.001017533   -0.000633860   -0.004126412
  20   H   :    0.000032893    0.004942041   -0.000062848

Difference to translation invariance:
           :    0.0000000000    0.0000000000   -0.0000000000

Difference to rotation invariance:
           :   -0.0001903072   -0.0001570509    0.0002281752

Norm of the Cartesian gradient     ...    0.0366966837
RMS gradient                       ...    0.0047375215
MAX gradient                       ...    0.0142694361

-------
TIMINGS
-------

Total SCF gradient time     ....       11.247 sec

Densities                   ....       0.001 sec  (  0.0%)
One electron gradient       ....       0.334 sec  (  3.0%)
RI-J Coulomb gradient       ....       1.859 sec  ( 16.5%)
XC gradient                 ....       7.072 sec  ( 62.9%)
CPCM gradient               ....       1.040 sec  (  9.3%)
   A-Matrix (El+Nuc)        ....       0.083 sec  (  0.7%)
   Potential                ....       0.957 sec  (  8.5%)
SMD gradient                ....       0.015 sec  (  0.1%)

Maximum memory used throughout the entire SCFGRAD-calculation: 35.4 MB

------------------------------------------------------------------------------
                              ORCA PROPERTY CALCULATIONS
------------------------------------------------------------------------------

GBWName                                 ... xtb_opt.gbw
Number of atoms                         ...     20
Number of basis functions               ...    222
Max core memory                         ...   1024 MB

Electric properties:
Dipole moment                           ... YES
Quadrupole moment                       ...  NO
Static polarizability (Dipole/Dipole)   ...  NO
Static polarizability (Dipole/Quad.)    ...  NO
Static polarizability (Quad./Quad.)     ...  NO
Static polarizability (Velocity)        ...  NO

Atomic electric properties:
Dipole moment                           ...  NO
Quadrupole moment                       ...  NO
Static polarizability                   ...  NO

Choice of electric origin               ... Center of mass
Position of electric origin             ...    -0.000014    -0.000020     0.000003

General magnetic properties:
Magnetizability                         ...  NO

EPR properties:
g-Tensor (aka g-matrix)                 ...  NO
Zero-Field splitting spin-orbit         ...  NO
Zero-field splitting spin-spin          ...  NO
Hyperfine couplings                     ...  NO (   0 nuclei)
Quadrupole couplings                    ...  NO (   0 nuclei)
Contact density                         ...  NO (   0 nuclei)

NMR properties:
Chemical shifts                         ...  NO (   0 nuclei)
Spin-rotation constants                 ...  NO (   0 nuclei)
Spin-spin couplings                     ...  NO (   0 nuclei,    0 pairs)

Choice of magnetic origin               ... GIAO
Position of magnetic origin             ...     0.000000     0.000000     0.000000

Properties with geometric perturbations:
SCF Hessian                             ...  NO
IR spectrum                             ...  NO
VCD spectrum                            ...  NO
X-ray spectroscopy properties:
SCF XES/XAS/RIXS spectra                ...  NO


-------------
DIPOLE MOMENT
-------------

Method             : SCF
Type of density    : Electron Density
Multiplicity       :   1
Irrep              :   0
Energy             :  -386.2475409863832283 Eh
Relativity type    : 
Basis              : AO
                                X                 Y                 Z
Electronic contribution:      3.474766773       4.890858706      -1.850986915
Nuclear contribution   :     -3.390908765      -5.928385458       1.288630051
                        -----------------------------------------
Total Dipole Moment    :      0.083858008      -1.037526751      -0.562356864
                        -----------------------------------------
Magnitude (a.u.)       :      1.183105730
Magnitude (Debye)      :      3.007215778



--------------------
Rotational spectrum 
--------------------
 
Rotational constants in cm-1:             0.130905             0.033403             0.030756 
Rotational constants in MHz :          3924.447761          1001.394938           922.055497 

Dipole components along the rotational axes: 
x,y,z [a.u.] :    -0.046039    -0.983783    -0.655584 
x,y,z [Debye]:    -0.117022    -2.500577    -1.666363 

 

Dipole moment calculation done in   0.0 sec 

Maximum memory used throughout the entire PROP-calculation: 13.9 MB

--------------------------------
SUGGESTED CITATIONS FOR THIS RUN
--------------------------------

Below you find a list of papers that are relevant to this ORCA run
We neither can nor want to force you to cite these papers, but we appreciate if you do
You receive ORCA, which is the product of decades of hard work by many enthusiastic individuals, for free
The only thing we kindly ask in return is that you cite our papers,
We deeply appreciate it, if you show your appreciation for ORCA by not just citing the generic ORCA reference.

Please note that relegating all ORCA citations to the supporting information does *not* help us.
SI sections are not indexed - citations you put there will not count into any citation statistics
But we need these citations in order to attract the funding resources that allow us to do what we are doing

Therefore, if you are a happy ORCA user, please consider citing a few of the papers listed below in the main body of your paper

In addition to the list printed below, the program has created the file xtb_opt.bibtex that contains the list in bibtex format
You can import this file easily into all common literature databanks and citation aid programs


List of essential papers. We consider these as the minimum necessary citations

  1. Neese,F.
     Software update: the ORCA program system, version 5.0
     WIRES Comput. Molec. Sci., 2022 12(1)e1606
     doi.org/10.1002/wcms.1606
  2. Grimme,S.; Hansen,A.; Ehlert,S.; Mewes,J.
     r2SCAN-3c: A 'Swiss army knife' composite electronic-structure method
     J. Chem. Phys., 2021 154 064103
     doi.org/10.1063/5.0040021

List of papers to cite with high priority. The work reported in these papers was absolutely
necessary for this run to complete.
Our perspective: the developers of density functionals and basis sets usually get cited in chemistry papers
Good! But without the algorithms to do something with them, the functionals or basis sets would not do anything.
Hence, in our opinion, the algorithm design and method developments papers are equally worthy of getting cited

  1. Neese,F.
     An improvement of the resolution of the identity approximation for the formation of the Coulomb matrix
     J. Comp. Chem., 2003 24(14)1740-1747
     doi.org/10.1002/jcc.10318
  2. Garcia-Rates,M.; Neese,F.
     Effect of the Solute Cavity on the Solvation Energy and its Derivatives within the Framework of the Gaussian Charge Scheme
     J. Comput. Chem., 2020 41 922-939
     doi.org/10.1002/jcc.26139
  3. Neese,F.
     The SHARK Integral Generation and Digestion System
     J. Comp. Chem., 2022  1-16
     doi.org/10.1002/jcc.26942
  4. Lehtola,S.; Steigemann,C.; Oliveira,M.; Marques,M.
     Recent developments in Libxc - A comprehensive library of functionals for density functional theory
     Software X, 2018 7 
     doi.org/10.1016/j.softx.2017.11.002
  5. Caldeweyher,E.; Bannwarth,C.; Grimme,S.
     Extension of the D3 dispersion coefficient model
     J. Chem. Phys., 2017 147 034112-XXXX
     doi.org/10.1063/1.4993215
  6. Caldeweyher,E.; Ehlert,S.; Hansen,A.; Neugebauer,H.; Spicher,S.; Bannwarth,C.; Grimme,S.
     A generally applicable atomic-charge dependent London dispersion correction
     J. Chem. Phys., 2019 150 154122-XXXX
     doi.org/10.1063/1.5090222
  7. Caldeweyher,E.; Mewes,J.; Ehlert,S.; Grimme,S.
     Extension and evaluation of the D4 London-dispersion model for periodic systems
     Phys. Chem. Chem. Phys., 2020 22(16)8499-8512
     doi.org/10.1039/D0CP00502A

List of suggested additional citations. These are papers that are important in the 'surrounding' of 
of this run, or papers that preceded the highly important papers. If you like your results we are grateful for a citation.

  1. Neese,F.
     The ORCA program system
     WIRES Comput. Molec. Sci., 2012 2(1)73-78
     doi.org/10.1002/wcms.81
  2. Neese,F.
     Software update: the ORCA program system, version 4.0
     WIRES Comput. Molec. Sci., 2018 8(1)1-6
     doi.org/10.1002/wcms.1327
  3. Neese,F.; Wennmohs,F.; Becker,U.; Riplinger,C.
     The ORCA quantum chemistry program package
     J. Chem. Phys., 2020 152 Art. No. L224108
     doi.org/10.1063/5.0004608

List of optional additional citations

  1. Neese,F.
     Approximate second-order SCF convergence for spin unrestricted wavefunctions
     Chem. Phys. Lett., 2000 325(1-3)93-98
     doi.org/10.1016/s0009-2614(00)00662-x

Timings for individual modules:

Sum of individual times          ...       27.772 sec (=   0.463 min)
Startup calculation              ...        1.399 sec (=   0.023 min)   5.0 %
SCF iterations                   ...       14.865 sec (=   0.248 min)  53.5 %
Property calculations            ...        0.124 sec (=   0.002 min)   0.4 %
SCF Gradient evaluation          ...       11.384 sec (=   0.190 min)  41.0 %
                             ****ORCA TERMINATED NORMALLY****
TOTAL RUN TIME: 0 days 0 hours 0 minutes 28 seconds 745 msec
  ------------------------------------------------------------------------
          * successful ORCA run, taking over control again...

         :::::::::::::::::::::::::::::::::::::::::::::::::::::
         ::                  ORCA SUMMARY                   ::
         :::::::::::::::::::::::::::::::::::::::::::::::::::::
         :: total energy            -386.240918394970 Eh    ::
         :: gradient norm              0.036696683725 Eh/a0 ::
         :: HOMO-LUMO gap              0.000000000000 eV    ::
         :::::::::::::::::::::::::::::::::::::::::::::::::::::

      ----------------------------------------------------------- 
     |                       L-ANC optimizer                     |
      ----------------------------------------------------------- 
          low memory version by Sebastian Ehlert

          ...................................................
          :                      SETUP                      :
          :.................................................:
          :   energy convergence        0.5000000E-05 Eh    :
          :   grad. convergence         0.1000000E-02 Eh/a0 :
          :   optimization log               true           :
          :   writing optlog all                1     steps :
          :   Hessian reset                     8     steps :
          :   maximium step len.        1.0000000     a0    :
          :   LBFGS images                      8           :
          ...................................................
 * calculating model hessian...
Using Lindh-Hessian (1995)
 Shifting diagonal of input Hessian by   1.000000000000000E-002
 Lowest  eigenvalues of input Hessian
    0.000000    0.000000    0.000000    0.000000    0.000000    0.000000
    0.011163    0.012713    0.012888    0.017947    0.019514    0.020257
    0.023401    0.027630    0.034122    0.040675    0.052748    0.054347
 Highest eigenvalues
    1.218314    1.233607    1.247396    1.309044    1.811410    2.339208
 

........................................................................
.............................. CYCLE    1 ..............................
........................................................................
                         * ORCA takes the control...
  ------------------------------------------------------------------------

                                 *****************
                                 * O   R   C   A *
                                 *****************

                                            #,                                       
                                            ###                                      
                                            ####                                     
                                            #####                                    
                                            ######                                   
                                           ########,                                 
                                     ,,################,,,,,                         
                               ,,#################################,,                 
                          ,,##########################################,,             
                       ,#########################################, ''#####,          
                    ,#############################################,,   '####,        
                  ,##################################################,,,,####,       
                ,###########''''           ''''###############################       
              ,#####''   ,,,,##########,,,,          '''####'''          '####       
            ,##' ,,,,###########################,,,                        '##       
           ' ,,###''''                  '''############,,,                           
         ,,##''                                '''############,,,,        ,,,,,,###''
      ,#''                                            '''#######################'''  
     '                                                          ''''####''''         
             ,#######,   #######,   ,#######,      ##                                
            ,#'     '#,  ##    ##  ,#'     '#,    #''#        ,####,   ,####,        
            ##       ##  ##   ,#'  ##            #'  '#       #'       #'  '#        
            ##       ##  #######   ##           ,######,      #####,   #    #        
            '#,     ,#'  ##    ##  '#,     ,#' ,#      #,     #,   #   #,  ,#        
             '#######'   ##     ##  '#######'  #'      '#     '####' # '####'        



                #########################################################
                #                        -***-                          #
                #          Department of theory and spectroscopy        #
                #                                                       #
                #                      Frank Neese                      #
                #                                                       #
                #     Directorship, Architecture, Infrastructure        #
                #                    SHARK, DRIVERS                     #
                #        Core code/Algorithms in most modules           #
                #                                                       #
                #        Max Planck Institute fuer Kohlenforschung      #
                #                Kaiser Wilhelm Platz 1                 #
                #                 D-45470 Muelheim/Ruhr                 #
                #                      Germany                          #
                #                                                       #
                #                  All rights reserved                  #
                #                        -***-                          #
                #########################################################


                         Program Version 6.0.0  -   RELEASE  -


 With contributions from (in alphabetic order):
   Daniel Aravena         : Magnetic Suceptibility
   Michael Atanasov       : Ab Initio Ligand Field Theory (pilot matlab implementation)
   Alexander A. Auer      : GIAO ZORA, VPT2 properties, NMR spectrum
   Ute Becker             : All parallelization in ORCA, NUMFREQ, NUMCALC
   Giovanni Bistoni       : ED, misc. LED, open-shell LED, HFLD
   Martin Brehm           : Molecular dynamics
   Dmytro Bykov           : pre 5.0 version of the SCF Hessian
   Marcos Casanova-Páez   : Triplet and SCS-CIS(D). UHF-(DLPNO)-IP/EA/STEOM-CCSD. UHF-CVS-IP/STEOM-CCSD
   Vijay G. Chilkuri      : MRCI spin determinant printing, contributions to CSF-ICE
   Pauline Colinet        : FMM embedding
   Dipayan Datta          : RHF DLPNO-CCSD density
   Achintya Kumar Dutta   : EOM-CC, STEOM-CC
   Nicolas Foglia         : Exact transition moments, OPA infrastructure, MCD improvements
   Dmitry Ganyushin       : Spin-Orbit,Spin-Spin,Magnetic field MRCI
   Miquel Garcia          : C-PCM and meta-GGA Hessian, CCSD/C-PCM, Gaussian charge scheme
   Tiago L. C. Gouveia    : GS-ROHF, GS-ROCIS
   Yang Guo               : DLPNO-NEVPT2, F12-NEVPT2, CIM, IAO-localization
   Andreas Hansen         : Spin unrestricted coupled pair/coupled cluster methods
   Ingolf Harden          : AUTO-CI MPn and infrastructure 
   Benjamin Helmich-Paris : MC-RPA, TRAH-(SCF,CASSCF), AVAS, COSX integrals, SCF dyn. polar.
   Lee Huntington         : MR-EOM, pCC
   Robert Izsak           : Overlap fitted RIJCOSX, COSX-SCS-MP3, EOM
   Riya Kayal             : Wick's Theorem for AUTO-CI, AUTO-CI UHF-CCSDT
   Emily Kempfer          : AUTO-CI, RHF CISDT and CCSDT
   Christian Kollmar      : KDIIS, OOCD, Brueckner-CCSD(T), CCSD density, CASPT2, CASPT2-K, improved NEVPT2
   Axel Koslowski         : Symmetry handling
   Simone Kossmann        : Meta GGA functionals, TD-DFT gradient, OOMP2, (MP2 Hessian; deprecated post 5.0)
   Lucas Lang             : DCDCAS
   Marvin Lechner         : AUTO-CI (C++ implementation), FIC-MRCC
   Spencer Leger          : CASSCF response
   Dagmar Lenk            : GEPOL surface, SMD, ORCA-2-JSON
   Dimitrios Liakos       : Extrapolation schemes; Compound Job, initial MDCI parallelization
   Dimitrios Manganas     : Further ROCIS development; embedding schemes. LFT, Crystal Embedding
   Dimitrios Pantazis     : SARC Basis sets
   Anastasios Papadopoulos: AUTO-CI, single reference methods and gradients
   Taras Petrenko         : pre 6.0 DFT Hessian and TD-DFT gradient, (ASA, deprecated), ECA, 1-Electron XAS/XES, NRVS
   Peter Pinski           : DLPNO-MP2, DLPNO-MP2 Gradient
   Christoph Reimann      : Effective Core Potentials
   Marius Retegan         : Local ZFS, SOC
   Christoph Riplinger    : Optimizer, TS searches, QM/MM, DLPNO-CCSD(T), (RO)-DLPNO pert. Triples
   Michael Roemelt        : Original ROCIS implementation
   Masaaki Saitow         : Open-shell DLPNO-CCSD energy and density
   Barbara Sandhoefer     : DKH picture change effects
   Kantharuban Sivalingam : CASSCF convergence/infrastructure, NEVPT2 and variants, FIC-MRCI
   Bernardo de Souza      : ESD, SOC TD-DFT
   Georgi Stoychev        : AutoAux, RI-MP2 NMR, DLPNO-MP2 response, X2C
   Van Anh Tran           : RI-MP2 g-tensors
   Willem Van den Heuvel  : Paramagnetic NMR
   Zikuan Wang            : NOTCH, Electric field optimization 
   Frank Wennmohs         : Technical directorship and infrastructure
   Hang Xu                : AUTO-CI-Response properties 


 We gratefully acknowledge several colleagues who have allowed us to
 interface, adapt or use parts of their codes:
   Stefan Grimme, W. Hujo, H. Kruse, P. Pracht,  : VdW corrections, initial TS optimization,
                  C. Bannwarth, S. Ehlert,         DFT functionals, gCP, sTDA/sTD-DF
                  L. Wittmann, M. Mueller
   Ed Valeev, F. Pavosevic, A. Kumar             : LibInt (2-el integral package), F12 methods
   Garnet Chan, S. Sharma, J. Yang, R. Olivares  : DMRG
   Ulf Ekstrom                                   : XCFun DFT Library
   Mihaly Kallay                                 : mrcc  (arbitrary order and MRCC methods)
   Frank Weinhold                                : gennbo (NPA and NBO analysis)
   Simon Mueller                                 : openCOSMO-RS
   Christopher J. Cramer and Donald G. Truhlar   : smd solvation model
   Lars Goerigk                                  : TD-DFT with DH, B97 family of functionals
   V. Asgeirsson, H. Jonsson                     : NEB implementation
   FAccTs GmbH                                   : IRC, NEB, NEB-TS, DLPNO-Multilevel, CI-OPT
                                                   MM, QMMM, 2- and 3-layer-ONIOM, Crystal-QMMM,
                                                   LR-CPCM, SF, NACMEs, symmetry and pop. for TD-DFT,
                                                   nearIR, NL-DFT gradient (VV10), updates on ESD,
                                                   ML-optimized integration grids, MBIS, APM,
                                                   GOAT, DOCKER, SOLVATOR, interface openCOSMO-RS
   S Lehtola, MJT Oliveira, MAL Marques          : LibXC Library
   Liviu Ungur et al                             : ANISO software


 Your calculation uses the libint2 library for the computation of 2-el integrals
 For citations please refer to: http://libint.valeyev.net

 Your ORCA version has been built with support for libXC version: 6.2.2
 For citations please refer to: https://libxc.gitlab.io

 This ORCA versions uses:
   CBLAS   interface :  Fast vector & matrix operations
   LAPACKE interface :  Fast linear algebra routines
   SCALAPACK package :  Parallel linear algebra routines
   Shared memory     :  Shared parallel matrices
   BLAS/LAPACK       :  OpenBLAS 0.3.27  USE64BITINT DYNAMIC_ARCH NO_AFFINITY SkylakeX SINGLE_THREADED
        Core in use  :  SkylakeX
   Copyright (c) 2011-2014, The OpenBLAS Project




***************************************
The coordinates will be read from file: xtb_opt.xyz
***************************************


Your calculation utilizes the geometrical counterpoise correction gCP
Please cite in your paper:
H.Kruse, S. Grimme J.Chem.Phys., 136, (2012), 154101 
   

Your calculation utilizes the atom-pairwise dispersion correction
based on EEQ partial charges (D4)


Your calculation utilizes the SMD solvation module
Please cite in your paper:
A.V. Marenich, C.J. Cramer, D.G. Truhlar J. Phys. Chem. B, 113, (2009), 6378 

================================================================================

----- Orbital basis set information -----
Your calculation utilizes the basis: def2-mTZVPP
   Stefan Grimme, Andreas Hansen, Sebastian Ehlert, and Jan-Michael Mewes 
   J. Chem. Phys. 154, 064103 (2021). DOI: 10.1063/5.0040021

----- AuxJ basis set information -----
Your calculation utilizes the auxiliary basis: def2/J
   F. Weigend, Phys. Chem. Chem. Phys. 8, 1057 (2006).

================================================================================
                                        WARNINGS
                       Please study these warnings very carefully!
================================================================================

WARNING: Old DensityContainer found on disk!
         Will remove this file - 
         If you want to keep old densities, please start your calculation with a different basename. 

Using LibXC functional ID 497 : Re-regularized SCAN exchange by Furness et al
[ 1]  J. W. Furness, A. D. Kaplan, J. Ning, J. P. Perdew, and J. Sun.,  J. Phys. Chem. Lett. 11, 8208-8215 (2020)
[ 2]  J. W. Furness, A. D. Kaplan, J. Ning, J. P. Perdew, and J. Sun.,  J. Phys. Chem. Lett. 11, 9248-9248 (2020)
Using LibXC functional ID 498 : Re-regularized SCAN correlation by Furness et al
[ 1]  J. W. Furness, A. D. Kaplan, J. Ning, J. P. Perdew, and J. Sun.,  J. Phys. Chem. Lett. 11, 8208-8215 (2020)
[ 2]  J. W. Furness, A. D. Kaplan, J. Ning, J. P. Perdew, and J. Sun.,  J. Phys. Chem. Lett. 11, 9248-9248 (2020)
Using LibXC functional ID 497 : Re-regularized SCAN exchange by Furness et al
[ 1]  J. W. Furness, A. D. Kaplan, J. Ning, J. P. Perdew, and J. Sun.,  J. Phys. Chem. Lett. 11, 8208-8215 (2020)
[ 2]  J. W. Furness, A. D. Kaplan, J. Ning, J. P. Perdew, and J. Sun.,  J. Phys. Chem. Lett. 11, 9248-9248 (2020)
Using LibXC functional ID 498 : Re-regularized SCAN correlation by Furness et al
[ 1]  J. W. Furness, A. D. Kaplan, J. Ning, J. P. Perdew, and J. Sun.,  J. Phys. Chem. Lett. 11, 8208-8215 (2020)
[ 2]  J. W. Furness, A. D. Kaplan, J. Ning, J. P. Perdew, and J. Sun.,  J. Phys. Chem. Lett. 11, 9248-9248 (2020)

================================================================================
                                       INPUT FILE
================================================================================
NAME = xtb_opt.inp
|  1> ! r2scan-3c def2/J RI DEFGRID2 scfconv7 ENGRAD tightSCF miniprint
|  2> %cpcm
|  3>     smd true
|  4>     smdsolvent "water"
|  5> end
|  6> * xyzfile 0 1 xtb_opt.xyz
|  7> 
|  8>                          ****END OF INPUT****
================================================================================

                     *******************************
                     * Energy+Gradient Calculation *
                     *******************************

---------------------------------
CARTESIAN COORDINATES (ANGSTROEM)
---------------------------------
  C     -3.319612   -1.090993    0.107862
  C     -1.872098   -0.725403    0.418526
  C     -1.354952    0.369785   -0.530348
  C      0.062924    0.720736   -0.180645
  O      0.389584    1.598195    0.604025
  O      0.931779   -0.099016   -0.783321
  C      2.338373    0.045170   -0.468700
  C      2.697194   -0.764378    0.763387
  H     -3.675780   -1.868757    0.787433
  H     -3.971304   -0.219738    0.214791
  H     -3.413238   -1.462769   -0.915961
  H     -1.234744   -1.610467    0.323854
  H     -1.788887   -0.370039    1.451030
  H     -1.966315    1.268816   -0.427092
  H     -1.399148    0.012961   -1.562259
  H      2.854241   -0.327723   -1.354679
  H      2.568533    1.105308   -0.333169
  H      3.773055   -0.690533    0.934840
  H      2.176980   -0.381715    1.644712
  H      2.435965   -1.815899    0.624274

----------------------------
CARTESIAN COORDINATES (A.U.)
----------------------------
  NO LB      ZA    FRAG     MASS         X           Y           Z
   0 C     6.0000    0    12.011   -6.273158   -2.061677    0.203829
   1 C     6.0000    0    12.011   -3.537753   -1.370813    0.790900
   2 C     6.0000    0    12.011   -2.560488    0.698792   -1.002213
   3 C     6.0000    0    12.011    0.118909    1.361993   -0.341370
   4 O     8.0000    0    15.999    0.736208    3.020151    1.141443
   5 O     8.0000    0    15.999    1.760806   -0.187112   -1.480263
   6 C     6.0000    0    12.011    4.418884    0.085358   -0.885715
   7 C     6.0000    0    12.011    5.096958   -1.444466    1.442592
   8 H     1.0000    0     1.008   -6.946218   -3.531440    1.488032
   9 H     1.0000    0     1.008   -7.504677   -0.415244    0.405895
  10 H     1.0000    0     1.008   -6.450086   -2.764233   -1.730915
  11 H     1.0000    0     1.008   -2.333328   -3.043341    0.611995
  12 H     1.0000    0     1.008   -3.380507   -0.699272    2.742049
  13 H     1.0000    0     1.008   -3.715796    2.397715   -0.807087
  14 H     1.0000    0     1.008   -2.644006    0.024493   -2.952241
  15 H     1.0000    0     1.008    5.393733   -0.619308   -2.559973
  16 H     1.0000    0     1.008    4.853825    2.088730   -0.629599
  17 H     1.0000    0     1.008    7.130040   -1.304918    1.766591
  18 H     1.0000    0     1.008    4.113895   -0.721336    3.108056
  19 H     1.0000    0     1.008    4.603306   -3.431553    1.179706

------------------------------------------------------------------------------
                   ___                                                        
                  /   \      - P O W E R E D   B Y -                         
                 /     \                                                     
                 |  |  |   _    _      __       _____    __    __             
                 |  |  |  | |  | |    /  \     |  _  \  |  |  /  |          
                  \  \/   | |  | |   /    \    | | | |  |  | /  /          
                 / \  \   | |__| |  /  /\  \   | |_| |  |  |/  /          
                |  |  |   |  __  | /  /__\  \  |    /   |      \           
                |  |  |   | |  | | |   __   |  |    \   |  |\   \          
                \     /   | |  | | |  |  |  |  | |\  \  |  | \   \       
                 \___/    |_|  |_| |__|  |__|  |_| \__\ |__|  \__/        
                                                                              
                      - O R C A' S   B I G   F R I E N D -                    
                                      &                                       
                       - I N T E G R A L  F E E D E R -                       
                                                                              
 v1 FN, 2020, v2 2021, v3 2022-2024                                           
------------------------------------------------------------------------------


----------------------
SHARK INTEGRAL PACKAGE
----------------------

Number of atoms                             ...     20
Number of basis functions                   ...    222
Number of shells                            ...    110
Maximum angular momentum                    ...      2
Integral batch strategy                     ... SHARK/LIBINT Hybrid
RI-J (if used) integral strategy            ... SPLIT-RIJ (Revised 2003 algorithm where possible)
Printlevel                                  ...      1
Contraction scheme used                     ... SEGMENTED contraction
Prescreening option                         ... SCHWARTZ
   Thresh                                   ... 3.000e-11
   Tcut                                     ... 1.000e-12
   Tpresel                                  ... 1.000e-12 
Coulomb Range Separation                    ... NOT USED
Exchange Range Separation                   ... NOT USED
Multipole approximations                    ... NOT USED
Finite Nucleus Model                        ... NOT USED
CABS basis                                  ... NOT available
Auxiliary Coulomb fitting basis             ... AVAILABLE
   # of basis functions in Aux-J            ...    524
   # of shells in Aux-J                     ...    180
   Maximum angular momentum in Aux-J        ...      4
Auxiliary J/K fitting basis                 ... NOT available
Auxiliary Correlation fitting basis         ... NOT available
Auxiliary 'external' fitting basis          ... NOT available

Checking pre-screening integrals            ... done (  0.0 sec) Dimension = 110
Check shell pair data                       ... done (  0.0 sec)
Shell pair information
Shell pair cut-off parameter TPreSel        ...   1.0e-12
Total number of shell pairs                 ...      6105
Shell pairs after pre-screening             ...      5344
Total number of primitive shell pairs       ...     21533
Primitive shell pairs kept                  ...     13359
          la=0 lb=0:   1787 shell pairs
          la=1 lb=0:   2016 shell pairs
          la=1 lb=1:    588 shell pairs
          la=2 lb=0:    574 shell pairs
          la=2 lb=1:    327 shell pairs
          la=2 lb=2:     52 shell pairs

Calculating one electron integrals          ... done (  0.0 sec)
Calculating RI/J V-Matrix + Cholesky decomp.... done (  0.1 sec)
Calculating Nuclear repulsion               ... done (  0.0 sec) ENN=    390.055843590879 Eh

Diagonalization of the overlap matrix:
Smallest eigenvalue                        ... 1.314e-04
Time for diagonalization                   ...    0.005 sec
Threshold for overlap eigenvalues          ... 1.000e-07
Number of eigenvalues below threshold      ... 0
Time for construction of square roots      ...    0.017 sec
Total time needed                          ...    0.033 sec

-------------------
DFT GRID GENERATION
-------------------

General Integration Accuracy     IntAcc      ... 4.388
Radial Grid Type                 RadialGrid  ... OptM3 with GC (2021)
Angular Grid (max. ang.)         AngularGrid ... 4 (Lebedev-302)
Angular grid pruning method      GridPruning ... 4 (adaptive)
Weight generation scheme         WeightScheme... mBecke (2022)
Basis function cutoff            BFCut       ... 1.0000e-11
Integration weight cutoff        WCut        ... 1.0000e-14
Partially contracted basis set               ... off
Rotationally invariant grid construction     ... off
Angular grids for H and He will be reduced by one unit
Diffuse basis detected: some atoms will have their outermost
                        angular grid increased by 1.

Total number of grid points                  ...    87415
Total number of batches                      ...     1380
Average number of points per batch           ...       63
Average number of grid points per atom       ...     4371
Initializing property integral containers    ... done (  0.0 sec)

SHARK setup successfully completed in   1.3 seconds

Maximum memory used throughout the entire STARTUP-calculation: 39.4 MB
Occupation numbers will be reassigned to an Aufbau configuration
             **** ENERGY FILE WAS UPDATED (xtb_opt.en.tmp) ****
Finished Guess after   0.3 sec
Maximum memory used throughout the entire GUESS-calculation: 15.1 MB
--------------------
CPCM SOLVATION MODEL
--------------------
CPCM parameters:
  Epsilon                                         ...      78.3550
  Refrac                                          ...       1.3328
  Rsolv                                           ...       1.3000
  Surface type                                    ... GAUSSIAN VDW
  Discretization scheme                           ... Constant charge density
    Threshold for H atoms                         ...       5.0000 (charges/Ang^2)
    Threshold for non-H atoms                     ...       5.0000 (charges/Ang^2)
  Epsilon function type                           ...         CPCM
Solvent:                                          ... WATER
SMD-CDS solvent descriptors:
  Soln                                            ...       1.3328
  Soln25                                          ...       1.3323
  Sola                                            ...       0.0000
  Solb                                            ...       0.0000
  Solg                                            ...       0.0000
  Solc                                            ...       0.0000
  Solh                                            ...       0.0000
Radii:
  Scheme                                          ... Element-dependent radii
  Radius for C  used is    3.4960 Bohr (=   1.8500 Ang.)
  Radius for O  used is    2.8724 Bohr (=   1.5200 Ang.)
  Radius for H  used is    2.2677 Bohr (=   1.2000 Ang.)
Calculating surface                               ...        done! (  0.0s)
Cavity surface points                             ...         1506
Cavity Volume                                     ...     884.0456
Cavity Surface-area                               ...     593.4466
Calculating surface distance matrix               ...        done! (  0.0s)
Performing Cholesky decomposition & store         ...        done! (  0.1s)
Overall time for CPCM initialization              ...                 0.1s

----------------------------------------D-I-I-S--------------------------------------------
Iteration    Energy (Eh)           Delta-E    RMSDP     MaxDP     DIISErr   Damp  Time(sec)
-------------------------------------------------------------------------------------------
               ***  Starting incremental Fock matrix formation  ***
    1    -386.2560049020858060     0.00e+00  7.67e-05  2.22e-03  8.25e-03  0.700   3.7
    2    -386.2561484942362995    -1.44e-04  6.67e-05  1.85e-03  6.26e-03  0.700   3.7
                               ***Turning on AO-DIIS***
    3    -386.2562526677487540    -1.04e-04  4.93e-05  1.30e-03  4.49e-03  0.700   3.0
                              *** Initializing SOSCF ***
---------------------------------------S-O-S-C-F--------------------------------------
Iteration    Energy (Eh)           Delta-E    RMSDP     MaxDP     MaxGrad    Time(sec)
--------------------------------------------------------------------------------------
    4    -386.2563248636226945    -7.22e-05  1.16e-04  2.78e-03  3.17e-03     3.0
               *** Restarting incremental Fock matrix formation ***
    5    -386.2564950595270830    -1.70e-04  1.13e-05  1.99e-04  6.18e-05     3.5
    6    -386.2564949673156889     9.22e-08  5.58e-06  1.10e-04  8.21e-05     3.6
                 **** Energy Check signals convergence ****

               *****************************************************
               *                     SUCCESS                       *
               *           SCF CONVERGED AFTER   6 CYCLES          *
               *****************************************************


SMD CDS free energy correction energy :                 5.00340     Kcal/mol
Total Energy after SMD CDS correction =              -386.248521541 Eh
             **** ENERGY FILE WAS UPDATED (xtb_opt.en.tmp) ****

----------------
TOTAL SCF ENERGY
----------------

Total Energy       :       -386.24852154123397 Eh          -10510.35661 eV

Components:
Nuclear Repulsion  :        390.05584359087902 Eh           10613.95911 eV
Electronic Energy  :       -776.29629749413562 Eh          -21124.09618 eV
One Electron Energy:      -1297.47502918415876 Eh          -35306.09047 eV
Two Electron Energy:        521.17873169002314 Eh           14181.99429 eV
CPCM Dielectric    :         -0.01604106405913 Eh              -0.43650 eV
SMD CDS (Gcds)     :          0.00797342608172 Eh               0.21697 eV

Virial components:
Potential Energy   :       -770.75011459395273 Eh          -20973.17687 eV
Kinetic Energy     :        384.50159305271876 Eh           10462.82027 eV
Virial Ratio       :          2.00454335825931

DFT components:
N(Alpha)           :       31.999976158786 electrons
N(Beta)            :       31.999976158786 electrons
N(Total)           :       63.999952317573 electrons
E(X)               :      -52.049906017637 Eh       
E(C)               :       -2.035308833465 Eh       
E(XC)              :      -54.085214851101 Eh       

CPCM Solvation Model Properties:
Surface-charge          :         -0.04775880237618
Corrected charge        :          0.00000000000000
Outlying charge corr.   :          0.00017121178633 Eh               0.00466 eV
Free-energy (cav+disp)  :          0.00797342608172 Eh               0.21697 eV

---------------
SCF CONVERGENCE
---------------

  Last Energy change         ...   -9.2211e-08  Tolerance :   1.0000e-07
  Last MAX-Density change    ...    1.1001e-04  Tolerance :   1.0000e-07
  Last RMS-Density change    ...    5.5775e-06  Tolerance :   5.0000e-09
  Last DIIS Error            ...    3.1706e-03  Tolerance :   1.0000e-07
  Last Orbital Gradient      ...    8.2122e-05  Tolerance :   1.0000e-04
  Last Orbital Rotation      ...    1.4681e-04  Tolerance :   1.0000e-04


----------------
ORBITAL ENERGIES
----------------

  NO   OCC          E(Eh)            E(eV) 
   0   2.0000     -19.001608      -517.0600 
   1   2.0000     -18.944812      -515.5146 
   2   2.0000     -10.164272      -276.5839 
   3   2.0000     -10.083957      -274.3984 
   4   2.0000     -10.036520      -273.1076 
   5   2.0000     -10.032711      -273.0040 
   6   2.0000     -10.020469      -272.6708 
   7   2.0000     -10.015163      -272.5265 
   8   2.0000      -1.072405       -29.1816 
   9   2.0000      -0.985194       -26.8085 
  10   2.0000      -0.768953       -20.9243 
  11   2.0000      -0.731579       -19.9073 
  12   2.0000      -0.673972       -18.3397 
  13   2.0000      -0.613590       -16.6966 
  14   2.0000      -0.561862       -15.2890 
  15   2.0000      -0.519962       -14.1489 
  16   2.0000      -0.471593       -12.8327 
  17   2.0000      -0.459791       -12.5116 
  18   2.0000      -0.436904       -11.8888 
  19   2.0000      -0.423835       -11.5331 
  20   2.0000      -0.407435       -11.0869 
  21   2.0000      -0.383646       -10.4395 
  22   2.0000      -0.362348        -9.8600 
  23   2.0000      -0.356744        -9.7075 
  24   2.0000      -0.354443        -9.6449 
  25   2.0000      -0.339445        -9.2368 
  26   2.0000      -0.321096        -8.7375 
  27   2.0000      -0.306201        -8.3322 
  28   2.0000      -0.304756        -8.2928 
  29   2.0000      -0.299737        -8.1563 
  30   2.0000      -0.277324        -7.5464 
  31   2.0000      -0.249836        -6.7984 
  32   0.0000      -0.026907        -0.7322 
  33   0.0000       0.077785         2.1166 
  34   0.0000       0.095229         2.5913 
  35   0.0000       0.112518         3.0618 
  36   0.0000       0.129846         3.5333 
  37   0.0000       0.135014         3.6739 
  38   0.0000       0.138770         3.7761 
  39   0.0000       0.143257         3.8982 
  40   0.0000       0.152250         4.1429 
  41   0.0000       0.166607         4.5336 
  42   0.0000       0.170369         4.6360 
*Only the first 10 virtual orbitals were printed.
Total SCF time: 0 days 0 hours 0 min 21 sec 
Finished LeanSCF after  21.4 sec

Maximum memory used throughout the entire LEANSCF-calculation: 30.7 MB


-------------------------------------------------------------------------------
                          DFT DISPERSION CORRECTION                            
                                                                               
                                DFTD4 V3.4.0                                   
-------------------------------------------------------------------------------
-------------------------   ----------------
Dispersion correction           -0.005020940
-------------------------   ----------------

------------------   -----------------
[...]
  Last MAX-Density change    ...    6.4444e-05  Tolerance :   1.0000e-07
  Last RMS-Density change    ...    2.0310e-06  Tolerance :   5.0000e-09
  Last DIIS Error            ...    5.9164e-05  Tolerance :   1.0000e-07
  Last Orbital Gradient      ...    2.2976e-05  Tolerance :   1.0000e-04
  Last Orbital Rotation      ...    5.6351e-05  Tolerance :   1.0000e-04


----------------
ORBITAL ENERGIES
----------------

  NO   OCC          E(Eh)            E(eV) 
   0   2.0000     -19.000831      -517.0389 
   1   2.0000     -18.945018      -515.5202 
   2   2.0000     -10.164189      -276.5817 
   3   2.0000     -10.084493      -274.4130 
   4   2.0000     -10.037050      -273.1220 
   5   2.0000     -10.033145      -273.0157 
   6   2.0000     -10.020457      -272.6705 
   7   2.0000     -10.015310      -272.5304 
   8   2.0000      -1.067607       -29.0511 
   9   2.0000      -0.983326       -26.7576 
  10   2.0000      -0.768032       -20.8992 
  11   2.0000      -0.730917       -19.8893 
  12   2.0000      -0.673953       -18.3392 
  13   2.0000      -0.611485       -16.6393 
  14   2.0000      -0.561789       -15.2871 
  15   2.0000      -0.517998       -14.0954 
  16   2.0000      -0.471503       -12.8303 
  17   2.0000      -0.457771       -12.4566 
  18   2.0000      -0.435800       -11.8587 
  19   2.0000      -0.422729       -11.5031 
  20   2.0000      -0.407308       -11.0834 
  21   2.0000      -0.385156       -10.4806 
  22   2.0000      -0.361659        -9.8412 
  23   2.0000      -0.356694        -9.7061 
  24   2.0000      -0.353052        -9.6070 
  25   2.0000      -0.339161        -9.2291 
  26   2.0000      -0.321222        -8.7409 
  27   2.0000      -0.305979        -8.3261 
  28   2.0000      -0.304981        -8.2990 
  29   2.0000      -0.299265        -8.1434 
  30   2.0000      -0.278152        -7.5689 
  31   2.0000      -0.249861        -6.7991 
  32   0.0000      -0.028053        -0.7634 
  33   0.0000       0.076511         2.0820 
  34   0.0000       0.091390         2.4869 
  35   0.0000       0.112200         3.0531 
  36   0.0000       0.129464         3.5229 
  37   0.0000       0.134615         3.6631 
  38   0.0000       0.138369         3.7652 
  39   0.0000       0.143958         3.9173 
  40   0.0000       0.151720         4.1285 
  41   0.0000       0.165733         4.5098 
  42   0.0000       0.170054         4.6274 
*Only the first 10 virtual orbitals were printed.
Total SCF time: 0 days 0 hours 0 min 8 sec 
Finished LeanSCF after   8.4 sec

Maximum memory used throughout the entire LEANSCF-calculation: 30.8 MB


-------------------------------------------------------------------------------
                          DFT DISPERSION CORRECTION                            
                                                                               
                                DFTD4 V3.4.0                                   
-------------------------------------------------------------------------------
-------------------------   ----------------
Dispersion correction           -0.005024860
-------------------------   ----------------

------------------   -----------------
gCP correction             0.011436606
------------------   -----------------

-------------------------   --------------------
FINAL SINGLE POINT ENERGY      -386.242393404819
-------------------------   --------------------

------------------------------------------------------------------------------
                         ORCA SCF GRADIENT CALCULATION
------------------------------------------------------------------------------

Nuc. rep. gradient        (SHARK) ... done (  0.0 sec)
HCore & Overlap gradient  (SHARK) ... done (  0.4 sec)
Split-RIJ-J gradient      (SHARK) ... done (  1.8 sec)
XC gradient                       ... done (  6.8 sec)
CPCM gradient                     ... done (  0.9 sec)
SMD gradient                      ... done (  0.0 sec)
Dispersion correction             ... done (  0.0 sec)

-------------------
DISPERSION GRADIENT
-------------------

   1   C   :   -0.000073538   -0.000032849    0.000004365
   2   C   :   -0.000070324   -0.000025048    0.000016109
   3   C   :   -0.000058429    0.000025502   -0.000026835
   4   C   :    0.000011628    0.000048330   -0.000014687
   5   O   :    0.000010990    0.000084231    0.000024420
   6   O   :    0.000047683    0.000009750   -0.000037476
   7   C   :    0.000075293    0.000005529   -0.000016627
   8   C   :    0.000085181   -0.000029363    0.000028075
   9   H   :   -0.000023156   -0.000016588    0.000007285
  10   H   :   -0.000028467   -0.000008174    0.000003938
  11   H   :   -0.000027095   -0.000016247   -0.000003473
  12   H   :   -0.000034257   -0.000024602    0.000004070
  13   H   :   -0.000031161   -0.000005446    0.000019037
  14   H   :   -0.000015407    0.000021623   -0.000004743
  15   H   :   -0.000016600    0.000005008   -0.000024002
  16   H   :    0.000026906   -0.000005826   -0.000014557
  17   H   :    0.000021774    0.000005946   -0.000004707
  18   H   :    0.000026635   -0.000011219    0.000010768
  19   H   :    0.000035929   -0.000006612    0.000019574
  20   H   :    0.000036415   -0.000023946    0.000009468

Difference to translation invariance:
           :   -0.0000000000   -0.0000000000   -0.0000000000

Difference to rotation invariance:
           :   -0.0000000000    0.0000000000   -0.0000000000

Norm of the Dispersion gradient    ...    0.0002448801
RMS gradient                       ...    0.0000316139
MAX gradient                       ...    0.0000851807
gCP correction                   ... done

------------------
CARTESIAN GRADIENT
------------------

   1   C   :    0.000006943   -0.000024127    0.000011418
   2   C   :    0.000014831    0.000015924   -0.000029295
   3   C   :    0.000024604    0.000022477    0.000021213
   4   C   :    0.000072669   -0.000078314   -0.000022346
   5   O   :   -0.000024350    0.000046444   -0.000008726
   6   O   :   -0.000022462    0.000004297    0.000041833
   7   C   :   -0.000041042    0.000033379   -0.000034264
   8   C   :    0.000003045    0.000002689    0.000007964
   9   H   :   -0.000016544   -0.000025651    0.000015662
  10   H   :   -0.000014321    0.000021789   -0.000010310
  11   H   :    0.000006291   -0.000023293   -0.000035531
  12   H   :    0.000023706   -0.000007615    0.000003441
  13   H   :    0.000005310    0.000002519    0.000011866
  14   H   :   -0.000002499    0.000003613    0.000014140
  15   H   :   -0.000017943    0.000013866   -0.000012431
  16   H   :   -0.000001900    0.000004248    0.000004035
  17   H   :    0.000009520   -0.000022879   -0.000020141
  18   H   :    0.000004495    0.000022069    0.000023151
  19   H   :   -0.000025156    0.000011006    0.000004829
  20   H   :   -0.000005197   -0.000022441    0.000013492

Difference to translation invariance:
           :    0.0000000000    0.0000000000   -0.0000000000

Difference to rotation invariance:
           :   -0.0001637708   -0.0002527429    0.0003515194

Norm of the Cartesian gradient     ...    0.0001838790
RMS gradient                       ...    0.0000237387
MAX gradient                       ...    0.0000783138

-------
TIMINGS
-------

Total SCF gradient time     ....       10.776 sec

Densities                   ....       0.001 sec  (  0.0%)
One electron gradient       ....       0.351 sec  (  3.3%)
RI-J Coulomb gradient       ....       1.813 sec  ( 16.8%)
XC gradient                 ....       6.754 sec  ( 62.7%)
CPCM gradient               ....       0.950 sec  (  8.8%)
   A-Matrix (El+Nuc)        ....       0.081 sec  (  0.8%)
   Potential                ....       0.868 sec  (  8.1%)
SMD gradient                ....       0.019 sec  (  0.2%)

Maximum memory used throughout the entire SCFGRAD-calculation: 35.4 MB

------------------------------------------------------------------------------
                              ORCA PROPERTY CALCULATIONS
------------------------------------------------------------------------------

GBWName                                 ... xtb_opt.gbw
Number of atoms                         ...     20
Number of basis functions               ...    222
Max core memory                         ...   1024 MB

Electric properties:
Dipole moment                           ... YES
Quadrupole moment                       ...  NO
Static polarizability (Dipole/Dipole)   ...  NO
Static polarizability (Dipole/Quad.)    ...  NO
Static polarizability (Quad./Quad.)     ...  NO
Static polarizability (Velocity)        ...  NO

Atomic electric properties:
Dipole moment                           ...  NO
Quadrupole moment                       ...  NO
Static polarizability                   ...  NO

Choice of electric origin               ... Center of mass
Position of electric origin             ...     0.009581    -0.007507    -0.005564

General magnetic properties:
Magnetizability                         ...  NO

EPR properties:
g-Tensor (aka g-matrix)                 ...  NO
Zero-Field splitting spin-orbit         ...  NO
Zero-field splitting spin-spin          ...  NO
Hyperfine couplings                     ...  NO (   0 nuclei)
Quadrupole couplings                    ...  NO (   0 nuclei)
Contact density                         ...  NO (   0 nuclei)

NMR properties:
Chemical shifts                         ...  NO (   0 nuclei)
Spin-rotation constants                 ...  NO (   0 nuclei)
Spin-spin couplings                     ...  NO (   0 nuclei,    0 pairs)

Choice of magnetic origin               ... GIAO
Position of magnetic origin             ...     0.000000     0.000000     0.000000

Properties with geometric perturbations:
SCF Hessian                             ...  NO
IR spectrum                             ...  NO
VCD spectrum                            ...  NO
X-ray spectroscopy properties:
SCF XES/XAS/RIXS spectra                ...  NO


-------------
DIPOLE MOMENT
-------------

Method             : SCF
Type of density    : Electron Density
Multiplicity       :   1
Irrep              :   0
Energy             :  -386.2488051503140696 Eh
Relativity type    : 
Basis              : AO
                                X                 Y                 Z
Electronic contribution:      3.562153118       4.867389184      -1.896494873
Nuclear contribution   :     -3.487238982      -5.856673068       1.343789099
                        -----------------------------------------
Total Dipole Moment    :      0.074914136      -0.989283884      -0.552705774
                        -----------------------------------------
Magnitude (a.u.)       :      1.135684112
Magnitude (Debye)      :      2.886679606



--------------------
Rotational spectrum 
--------------------
 
Rotational constants in cm-1:             0.131643             0.032999             0.030777 
Rotational constants in MHz :          3946.549540           989.297146           922.676384 

Dipole components along the rotational axes: 
x,y,z [a.u.] :    -0.050307    -0.939844    -0.635564 
x,y,z [Debye]:    -0.127870    -2.388893    -1.615474 

 

Dipole moment calculation done in   0.1 sec 

Maximum memory used throughout the entire PROP-calculation: 13.9 MB

--------------------------------
SUGGESTED CITATIONS FOR THIS RUN
--------------------------------

Below you find a list of papers that are relevant to this ORCA run
We neither can nor want to force you to cite these papers, but we appreciate if you do
You receive ORCA, which is the product of decades of hard work by many enthusiastic individuals, for free
The only thing we kindly ask in return is that you cite our papers,
We deeply appreciate it, if you show your appreciation for ORCA by not just citing the generic ORCA reference.

Please note that relegating all ORCA citations to the supporting information does *not* help us.
SI sections are not indexed - citations you put there will not count into any citation statistics
But we need these citations in order to attract the funding resources that allow us to do what we are doing

Therefore, if you are a happy ORCA user, please consider citing a few of the papers listed below in the main body of your paper

In addition to the list printed below, the program has created the file xtb_opt.bibtex that contains the list in bibtex format
You can import this file easily into all common literature databanks and citation aid programs


List of essential papers. We consider these as the minimum necessary citations

  1. Neese,F.
     Software update: the ORCA program system, version 5.0
     WIRES Comput. Molec. Sci., 2022 12(1)e1606
     doi.org/10.1002/wcms.1606
  2. Grimme,S.; Hansen,A.; Ehlert,S.; Mewes,J.
     r2SCAN-3c: A 'Swiss army knife' composite electronic-structure method
     J. Chem. Phys., 2021 154 064103
     doi.org/10.1063/5.0040021

List of papers to cite with high priority. The work reported in these papers was absolutely
necessary for this run to complete.
Our perspective: the developers of density functionals and basis sets usually get cited in chemistry papers
Good! But without the algorithms to do something with them, the functionals or basis sets would not do anything.
Hence, in our opinion, the algorithm design and method developments papers are equally worthy of getting cited

  1. Neese,F.
     An improvement of the resolution of the identity approximation for the formation of the Coulomb matrix
     J. Comp. Chem., 2003 24(14)1740-1747
     doi.org/10.1002/jcc.10318
  2. Garcia-Rates,M.; Neese,F.
     Effect of the Solute Cavity on the Solvation Energy and its Derivatives within the Framework of the Gaussian Charge Scheme
     J. Comput. Chem., 2020 41 922-939
     doi.org/10.1002/jcc.26139
  3. Neese,F.
     The SHARK Integral Generation and Digestion System
     J. Comp. Chem., 2022  1-16
     doi.org/10.1002/jcc.26942
  4. Lehtola,S.; Steigemann,C.; Oliveira,M.; Marques,M.
     Recent developments in Libxc - A comprehensive library of functionals for density functional theory
     Software X, 2018 7 
     doi.org/10.1016/j.softx.2017.11.002
  5. Caldeweyher,E.; Bannwarth,C.; Grimme,S.
     Extension of the D3 dispersion coefficient model
     J. Chem. Phys., 2017 147 034112-XXXX
     doi.org/10.1063/1.4993215
  6. Caldeweyher,E.; Ehlert,S.; Hansen,A.; Neugebauer,H.; Spicher,S.; Bannwarth,C.; Grimme,S.
     A generally applicable atomic-charge dependent London dispersion correction
     J. Chem. Phys., 2019 150 154122-XXXX
     doi.org/10.1063/1.5090222
  7. Caldeweyher,E.; Mewes,J.; Ehlert,S.; Grimme,S.
     Extension and evaluation of the D4 London-dispersion model for periodic systems
     Phys. Chem. Chem. Phys., 2020 22(16)8499-8512
     doi.org/10.1039/D0CP00502A

List of suggested additional citations. These are papers that are important in the 'surrounding' of 
of this run, or papers that preceded the highly important papers. If you like your results we are grateful for a citation.

  1. Neese,F.
     The ORCA program system
     WIRES Comput. Molec. Sci., 2012 2(1)73-78
     doi.org/10.1002/wcms.81
  2. Neese,F.
     Software update: the ORCA program system, version 4.0
     WIRES Comput. Molec. Sci., 2018 8(1)1-6
     doi.org/10.1002/wcms.1327
  3. Neese,F.; Wennmohs,F.; Becker,U.; Riplinger,C.
     The ORCA quantum chemistry program package
     J. Chem. Phys., 2020 152 Art. No. L224108
     doi.org/10.1063/5.0004608

List of optional additional citations

  1. Neese,F.
     Approximate second-order SCF convergence for spin unrestricted wavefunctions
     Chem. Phys. Lett., 2000 325(1-3)93-98
     doi.org/10.1016/s0009-2614(00)00662-x

Timings for individual modules:

Sum of individual times          ...       21.321 sec (=   0.355 min)
Startup calculation              ...        1.442 sec (=   0.024 min)   6.8 %
SCF iterations                   ...        8.802 sec (=   0.147 min)  41.3 %
Property calculations            ...        0.186 sec (=   0.003 min)   0.9 %
SCF Gradient evaluation          ...       10.891 sec (=   0.182 min)  51.1 %
                             ****ORCA TERMINATED NORMALLY****
TOTAL RUN TIME: 0 days 0 hours 0 minutes 22 seconds 592 msec
  ------------------------------------------------------------------------
          * successful ORCA run, taking over control again...

         :::::::::::::::::::::::::::::::::::::::::::::::::::::
         ::                  ORCA SUMMARY                   ::
         :::::::::::::::::::::::::::::::::::::::::::::::::::::
         :: total energy            -386.242393404819 Eh    ::
         :: gradient norm              0.000183878997 Eh/a0 ::
         :: HOMO-LUMO gap              0.000000000000 eV    ::
         :::::::::::::::::::::::::::::::::::::::::::::::::::::

           -------------------------------------------------
          |                Property Printout                |
           -------------------------------------------------
           -------------------------------------------------
          |                Geometry Summary                 |
           -------------------------------------------------

      molecular mass/u    :      116.1585142
   center of mass at/Å    :        0.0050799      -0.0039607      -0.0029462
  moments of inertia/u·Å² :        0.1280548E+03   0.5108339E+03   0.5477186E+03
rotational constants/cm⁻¹ :        0.1316439E+00   0.3300022E-01   0.3077790E-01

 * 16 selected distances

     #   Z          #   Z                                           value/Å
     1   6 C        2   6 C                                       1.5242037 (max)
     4   6 C        5   8 O                                       1.2214378
     4   6 C        6   8 O                                       1.3479059
     7   6 C        8   6 C                                       1.5112588
     1   6 C        9   1 H                                       1.0944328
     1   6 C       10   1 H                                       1.0952896
     1   6 C       11   1 H                                       1.0952845
     2   6 C       12   1 H                                       1.0961395
     2   6 C       13   1 H                                       1.0961469
     3   6 C       14   1 H                                       1.0935495
     3   6 C       15   1 H                                       1.0937482
     7   6 C       16   1 H                                       1.0915340 (min)
     7   6 C       17   1 H                                       1.0928267
     8   6 C       18   1 H                                       1.0946429
     8   6 C       19   1 H                                       1.0933627
     8   6 C       20   1 H                                       1.0939132

 * 3 distinct bonds (by element types)

   Z      Z             #   av. dist./Å        max./Å        min./Å
   1 H    6 C          12     1.0942392     1.0961469     1.0915340
   6 C    6 C           2     1.5177312     1.5242037     1.5112588
   6 C    8 O           2     1.2846718     1.3479059     1.2214378


optimized geometry written to: xtbopt.coord


           -------------------------------------------------
          | TOTAL ENERGY             -386.242393404819 Eh   |
          | GRADIENT NORM               0.000183878997 Eh/α |
           -------------------------------------------------

------------------------------------------------------------------------
 * finished run on 2025/04/11 at 16:32:15.818     
------------------------------------------------------------------------
 total:
 * wall-time:     0 d,  0 h,  5 min, 49.836 sec
 *  cpu-time:     0 d,  0 h,  0 min,  2.511 sec
 * ratio c/w:     0.007 speedup
 SCF:
 * wall-time:     0 d,  0 h,  0 min, 28.815 sec
 *  cpu-time:     0 d,  0 h,  0 min,  1.024 sec
 * ratio c/w:     0.036 speedup
 ANC optimizer:
 * wall-time:     0 d,  0 h,  5 min, 20.943 sec
 *  cpu-time:     0 d,  0 h,  0 min,  1.301 sec
 * ratio c/w:     0.004 speedup

