20
 energy: -386.240918394970 gnorm: 0.036696683725 xtb: 6.7.1 (edcfbbe)
C           -3.31544019256916       -1.08762554378196        0.10509826814657
C           -1.86998514462864       -0.72269179042024        0.41764314298507
C           -1.35581047990080        0.36975008446385       -0.53222995053585
C            0.06401246302837        0.70966289331447       -0.16883288067481
O            0.39077711117316        1.59384623640628        0.59602727176412
O            0.92610377121038       -0.10020110054440       -0.76990989234117
C            2.32462747473010        0.04046145021793       -0.46883429360775
C            2.70347649729798       -0.76693727443985        0.76328547263823
H           -3.66135233722244       -1.86099495872466        0.78537506804802
H           -3.95973341045466       -0.21899518749704        0.21361542229466
H           -3.40261441060779       -1.45760465964590       -0.91311787670463
H           -1.23638814764788       -1.60585561851160        0.31791017044087
H           -1.79234778679424       -0.36393188336127        1.44620898064085
H           -1.96781578247199        1.26542011646074       -0.43008008369058
H           -1.38498077531372        0.00642484160285       -1.55858932829065
H            2.83599320845670       -0.32807429584538       -1.35849338300198
H            2.54281562052679        1.10177418308823       -0.31596800744001
H            3.77281591127183       -0.68867711570517        0.92969399121197
H            2.18115362706653       -0.38105533006886        1.63599181252495
H            2.43724137378001       -1.81115520060257        0.62376344947641
20
 energy: -386.242045967129 gnorm: 0.014440979392 xtb: 6.7.1 (edcfbbe)
C           -3.31961226286284       -1.09099252605458        0.10786150053333
C           -1.87209820924552       -0.72540325545899        0.41852617004680
C           -1.35495184944637        0.36978495979253       -0.53034831056768
C            0.06292413525878        0.72073567002956       -0.18064524354886
O            0.38958446017811        1.59819491210044        0.60402544617314
O            0.93177851555388       -0.09901550963828       -0.78332124119108
C            2.33837260676641        0.04516969246186       -0.46870010251275
C            2.69719378520161       -0.76437832495197        0.76338688168993
H           -3.67578046293957       -1.86875749767448        0.78743257831531
H           -3.97130426115465       -0.21973769102497        0.21479053137148
H           -3.41323838624403       -1.46276891054020       -0.91596084180631
H           -1.23474390013712       -1.61046683584134        0.32385362021459
H           -1.78888746946108       -0.37003892600740        1.45103002319546
H           -1.96631473407843        1.26881620192243       -0.42709221672250
H           -1.39914751132573        0.01296089470788       -1.56225866441692
H            2.85424070050252       -0.32772344747083       -1.35467923322558
H            2.56853349899414        1.10530806043819       -0.33316949687252
H            3.77305480974059       -0.69053292982267        0.93483960779149
H            2.17697964707477       -0.38171478321893        1.64471235383714
H            2.43596477787445       -1.81589945961006        0.62427361318120
20
 energy: -386.242281071010 gnorm: 0.006140498101 xtb: 6.7.1 (edcfbbe)
C           -3.32266619231887       -1.09065491998355        0.10842855958637
C           -1.87509596312044       -0.72659377502835        0.42048273265417
C           -1.35588271577408        0.36942519901680       -0.52889350209828
C            0.06078962706965        0.71232463252649       -0.17617317113258
O            0.39046396445859        1.59476883437973        0.60469941070989
O            0.93573951275768       -0.10026677662940       -0.79711275642191
C            2.34928835684013        0.04797835083880       -0.46937370219396
C            2.69592547236137       -0.75936329732276        0.76244159582213
H           -3.68405282231945       -1.87056678335645        0.78731376634839
H           -3.97911766217068       -0.21917979813510        0.21470585205558
H           -3.42093283107469       -1.46390066849139       -0.91767796226417
H           -1.23647838598628       -1.61322030126938        0.32852713215586
H           -1.78927489742925       -0.37391557914235        1.45536536460918
H           -1.96408723125086        1.27253932919807       -0.42548818734431
H           -1.40966455997717        0.01749884012002       -1.56405253823018
H            2.86981750201217       -0.32685817772283       -1.35277404365902
H            2.58062552541426        1.10851034183523       -0.34319670700950
H            3.77423011697227       -0.68955037815892        0.94288525752626
H            2.17393085575223       -0.38119373643908        1.64716085291336
H            2.43898992225472       -1.81424269990079        0.62128797802958
20
 energy: -386.242334110953 gnorm: 0.003350022945 xtb: 6.7.1 (edcfbbe)
C           -3.32391660859700       -1.09081085074213        0.10912885653118
C           -1.87651587802683       -0.72813685166094        0.42071351313643
C           -1.35505216542256        0.36884427776636       -0.52677083055573
C            0.06246796520663        0.71358402259644       -0.18211605422974
O            0.39410958426192        1.58704565571296        0.60637126447197
O            0.93829050771542       -0.09769438424360       -0.80842705824852
C            2.35365867110706        0.04787255053678       -0.46990705230075
C            2.69435669775734       -0.75644906891080        0.76319152713295
H           -3.68619741254842       -1.87068139393017        0.78730748618531
H           -3.97997382391559       -0.21932241825889        0.21582285259535
H           -3.42300454199062       -1.46339285642438       -0.91693118840429
H           -1.23839436613712       -1.61494473396168        0.32791857543305
H           -1.79025835453720       -0.37650340959260        1.45585516595304
H           -1.96226528135141        1.27217818621308       -0.41910423486981
H           -1.41376205102210        0.02012066467885       -1.56261919330495
H            2.87638031160630       -0.32985377441955       -1.35104850942702
H            2.58279341231035        1.10922943071763       -0.34698064869839
H            3.77184155113855       -0.68768323748678        0.94932867421086
H            2.16912248129449       -0.37858642708673        1.64564825461746
H            2.43886632637476       -1.81127703698342        0.62117365769749
20
 energy: -386.242359013536 gnorm: 0.001487307240 xtb: 6.7.1 (edcfbbe)
C           -3.32417917696890       -1.08992528984127        0.10899090021721
C           -1.87674157717784       -0.72968358655074        0.42109269672488
C           -1.35396065739940        0.36761966309519       -0.52526902562608
C            0.06440513397036        0.70973759325905       -0.18134919067953
O            0.39787137756726        1.57751709443060        0.61077826217769
O            0.94027246486691       -0.09644760211629       -0.81593539460541
C            2.35649906424684        0.04841342908261       -0.47246826705460
C            2.69117302998466       -0.75332261691654        0.76324917353038
H           -3.68646262838694       -1.86918948641666        0.78684711992864
H           -3.97854236408951       -0.21808408838759        0.21638318641760
H           -3.42331466098315       -1.46175192115891       -0.91659080594859
H           -1.24012073764476       -1.61702546526333        0.32724848078867
H           -1.79086508555931       -0.37856250384737        1.45606450126568
H           -1.95922072778506        1.27167787463625       -0.41450630998011
H           -1.41454313497954        0.02071492408314       -1.56110098783771
H            2.88027899541250       -0.33254997889532       -1.35142758399412
H            2.58336351222027        1.11043478043482       -0.35137778300027
H            3.76721125770186       -0.68377574364284        0.95357416131513
H            2.16246386036796       -0.37429875863964        1.64238256482936
H            2.43695852091151       -1.80796077328466        0.62196806892610
20
 energy: -386.242378479358 gnorm: 0.002433117191 xtb: 6.7.1 (edcfbbe)
C           -3.32417008569732       -1.08819715778670        0.10881012712948
C           -1.87583713010278       -0.73255577300667        0.42162440328998
C           -1.35175967480971        0.36523821456002       -0.52334464735122
C            0.06780273888327        0.70215071036756       -0.17839889590282
O            0.40366164189857        1.55793637826613        0.62457420214668
O            0.94300960288934       -0.09272911791612       -0.82881993760986
C            2.35967224346965        0.04904701114536       -0.47863069367269
C            2.68490344245365       -0.74700609549327        0.76322431713679
H           -3.68750222888765       -1.86656497709694        0.78610029704278
H           -3.97494030417350       -0.21471079416008        0.21759558162682
H           -3.42379865485461       -1.45841378106388       -0.91649802836423
H           -1.24209778586341       -1.62123186245560        0.32575522682147
H           -1.78987950395147       -0.38284314784251        1.45661242638523
H           -1.95368306836612        1.27060450788303       -0.40771197293388
H           -1.41426102157474        0.02122563106681       -1.55933936460000
H            2.88541938211507       -0.33860273939663       -1.35303933846206
H            2.58681680880878        1.11138236505354       -0.36136541922454
H            3.75860802973441       -0.67571112004596        0.96183596023342
H            2.14866955574154       -0.36385860911647        1.63531495307052
H            2.43191137787927       -1.80162374650076        0.62425159715934
20
 energy: -386.242386207484 gnorm: 0.001936639123 xtb: 6.7.1 (edcfbbe)
C           -3.32423959012682       -1.08784542619903        0.10898461530985
C           -1.87534090490461       -0.73326858789671        0.42154275333062
C           -1.35086145190354        0.36461114726018       -0.52305075626144
C            0.06872983470986        0.70055289163280       -0.17705710328829
O            0.40415466587369        1.55236641907696        0.63074590953665
O            0.94380815410672       -0.09049035824000       -0.83147051546917
C            2.35986699100157        0.04933473115358       -0.48067033641731
C            2.68304423656480       -0.74521422993387        0.76313109393330
H           -3.68849106126954       -1.86624385148902        0.78602218294231
H           -3.97415735792361       -0.21353980927692        0.21811498973500
H           -3.42434603080068       -1.45752378781216       -0.91666951407401
H           -1.24209392128737       -1.62238835589509        0.32507850405938
H           -1.78865857033392       -0.38420968375203        1.45677755577911
H           -1.95256400513812        1.27014585633894       -0.40729978071377
H           -1.41317331110420        0.02088732368501       -1.55924476201538
H            2.88576148250243       -0.34080478621686       -1.35385206475685
H            2.58963165448988        1.11135652370121       -0.36531199325865
H            3.75642345674245       -0.67348023545781        0.96379941590670
H            2.14505736017525       -0.36056878106010        1.63357010897763
H            2.42999345155220       -1.80014161054230        0.62540946815205
20
 energy: -386.242389670286 gnorm: 0.001801085383 xtb: 6.7.1 (edcfbbe)
C           -3.32472504251051       -1.08649329542298        0.10964739229239
C           -1.87432567327304       -0.73516373474489        0.42126731012198
C           -1.34845039885337        0.36242238803613       -0.52281158539514
C            0.07063641644435        0.69646640032734       -0.17348975553530
O            0.40335005122381        1.53812799882188        0.64779244374597
O            0.94606933585768       -0.08269958235671       -0.83763169767583
C            2.35953132007476        0.05036543669959       -0.48539973721622
C            2.67889955579931       -0.74056050287946        0.76282762748593
H           -3.69128532637158       -1.86516947931486        0.78593733928903
H           -3.97266149792088       -0.21012441430309        0.22000390986178
H           -3.42673733579946       -1.45465213091282       -0.91701869903623
H           -1.24247565139396       -1.62560229330035        0.32318793197968
H           -1.78508016838305       -0.38803920988440        1.45726680917449
H           -1.95017471780206        1.26841753352098       -0.40876789700852
H           -1.40913662254493        0.01857465121240       -1.55932314708521
H            2.88574086464051       -0.34651222345093       -1.35545288154960
H            2.59867000907652        1.11115127832017       -0.37520306538668
H            3.75181515976460       -0.66816522853816        0.96763505751091
H            2.13759958240810       -0.35260761660244        1.63006201624498
H            2.42528464899758       -1.79620211947984        0.62801776179368
20
 energy: -386.242393403854 gnorm: 0.000175841111 xtb: 6.7.1 (edcfbbe)
C           -3.32496724824061       -1.08685671541244        0.10960348552285
C           -1.87519909716869       -0.73449110486062        0.42138415497826
C           -1.34926210927471        0.36287568716621       -0.52302276351267
C            0.06971912013504        0.69821825051371       -0.17483340236310
O            0.40293506608307        1.54393715470289        0.64103223765346
O            0.94573652626858       -0.08478375107342       -0.83540226256351
C            2.36013757277185        0.05042926375484       -0.48310434990535
C            2.68074511141057       -0.74238596054090        0.76291228629959
H           -3.69073382269114       -1.86557527565216        0.78606127816748
H           -3.97382962180974       -0.21134369894646        0.21966589940620
H           -3.42661943072445       -1.45550937766975       -0.91675409104534
H           -1.24294387172312       -1.62460687291570        0.32407660803716
H           -1.78664081843516       -0.38662957608071        1.45709043175609
H           -1.95118998666407        1.26876057925330       -0.40941926001271
H           -1.41035648349477        0.01848562770362       -1.55933731632537
H            2.88607227070927       -0.34384715129835       -1.35453137081456
H            2.59599149923955        1.11160581530126       -0.37108959003670
H            3.75409390850682       -0.67070620901067        0.96546429934029
H            2.14156352601422       -0.35628179448077        1.63219271803545
H            2.42729270606827       -1.79776058087186        0.62655928654854
20
 energy: -386.242393403854 gnorm: 0.000175841111 xtb: 6.7.1 (edcfbbe)
C           -3.32496724824061       -1.08685671541244        0.10960348552285
C           -1.87519909716869       -0.73449110486062        0.42138415497826
C           -1.34926210927471        0.36287568716621       -0.52302276351267
C            0.06971912013504        0.69821825051371       -0.17483340236310
O            0.40293506608307        1.54393715470289        0.64103223765346
O            0.94573652626858       -0.08478375107342       -0.83540226256351
C            2.36013757277185        0.05042926375484       -0.48310434990535
C            2.68074511141057       -0.74238596054090        0.76291228629959
H           -3.69073382269114       -1.86557527565216        0.78606127816748
H           -3.97382962180974       -0.21134369894646        0.21966589940620
H           -3.42661943072445       -1.45550937766975       -0.91675409104534
H           -1.24294387172312       -1.62460687291570        0.32407660803716
H           -1.78664081843516       -0.38662957608071        1.45709043175609
H           -1.95118998666407        1.26876057925330       -0.40941926001271
H           -1.41035648349477        0.01848562770362       -1.55933731632537
H            2.88607227070927       -0.34384715129835       -1.35453137081456
H            2.59599149923955        1.11160581530126       -0.37108959003670
H            3.75409390850682       -0.67070620901067        0.96546429934029
H            2.14156352601422       -0.35628179448077        1.63219271803545
H            2.42729270606827       -1.79776058087186        0.62655928654854
