      -----------------------------------------------------------      
     |                   =====================                   |     
     |                           x T B                           |     
     |                   =====================                   |     
     |                         S. Grimme                         |     
     |          Mulliken Center for Theoretical Chemistry        |     
     |                    University of Bonn                     |     
      -----------------------------------------------------------      

   * xtb version 6.7.1 (edcfbbe) compiled by 'albert@albert-system' on 2024-07-22

   xtb is free software: you can redistribute it and/or modify it under
   the terms of the GNU Lesser General Public License as published by
   the Free Software Foundation, either version 3 of the License, or
   (at your option) any later version.
   
   xtb is distributed in the hope that it will be useful,
   but WITHOUT ANY WARRANTY; without even the implied warranty of
   MERCHANTABILITY or FITNESS FOR A PARTICULAR PURPOSE.  See the
   GNU Lesser General Public License for more details.
   
   Cite this work as:
   * C. Bannwarth, E. Caldeweyher, S. Ehlert, A. Hansen, P. Pracht,
     J. Seibert, S. Spicher, S. Grimme, WIREs Comput. Mol. Sci., 2020, 11,
     e01493. DOI: 10.1002/wcms.1493
   
   for GFN2-xTB:
   * C. Bannwarth, S. Ehlert and S. Grimme., J. Chem. Theory Comput., 2019,
     15, 1652-1671. DOI: 10.1021/acs.jctc.8b01176
   for GFN1-xTB:
   * S. Grimme, C. Bannwarth, P. Shushkov, J. Chem. Theory Comput., 2017,
     13, 1989-2009. DOI: 10.1021/acs.jctc.7b00118
   for GFN0-xTB:
   * P. Pracht, E. Caldeweyher, S. Ehlert, S. Grimme, ChemRxiv, 2019, preprint.
     DOI: 10.26434/chemrxiv.8326202.v1
   for GFN-FF:
   * S. Spicher and S. Grimme, Angew. Chem. Int. Ed., 2020, 59, 15665-15673.
     DOI: 10.1002/anie.202004239
   
   for ALPB and GBSA implicit solvation:
   * S. Ehlert, M. Stahn, S. Spicher, S. Grimme, J. Chem. Theory Comput.,
     2021, 17, 4250-4261. DOI: 10.1021/acs.jctc.1c00471
   
   for ddCOSMO and CPCM-X implicit solvation:
   * M. Stahn, S. Ehlert, S. Grimme, J. Phys. Chem. A,
     2023, XX, XXXX-XXXX. DOI: 10.1021/acs.jpca.3c04382
   
   for DFT-D4:
   * E. Caldeweyher, C. Bannwarth and S. Grimme, J. Chem. Phys., 2017,
     147, 034112. DOI: 10.1063/1.4993215
   * E. Caldeweyher, S. Ehlert, A. Hansen, H. Neugebauer, S. Spicher,
     C. Bannwarth and S. Grimme, J. Chem. Phys., 2019, 150, 154122.
     DOI: 10.1063/1.5090222
   * E. Caldeweyher, J.-M. Mewes, S. Ehlert and S. Grimme, Phys. Chem. Chem. Phys.
     2020, 22, 8499-8512. DOI: 10.1039/D0CP00502A
   
   for sTDA-xTB:
   * S. Grimme and C. Bannwarth, J. Chem. Phys., 2016, 145, 054103.
     DOI: 10.1063/1.4959605
   
   in the mass-spec context:
   * V. Asgeirsson, C. Bauer and S. Grimme, Chem. Sci., 2017, 8, 4879.
     DOI: 10.1039/c7sc00601b
   * J. Koopman and S. Grimme, ACS Omega 2019, 4, 12, 15120-15133.
     DOI: 10.1021/acsomega.9b02011
   
   for metadynamics refer to:
   * S. Grimme, J. Chem. Theory Comput., 2019, 155, 2847-2862
     DOI: 10.1021/acs.jctc.9b00143
   
   for SPH calculations refer to:
   * S. Spicher and S. Grimme, J. Chem. Theory Comput., 2021, 17, 1701-1714
     DOI: 10.1021/acs.jctc.0c01306
   
   for ONIOM refer to:
   * C. Plett, A. Katbashev, S. Ehlert, S. Grimme, M. Bursch,
     Phys. Chem. Chem. Phys., 2023, 25, 17860-17868. DOI: 10.1039/D3CP02178E
   
   for DIPRO refer to:
   * J. Kohn, N. Gildemeister, S. Grimme, D. Fazzi, A. Hansen,
     J. Chem. Phys., 2023, just accepted.
   
   for PTB refer to:
   * S. Grimme, M. Mueller, A. Hansen, J. Chem. Phys., 2023, 158, 124111.
     DOI: 10.1063/5.0137838
   
   with help from (in alphabetical order)
   P. Atkinson, C. Bannwarth, F. Bohle, G. Brandenburg, E. Caldeweyher
   M. Checinski, S. Dohm, S. Ehlert, S. Ehrlich, I. Gerasimov, C. Hölzer
   A. Katbashev, J. Kohn, J. Koopman, C. Lavigne, S. Lehtola, F. März, M. Müller,
   F. Musil, H. Neugebauer, J. Pisarek, C. Plett, P. Pracht, F. Pultar,
   J. Seibert, P. Shushkov, S. Spicher, M. Stahn, M. Steiner, T. Strunk,
   J. Stückrath, T. Rose, and J. Unsleber
   
 * started run on 2025/04/11 at 12:27:10.759     
   ID    Z sym.   atoms
    1    6 C      1-3
    2    7 N      4
    3    8 O      5, 6
    4    1 H      7-13

           -------------------------------------------------
          |                Calculation Setup                |
           -------------------------------------------------

          program call               : /srv/scratch/z5358697/.xtb/bin/xtb gas.coord --gfn2 --sp --chrg 0 --norestart --parallel 1
          hostname                   : k061
          coordinate file            : gas.coord
          omp threads                :                     1


           -------------------------------------------------
          |                 G F N 2 - x T B                 |
           -------------------------------------------------

        Reference                      10.1021/acs.jctc.8b01176
      * Hamiltonian:
        H0-scaling (s, p, d)           1.850000    2.230000    2.230000
        zeta-weighting                 0.500000
      * Dispersion:
        s8                             2.700000
        a1                             0.520000
        a2                             5.000000
        s9                             5.000000
      * Repulsion:
        kExp                           1.500000    1.000000
        rExp                           1.000000
      * Coulomb:
        alpha                          2.000000
        third order                    shell-resolved
        anisotropic                    true
        a3                             3.000000
        a5                             4.000000
        cn-shift                       1.200000
        cn-exp                         4.000000
        max-rad                        5.000000


          ...................................................
          :                      SETUP                      :
          :.................................................:
          :  # basis functions                  31          :
          :  # atomic orbitals                  31          :
          :  # shells                           19          :
          :  # electrons                        36          :
          :  max. iterations                   250          :
          :  Hamiltonian                  GFN2-xTB          :
          :  restarted?                      false          :
          :  GBSA solvation                  false          :
          :  PC potential                    false          :
          :  electronic temp.          300.0000000     K    :
          :  accuracy                    1.0000000          :
          :  -> integral cutoff          0.2500000E+02      :
          :  -> integral neglect         0.1000000E-07      :
          :  -> SCF convergence          0.1000000E-05 Eh   :
          :  -> wf. convergence          0.1000000E-03 e    :
          :  Broyden damping             0.4000000          :
          :  net charge                          0          :
          :  unpaired electrons                  0          :
          ...................................................

 iter      E             dE          RMSdq      gap      omega  full diag
   1    -21.0064667 -0.210065E+02  0.502E+00    5.12       0.0  T
   2    -21.1437222 -0.137256E+00  0.201E+00    3.74       1.0  T
   3    -21.1450338 -0.131162E-02  0.122E+00    3.64       1.0  T
   4    -21.1453757 -0.341884E-03  0.149E-01    3.55       1.0  T
   5    -21.1454314 -0.556496E-04  0.791E-02    3.55       1.0  T
   6    -21.1454356 -0.421775E-05  0.180E-02    3.56       1.5  T
   7    -21.1454359 -0.266488E-06  0.760E-03    3.55       3.7  T
   8    -21.1454359 -0.856854E-07  0.188E-03    3.55      14.8  T
   9    -21.1454359 -0.901489E-08  0.883E-04    3.55      31.4  T
  10    -21.1454359 -0.904059E-09  0.334E-04    3.55      83.0  T

   *** convergence criteria satisfied after 10 iterations ***

         #    Occupation            Energy/Eh            Energy/eV
      -------------------------------------------------------------
         1        2.0000           -0.7772996             -21.1514
       ...           ...                  ...                  ...
        12        2.0000           -0.5141953             -13.9920
        13        2.0000           -0.4822360             -13.1223
        14        2.0000           -0.4784967             -13.0206
        15        2.0000           -0.4717416             -12.8367
        16        2.0000           -0.4631926             -12.6041
        17        2.0000           -0.4538724             -12.3505
        18        2.0000           -0.4415140             -12.0142 (HOMO)
        19                         -0.3109591              -8.4616 (LUMO)
        20                         -0.0148754              -0.4048
        21                          0.0559699               1.5230
        22                          0.0936473               2.5483
        23                          0.1141373               3.1058
       ...                                ...                  ...
        31                          0.4254350              11.5767
      -------------------------------------------------------------
                  HL-Gap            0.1305550 Eh            3.5526 eV
             Fermi-level           -0.3762365 Eh          -10.2379 eV

 SCC (total)                   0 d,  0 h,  0 min,  0.009 sec
 SCC setup                      ...        0 min,  0.000 sec (  1.998%)
 Dispersion                     ...        0 min,  0.000 sec (  0.660%)
 classical contributions        ...        0 min,  0.000 sec (  0.175%)
 integral evaluation            ...        0 min,  0.001 sec ( 10.148%)
 iterations                     ...        0 min,  0.005 sec ( 56.589%)
 molecular gradient             ...        0 min,  0.003 sec ( 28.586%)
 printout                       ...        0 min,  0.000 sec (  1.681%)

         :::::::::::::::::::::::::::::::::::::::::::::::::::::
         ::                     SUMMARY                     ::
         :::::::::::::::::::::::::::::::::::::::::::::::::::::
         :: total energy             -20.954190651664 Eh    ::
         :: gradient norm              0.024008466992 Eh/a0 ::
         :: HOMO-LUMO gap              3.552581555676 eV    ::
         ::.................................................::
         :: SCC energy               -21.145427495625 Eh    ::
         :: -> isotropic ES            0.049667225895 Eh    ::
         :: -> anisotropic ES          0.009394070641 Eh    ::
         :: -> anisotropic XC          0.001608037170 Eh    ::
         :: -> dispersion             -0.006894120903 Eh    ::
         :: repulsion energy           0.191236843961 Eh    ::
         :: add. restraining           0.000000000000 Eh    ::
         :: total charge               0.000000000000 e     ::
         :::::::::::::::::::::::::::::::::::::::::::::::::::::

           -------------------------------------------------
          |                Property Printout                |
           -------------------------------------------------

    * Orbital Energies and Occupations

         #    Occupation            Energy/Eh            Energy/eV
      -------------------------------------------------------------
         1        2.0000           -0.7772996             -21.1514
       ...           ...                  ...                  ...
         6        2.0000           -0.6252801             -17.0147
         7        2.0000           -0.6082720             -16.5519
         8        2.0000           -0.5949450             -16.1893
         9        2.0000           -0.5806780             -15.8011
        10        2.0000           -0.5403630             -14.7040
        11        2.0000           -0.5283290             -14.3766
        12        2.0000           -0.5141953             -13.9920
        13        2.0000           -0.4822360             -13.1223
        14        2.0000           -0.4784967             -13.0206
        15        2.0000           -0.4717416             -12.8367
        16        2.0000           -0.4631926             -12.6041
        17        2.0000           -0.4538724             -12.3505
        18        2.0000           -0.4415140             -12.0142 (HOMO)
        19                         -0.3109591              -8.4616 (LUMO)
        20                         -0.0148754              -0.4048
        21                          0.0559699               1.5230
        22                          0.0936473               2.5483
        23                          0.1141373               3.1058
        24                          0.1249766               3.4008
        25                          0.1608568               4.3771
        26                          0.1722250               4.6865
        27                          0.2063116               5.6140
        28                          0.2324231               6.3246
        29                          0.2400173               6.5312
       ...                                ...                  ...
        31                          0.4254350              11.5767
      -------------------------------------------------------------
                  HL-Gap            0.1305550 Eh            3.5526 eV
             Fermi-level           -0.3762365 Eh          -10.2379 eV

     #   Z          covCN         q      C6AA      α(0)
     1   6 C        3.752    -0.113    22.726     6.798
     2   6 C        3.802    -0.054    21.545     6.608
     3   6 C        3.740    -0.068    21.880     6.674
     4   7 N        2.757     0.551    13.468     5.451
     5   8 O        0.928    -0.378    21.207     6.176
     6   8 O        0.929    -0.382    21.283     6.187
     7   1 H        0.925     0.055     2.262     2.352
     8   1 H        0.925     0.047     2.359     2.402
     9   1 H        0.925     0.049     2.335     2.390
    10   1 H        0.925     0.058     2.226     2.333
    11   1 H        0.924     0.059     2.207     2.323
    12   1 H        0.925     0.086     1.913     2.163
    13   1 H        0.925     0.089     1.885     2.147

 Mol. C6AA /au·bohr⁶  :       1382.388468
 Mol. C8AA /au·bohr⁸  :      28848.039517
 Mol. α(0) /au        :         54.004221


Wiberg/Mayer (AO) data.
largest (>0.10) Wiberg bond orders for each atom

 ---------------------------------------------------------------------------
     #   Z sym  total        # sym  WBO       # sym  WBO       # sym  WBO
 ---------------------------------------------------------------------------
     1   6 C    3.993 --     2 C    1.023     8 H    0.986     7 H    0.985
                             9 H    0.984
     2   6 C    3.987 --     1 C    1.023    11 H    0.975     3 C    0.971
                            10 H    0.971
     3   6 C    3.963 --     2 C    0.971    13 H    0.967    12 H    0.964
                             4 N    0.941
     4   7 N    3.912 --     5 O    1.474     6 O    1.472     3 C    0.941
     5   8 O    1.942 --     4 N    1.474     6 O    0.375
     6   8 O    1.938 --     4 N    1.472     5 O    0.375
     7   1 H    0.997 --     1 C    0.985
     8   1 H    0.998 --     1 C    0.986
     9   1 H    0.998 --     1 C    0.984
    10   1 H    0.997 --     2 C    0.971
    11   1 H    0.996 --     2 C    0.975
    12   1 H    0.993 --     3 C    0.964
    13   1 H    0.992 --     3 C    0.967
 ---------------------------------------------------------------------------

Topologies differ in total number of bonds
Writing topology from bond orders to xtbtopo.mol

molecular dipole:
                 x           y           z       tot (Debye)
 q only:       -1.386      -0.281      -0.808
   full:       -1.422      -0.331      -0.916       4.382
molecular quadrupole (traceless):
                xx          xy          yy          xz          yz          zz
 q only:       -1.243       0.082      -1.568      -1.966       1.436       2.811
  q+dip:       -1.548       0.264      -2.604      -2.398       1.464       4.153
   full:       -1.361       0.133      -2.734      -2.979       1.640       4.095


           -------------------------------------------------
          | TOTAL ENERGY              -20.954190651664 Eh   |
          | GRADIENT NORM               0.024008466992 Eh/α |
          | HOMO-LUMO GAP               3.552581555676 eV   |
           -------------------------------------------------

------------------------------------------------------------------------
 * finished run on 2025/04/11 at 12:27:10.803     
------------------------------------------------------------------------
 total:
 * wall-time:     0 d,  0 h,  0 min,  0.043 sec
 *  cpu-time:     0 d,  0 h,  0 min,  0.020 sec
 * ratio c/w:     0.470 speedup
 SCF:
 * wall-time:     0 d,  0 h,  0 min,  0.009 sec
 *  cpu-time:     0 d,  0 h,  0 min,  0.009 sec
 * ratio c/w:     0.934 speedup

