      -----------------------------------------------------------      
     |                   =====================                   |     
     |                           x T B                           |     
     |                   =====================                   |     
     |                         S. Grimme                         |     
     |          Mulliken Center for Theoretical Chemistry        |     
     |                    University of Bonn                     |     
      -----------------------------------------------------------      

   * xtb version 6.7.1 (edcfbbe) compiled by 'albert@albert-system' on 2024-07-22

   xtb is free software: you can redistribute it and/or modify it under
   the terms of the GNU Lesser General Public License as published by
   the Free Software Foundation, either version 3 of the License, or
   (at your option) any later version.
   
   xtb is distributed in the hope that it will be useful,
   but WITHOUT ANY WARRANTY; without even the implied warranty of
   MERCHANTABILITY or FITNESS FOR A PARTICULAR PURPOSE.  See the
   GNU Lesser General Public License for more details.
   
   Cite this work as:
   * C. Bannwarth, E. Caldeweyher, S. Ehlert, A. Hansen, P. Pracht,
     J. Seibert, S. Spicher, S. Grimme, WIREs Comput. Mol. Sci., 2020, 11,
     e01493. DOI: 10.1002/wcms.1493
   
   for GFN2-xTB:
   * C. Bannwarth, S. Ehlert and S. Grimme., J. Chem. Theory Comput., 2019,
     15, 1652-1671. DOI: 10.1021/acs.jctc.8b01176
   for GFN1-xTB:
   * S. Grimme, C. Bannwarth, P. Shushkov, J. Chem. Theory Comput., 2017,
     13, 1989-2009. DOI: 10.1021/acs.jctc.7b00118
   for GFN0-xTB:
   * P. Pracht, E. Caldeweyher, S. Ehlert, S. Grimme, ChemRxiv, 2019, preprint.
     DOI: 10.26434/chemrxiv.8326202.v1
   for GFN-FF:
   * S. Spicher and S. Grimme, Angew. Chem. Int. Ed., 2020, 59, 15665-15673.
     DOI: 10.1002/anie.202004239
   
   for ALPB and GBSA implicit solvation:
   * S. Ehlert, M. Stahn, S. Spicher, S. Grimme, J. Chem. Theory Comput.,
     2021, 17, 4250-4261. DOI: 10.1021/acs.jctc.1c00471
   
   for ddCOSMO and CPCM-X implicit solvation:
   * M. Stahn, S. Ehlert, S. Grimme, J. Phys. Chem. A,
     2023, XX, XXXX-XXXX. DOI: 10.1021/acs.jpca.3c04382
   
   for DFT-D4:
   * E. Caldeweyher, C. Bannwarth and S. Grimme, J. Chem. Phys., 2017,
     147, 034112. DOI: 10.1063/1.4993215
   * E. Caldeweyher, S. Ehlert, A. Hansen, H. Neugebauer, S. Spicher,
     C. Bannwarth and S. Grimme, J. Chem. Phys., 2019, 150, 154122.
     DOI: 10.1063/1.5090222
   * E. Caldeweyher, J.-M. Mewes, S. Ehlert and S. Grimme, Phys. Chem. Chem. Phys.
     2020, 22, 8499-8512. DOI: 10.1039/D0CP00502A
   
   for sTDA-xTB:
   * S. Grimme and C. Bannwarth, J. Chem. Phys., 2016, 145, 054103.
     DOI: 10.1063/1.4959605
   
   in the mass-spec context:
   * V. Asgeirsson, C. Bauer and S. Grimme, Chem. Sci., 2017, 8, 4879.
     DOI: 10.1039/c7sc00601b
   * J. Koopman and S. Grimme, ACS Omega 2019, 4, 12, 15120-15133.
     DOI: 10.1021/acsomega.9b02011
   
   for metadynamics refer to:
   * S. Grimme, J. Chem. Theory Comput., 2019, 155, 2847-2862
     DOI: 10.1021/acs.jctc.9b00143
   
   for SPH calculations refer to:
   * S. Spicher and S. Grimme, J. Chem. Theory Comput., 2021, 17, 1701-1714
     DOI: 10.1021/acs.jctc.0c01306
   
   for ONIOM refer to:
   * C. Plett, A. Katbashev, S. Ehlert, S. Grimme, M. Bursch,
     Phys. Chem. Chem. Phys., 2023, 25, 17860-17868. DOI: 10.1039/D3CP02178E
   
   for DIPRO refer to:
   * J. Kohn, N. Gildemeister, S. Grimme, D. Fazzi, A. Hansen,
     J. Chem. Phys., 2023, just accepted.
   
   for PTB refer to:
   * S. Grimme, M. Mueller, A. Hansen, J. Chem. Phys., 2023, 158, 124111.
     DOI: 10.1063/5.0137838
   
   with help from (in alphabetical order)
   P. Atkinson, C. Bannwarth, F. Bohle, G. Brandenburg, E. Caldeweyher
   M. Checinski, S. Dohm, S. Ehlert, S. Ehrlich, I. Gerasimov, C. Hölzer
   A. Katbashev, J. Kohn, J. Koopman, C. Lavigne, S. Lehtola, F. März, M. Müller,
   F. Musil, H. Neugebauer, J. Pisarek, C. Plett, P. Pracht, F. Pultar,
   J. Seibert, P. Shushkov, S. Spicher, M. Stahn, M. Steiner, T. Strunk,
   J. Stückrath, T. Rose, and J. Unsleber
   
 * started run on 2025/04/11 at 12:51:27.907     
   ID    Z sym.   atoms
    1    6 C      1-3, 5-7
    2   16 S      4
    3    1 H      8-21

           -------------------------------------------------
          |                Calculation Setup                |
           -------------------------------------------------

          program call               : /srv/scratch/z5358697/.xtb/bin/xtb xtb_rrho.coord --gfn2 --ohess vtight --chrg 0 --enso --norestart -I rrho-xcontrol-inp --parallel 1 --alpb water
          hostname                   : k075
          coordinate file            : xtb_rrho.coord
          omp threads                :                     1


           -------------------------------------------------
          |                 G F N 2 - x T B                 |
           -------------------------------------------------

        Reference                      10.1021/acs.jctc.8b01176
      * Hamiltonian:
        H0-scaling (s, p, d)           1.850000    2.230000    2.230000
        zeta-weighting                 0.500000
      * Dispersion:
        s8                             2.700000
        a1                             0.520000
        a2                             5.000000
        s9                             5.000000
      * Repulsion:
        kExp                           1.500000    1.000000
        rExp                           1.000000
      * Coulomb:
        alpha                          2.000000
        third order                    shell-resolved
        anisotropic                    true
        a3                             3.000000
        a5                             4.000000
        cn-shift                       1.200000
        cn-exp                         4.000000
        max-rad                        5.000000

      * Solvation model:               ALPB
        Solvent                        water
        Parameter file                 internal GFN2-xTB/ALPB
        Dielectric constant                8.0200E+01
        Reference state                gsolv [1 M gas/solution]
        Free energy shift                  1.0808E-03 Eh       6.7819E-01 kcal/mol
        Temperature                        2.9815E+02 K
        Density                            1.0000E+00 kg/L
        Solvent mass                       1.8000E+01 g/mol
        Interaction kernel             P16
        Born radius scaling (c1)           1.4744E+00
        Born radii integrator          GBOBC
        Born offset                        0.0000E+00 a0       0.0000E+00 AA
        H-bond correction              true
        Ion screening                  false
        Surface tension                    1.0000E-05 Eh       1.5569E+01 dyn/cm
        Grid points                               974 per atom

          ...................................................
          :                      SETUP                      :
          :.................................................:
          :  # basis functions                  48          :
          :  # atomic orbitals                  47          :
          :  # shells                           29          :
          :  # electrons                        44          :
          :  max. iterations                   250          :
          :  Hamiltonian                  GFN2-xTB          :
          :  restarted?                      false          :
          :  GBSA solvation                   true          :
          :  PC potential                    false          :
          :  electronic temp.          300.0000000     K    :
          :  accuracy                    1.0000000          :
          :  -> integral cutoff          0.2500000E+02      :
          :  -> integral neglect         0.1000000E-07      :
          :  -> SCF convergence          0.1000000E-05 Eh   :
          :  -> wf. convergence          0.1000000E-03 e    :
          :  Broyden damping             0.4000000          :
          :  net charge                          0          :
          :  unpaired electrons                  0          :
          ...................................................

 iter      E             dE          RMSdq      gap      omega  full diag
   1    -23.4765270 -0.234765E+02  0.336E+00    5.17       0.0  T
   2    -23.5256335 -0.491065E-01  0.187E+00    4.54       1.0  T
   3    -23.5272920 -0.165851E-02  0.743E-01    4.39       1.0  T
   4    -23.5280180 -0.725948E-03  0.269E-01    4.25       1.0  T
   5    -23.5281441 -0.126177E-03  0.120E-01    4.26       1.0  T
   6    -23.5281574 -0.132486E-04  0.261E-02    4.26       1.0  T
   7    -23.5281580 -0.585763E-06  0.696E-03    4.26       3.1  T
   8    -23.5281581 -0.169379E-06  0.344E-03    4.26       6.3  T
   9    -23.5281582 -0.199788E-07  0.153E-03    4.26      14.2  T
  10    -23.5281582 -0.532266E-08  0.382E-04    4.26      57.1  T
  11    -23.5281582 -0.186379E-09  0.684E-05    4.26     318.9  T

   *** convergence criteria satisfied after 11 iterations ***

         #    Occupation            Energy/Eh            Energy/eV
      -------------------------------------------------------------
         1        2.0000           -0.6984359             -19.0054
       ...           ...                  ...                  ...
        16        2.0000           -0.4525529             -12.3146
        17        2.0000           -0.4490770             -12.2200
        18        2.0000           -0.4451083             -12.1120
        19        2.0000           -0.4398700             -11.9695
        20        2.0000           -0.4281898             -11.6516
        21        2.0000           -0.4173337             -11.3562
        22        2.0000           -0.3513756              -9.5614 (HOMO)
        23                         -0.1948740              -5.3028 (LUMO)
        24                         -0.1511592              -4.1133
        25                         -0.0034911              -0.0950
        26                          0.0025161               0.0685
        27                          0.0136991               0.3728
       ...                                ...                  ...
        47                          0.3821928              10.4000
      -------------------------------------------------------------
                  HL-Gap            0.1565016 Eh            4.2586 eV
             Fermi-level           -0.2731248 Eh           -7.4321 eV

 SCC (total)                   0 d,  0 h,  0 min,  0.016 sec
 SCC setup                      ...        0 min,  0.001 sec (  8.301%)
 Dispersion                     ...        0 min,  0.000 sec (  0.746%)
 classical contributions        ...        0 min,  0.000 sec (  0.153%)
 integral evaluation            ...        0 min,  0.003 sec ( 16.561%)
 iterations                     ...        0 min,  0.007 sec ( 41.259%)
 molecular gradient             ...        0 min,  0.005 sec ( 31.746%)
 printout                       ...        0 min,  0.000 sec (  1.115%)

         :::::::::::::::::::::::::::::::::::::::::::::::::::::
         ::                     SUMMARY                     ::
         :::::::::::::::::::::::::::::::::::::::::::::::::::::
         :: total energy             -23.234024656285 Eh    ::
         :: total w/o Gsasa/hb       -23.234312254175 Eh    ::
         :: gradient norm              0.020852808924 Eh/a0 ::
         :: HOMO-LUMO gap              4.258626355215 eV    ::
         ::.................................................::
         :: SCC energy               -23.528096969173 Eh    ::
         :: -> isotropic ES            0.009424399079 Eh    ::
         :: -> anisotropic ES          0.005572404982 Eh    ::
         :: -> anisotropic XC          0.016594977167 Eh    ::
         :: -> dispersion             -0.014281236683 Eh    ::
         :: -> Gsolv                  -0.001658648822 Eh    ::
         ::    -> Gelec               -0.001946246712 Eh    ::
         ::    -> Gsasa                0.000092825116 Eh    ::
         ::    -> Ghb                 -0.000885986925 Eh    ::
         ::    -> Gshift               0.001080759698 Eh    ::
         :: repulsion energy           0.294072312888 Eh    ::
         :: add. restraining           0.000000000000 Eh    ::
         :: total charge              -0.000000000000 e     ::
         :::::::::::::::::::::::::::::::::::::::::::::::::::::

      ----------------------------------------------------------- 
     |                   =====================                   |
     |                        A N C O P T                        |
     |                   =====================                   |
     |               Approximate Normal Coordinate               |
     |                Rational Function Optimizer                |
      ----------------------------------------------------------- 
      ----------------------------------------------------------- 
     |                   =====================                   |
     |                        A N C O P T                        |
     |                   =====================                   |
     |               Approximate Normal Coordinate               |
     |                Rational Function Optimizer                |
      ----------------------------------------------------------- 

          ...................................................
          :                      SETUP                      :
          :.................................................:
          :   optimization level         verytight          :
          :   max. optcycles                   420          :
          :   ANC micro-cycles                  20          :
          :   degrees of freedom                57          :
          :.................................................:
          :   RF solver                   davidson          :
          :   write xtbopt.log                true          :
          :   linear?                        false          :
          :   energy convergence         0.1000000E-06 Eh   :
          :   grad. convergence          0.2000000E-03 Eh/α :
          :   maxmium RF displ.          1.0000000          :
          :   Hlow (freq-cutoff)         0.1000000E-01      :
          :   Hmax (freq-cutoff)         5.0000000          :
          :   S6 in model hess.         20.0000000          :
          ...................................................

generating ANC from exact Hessian ...
Using Lindh-Hessian (1995)
 Shifting diagonal of input Hessian by   9.286002995066451E-003
 Lowest  eigenvalues of input Hessian
    0.000000    0.000000    0.000000    0.000000    0.000000    0.000000
    0.010000    0.010678    0.012191    0.015353    0.015719    0.017116
    0.017340    0.017601    0.020908    0.022208    0.025261    0.028793
 Highest eigenvalues
    1.117885    1.122539    1.180623    1.182974    1.238364    1.249418
 

........................................................................
.............................. CYCLE    1 ..............................
........................................................................

 iter      E             dE          RMSdq      gap      omega  full diag
   1    -23.5281582 -0.235282E+02  0.371E-05    4.26       0.0  T
   2    -23.5281582 -0.966338E-12  0.258E-05    4.26     847.4  T
   3    -23.5281582 -0.756728E-12  0.751E-06    4.26    2907.5  T
     SCC iter.                  ...        0 min,  0.002 sec
     gradient                   ...        0 min,  0.005 sec
 * total energy  :   -23.2340247 Eh     change       -0.1925926E-10 Eh
   gradient norm :     0.0208530 Eh/α   predicted     0.0000000E+00 (-100.00%)
   displ. norm   :     0.1512214 α      lambda       -0.1597571E-02
   maximum displ.:     0.0673622 α      in ANC's #4, #13, #12, ...

........................................................................
.............................. CYCLE    2 ..............................
........................................................................

 iter      E             dE          RMSdq      gap      omega  full diag
   1    -23.5400517 -0.235401E+02  0.135E-01    4.32       0.0  T
   2    -23.5400585 -0.675919E-05  0.724E-02    4.32       1.0  T
   3    -23.5400595 -0.974283E-06  0.148E-02    4.32       1.5  T
   4    -23.5400599 -0.420356E-06  0.739E-03    4.32       3.0  T
   5    -23.5400600 -0.852055E-07  0.198E-03    4.32      11.0  T
   6    -23.5400600 -0.595899E-08  0.105E-03    4.32      20.7  T
   7    -23.5400600 -0.101835E-08  0.326E-04    4.32      66.9  T
   8    -23.5400600 -0.481926E-09  0.159E-04    4.32     137.1  T
     SCC iter.                  ...        0 min,  0.004 sec
     gradient                   ...        0 min,  0.006 sec
 * total energy  :   -23.2349957 Eh     change       -0.9710509E-03 Eh
   gradient norm :     0.0062869 Eh/α   predicted    -0.8170553E-03 ( -15.86%)
   displ. norm   :     0.1341526 α      lambda       -0.3090497E-03
   maximum displ.:     0.0851943 α      in ANC's #4, #2, #11, ...

........................................................................
.............................. CYCLE    3 ..............................
........................................................................

 iter      E             dE          RMSdq      gap      omega  full diag
   1    -23.5446579 -0.235447E+02  0.716E-02    4.30       0.0  T
   2    -23.5446603 -0.244357E-05  0.338E-02    4.30       1.0  T
   3    -23.5446606 -0.286183E-06  0.737E-03    4.30       3.0  T
   4    -23.5446606 -0.166101E-07  0.300E-03    4.30       7.3  T
   5    -23.5446607 -0.882906E-08  0.829E-04    4.30      26.3  T
   6    -23.5446607 -0.313124E-08  0.383E-04    4.30      56.9  T
     SCC iter.                  ...        0 min,  0.003 sec
     gradient                   ...        0 min,  0.005 sec
 * total energy  :   -23.2351810 Eh     change       -0.1853196E-03 Eh
   gradient norm :     0.0022054 Eh/α   predicted    -0.1573059E-03 ( -15.12%)
   displ. norm   :     0.0955877 α      lambda       -0.7610511E-04
   maximum displ.:     0.0705281 α      in ANC's #2, #4, #8, ...

........................................................................
.............................. CYCLE    4 ..............................
........................................................................

 iter      E             dE          RMSdq      gap      omega  full diag
   1    -23.5448480 -0.235448E+02  0.443E-02    4.30       0.0  T
   2    -23.5448484 -0.458453E-06  0.212E-02    4.30       1.0  T
   3    -23.5448486 -0.101852E-06  0.372E-03    4.30       5.9  T
   4    -23.5448486 -0.132711E-08  0.146E-03    4.30      14.9  T
   5    -23.5448486 -0.739591E-08  0.317E-04    4.30      68.8  T
   6    -23.5448486 -0.165837E-09  0.164E-04    4.30     133.2  T
     SCC iter.                  ...        0 min,  0.003 sec
     gradient                   ...        0 min,  0.005 sec
 * total energy  :   -23.2352402 Eh     change       -0.5914462E-04 Eh
   gradient norm :     0.0019081 Eh/α   predicted    -0.3840743E-04 ( -35.06%)
   displ. norm   :     0.1621447 α      lambda       -0.6455515E-04
   maximum displ.:     0.1250746 α      in ANC's #2, #8, #1, ...

........................................................................
.............................. CYCLE    5 ..............................
........................................................................

 iter      E             dE          RMSdq      gap      omega  full diag
   1    -23.5435861 -0.235436E+02  0.698E-02    4.31       0.0  T
   2    -23.5435871 -0.999215E-06  0.333E-02    4.31       1.0  T
   3    -23.5435873 -0.228533E-06  0.558E-03    4.31       3.9  T
   4    -23.5435873  0.375484E-08  0.177E-03    4.31      12.4  T
   5    -23.5435873 -0.165369E-07  0.372E-04    4.31      58.6  T
   6    -23.5435873 -0.143647E-09  0.168E-04    4.31     129.6  T
     SCC iter.                  ...        0 min,  0.003 sec
     gradient                   ...        0 min,  0.005 sec
 * total energy  :   -23.2353077 Eh     change       -0.6751726E-04 Eh
   gradient norm :     0.0016601 Eh/α   predicted    -0.3265567E-04 ( -51.63%)
   displ. norm   :     0.1133466 α      lambda       -0.3520926E-04
   maximum displ.:     0.0897663 α      in ANC's #2, #1, #8, ...

........................................................................
.............................. CYCLE    6 ..............................
........................................................................

 iter      E             dE          RMSdq      gap      omega  full diag
   1    -23.5434680 -0.235435E+02  0.461E-02    4.31       0.0  T
   2    -23.5434684 -0.385848E-06  0.221E-02    4.31       1.0  T
   3    -23.5434685 -0.886863E-07  0.345E-03    4.31       6.3  T
   4    -23.5434685  0.132331E-08  0.850E-04    4.31      25.7  T
   5    -23.5434685 -0.389459E-08  0.151E-04    4.31     144.1  T
     SCC iter.                  ...        0 min,  0.003 sec
     gradient                   ...        0 min,  0.005 sec
 * total energy  :   -23.2353517 Eh     change       -0.4400026E-04 Eh
   gradient norm :     0.0013520 Eh/α   predicted    -0.1770543E-04 ( -59.76%)
   displ. norm   :     0.1310456 α      lambda       -0.3454234E-04
   maximum displ.:     0.1005265 α      in ANC's #2, #1, #8, ...

........................................................................
.............................. CYCLE    7 ..............................
........................................................................

 iter      E             dE          RMSdq      gap      omega  full diag
   1    -23.5435661 -0.235436E+02  0.591E-02    4.31       0.0  T
   2    -23.5435668 -0.644318E-06  0.280E-02    4.31       1.0  T
   3    -23.5435669 -0.152374E-06  0.429E-03    4.31       5.1  T
   4    -23.5435669 -0.128510E-08  0.536E-04    4.31      40.7  T
   5    -23.5435669 -0.721872E-09  0.236E-04    4.31      92.6  T
     SCC iter.                  ...        0 min,  0.003 sec
     gradient                   ...        0 min,  0.005 sec
 * total energy  :   -23.2353930 Eh     change       -0.4134325E-04 Eh
   gradient norm :     0.0009011 Eh/α   predicted    -0.1740714E-04 ( -57.90%)
   displ. norm   :     0.1333916 α      lambda       -0.2578220E-04
   maximum displ.:     0.1021637 α      in ANC's #2, #1, #7, ...

........................................................................
.............................. CYCLE    8 ..............................
........................................................................

 iter      E             dE          RMSdq      gap      omega  full diag
   1    -23.5438325 -0.235438E+02  0.578E-02    4.31       0.0  T
   2    -23.5438332 -0.615003E-06  0.275E-02    4.31       1.0  T
   3    -23.5438333 -0.142260E-06  0.419E-03    4.31       5.2  T
   4    -23.5438333 -0.995175E-09  0.491E-04    4.31      44.5  T
   5    -23.5438333 -0.576762E-09  0.188E-04    4.31     116.3  T
     SCC iter.                  ...        0 min,  0.003 sec
     gradient                   ...        0 min,  0.005 sec
 * total energy  :   -23.2354228 Eh     change       -0.2980117E-04 Eh
   gradient norm :     0.0007766 Eh/α   predicted    -0.1299389E-04 ( -56.40%)
   displ. norm   :     0.1167707 α      lambda       -0.1804590E-04
   maximum displ.:     0.0895913 α      in ANC's #2, #1, #7, ...

........................................................................
.............................. CYCLE    9 ..............................
........................................................................

 iter      E             dE          RMSdq      gap      omega  full diag
   1    -23.5439592 -0.235440E+02  0.535E-02    4.30       0.0  T
   2    -23.5439597 -0.535629E-06  0.253E-02    4.30       1.0  T
   3    -23.5439598 -0.123842E-06  0.385E-03    4.30       5.7  T
   4    -23.5439598  0.854737E-09  0.864E-04    4.30      25.3  T
   5    -23.5439598 -0.349227E-08  0.231E-04    4.30      94.5  T
     SCC iter.                  ...        0 min,  0.003 sec
     gradient                   ...        0 min,  0.005 sec
 * total energy  :   -23.2354448 Eh     change       -0.2201620E-04 Eh
   gradient norm :     0.0007462 Eh/α   predicted    -0.9081063E-05 ( -58.75%)
   displ. norm   :     0.1184966 α      lambda       -0.1651293E-04
   maximum displ.:     0.0899156 α      in ANC's #2, #1, #7, ...

........................................................................
.............................. CYCLE   10 ..............................
........................................................................

 iter      E             dE          RMSdq      gap      omega  full diag
   1    -23.5440863 -0.235441E+02  0.477E-02    4.30       0.0  T
   2    -23.5440867 -0.394566E-06  0.229E-02    4.30       1.0  T
   3    -23.5440868 -0.933407E-07  0.363E-03    4.30       6.0  T
   4    -23.5440868  0.609290E-10  0.451E-04    4.30      48.3  T
   5    -23.5440868 -0.124132E-08  0.143E-04    4.30     152.5  T
     SCC iter.                  ...        0 min,  0.003 sec
     gradient                   ...        0 min,  0.005 sec
 * total energy  :   -23.2354663 Eh     change       -0.2141016E-04 Eh
   gradient norm :     0.0005767 Eh/α   predicted    -0.8309991E-05 ( -61.19%)
   displ. norm   :     0.1472706 α      lambda       -0.1853060E-04
   maximum displ.:     0.1094824 α      in ANC's #2, #1, #8, ...

........................................................................
.............................. CYCLE   11 ..............................
........................................................................

 iter      E             dE          RMSdq      gap      omega  full diag
   1    -23.5440296 -0.235440E+02  0.579E-02    4.30       0.0  T
   2    -23.5440302 -0.574963E-06  0.279E-02    4.30       1.0  T
   3    -23.5440303 -0.134444E-06  0.449E-03    4.30       4.9  T
   4    -23.5440303  0.510809E-09  0.645E-04    4.30      33.8  T
   5    -23.5440303 -0.241943E-08  0.173E-04    4.30     126.3  T
     SCC iter.                  ...        0 min,  0.003 sec
     gradient                   ...        0 min,  0.005 sec
 * total energy  :   -23.2354883 Eh     change       -0.2200739E-04 Eh
   gradient norm :     0.0006456 Eh/α   predicted    -0.9355364E-05 ( -57.49%)
   displ. norm   :     0.1272194 α      lambda       -0.1199322E-04
   maximum displ.:     0.0961315 α      in ANC's #2, #1, #8, ...

........................................................................
.............................. CYCLE   12 ..............................
........................................................................

 iter      E             dE          RMSdq      gap      omega  full diag
   1    -23.5439924 -0.235440E+02  0.491E-02    4.30       0.0  T
   2    -23.5439928 -0.394024E-06  0.239E-02    4.30       1.0  T
   3    -23.5439929 -0.954187E-07  0.391E-03    4.30       5.6  T
   4    -23.5439929  0.447677E-10  0.404E-04    4.30      54.0  T
   5    -23.5439929 -0.140425E-08  0.146E-04    4.30     149.8  T
     SCC iter.                  ...        0 min,  0.003 sec
     gradient                   ...        0 min,  0.005 sec
 * total energy  :   -23.2355010 Eh     change       -0.1275506E-04 Eh
   gradient norm :     0.0005795 Eh/α   predicted    -0.6040374E-05 ( -52.64%)
   displ. norm   :     0.0706780 α      lambda       -0.5219912E-05
   maximum displ.:     0.0552522 α      in ANC's #2, #1, #8, ...

........................................................................
.............................. CYCLE   13 ..............................
........................................................................

 iter      E             dE          RMSdq      gap      omega  full diag
   1    -23.5442291 -0.235442E+02  0.293E-02    4.30       0.0  T
   2    -23.5442292 -0.150697E-06  0.141E-02    4.30       1.5  T
   3    -23.5442293 -0.342935E-07  0.220E-03    4.30       9.9  T
   4    -23.5442293  0.213127E-10  0.318E-04    4.30      68.6  T
   5    -23.5442293 -0.422560E-09  0.739E-05    4.30     295.4  T
     SCC iter.                  ...        0 min,  0.002 sec
     gradient                   ...        0 min,  0.005 sec
 * total energy  :   -23.2355066 Eh     change       -0.5611321E-05 Eh
   gradient norm :     0.0005399 Eh/α   predicted    -0.2616267E-05 ( -53.38%)
   displ. norm   :     0.0431614 α      lambda       -0.3028031E-05
   maximum displ.:     0.0362248 α      in ANC's #2, #8, #1, ...

........................................................................
.............................. CYCLE   14 ..............................
........................................................................

 iter      E             dE          RMSdq      gap      omega  full diag
   1    -23.5442577 -0.235443E+02  0.193E-02    4.30       0.0  T
   2    -23.5442578 -0.658592E-07  0.917E-03    4.30       2.4  T
   3    -23.5442578 -0.152828E-07  0.137E-03    4.30      16.0  T
   4    -23.5442578 -0.177458E-10  0.152E-04    4.30     143.8  T
   5    -23.5442578 -0.119339E-09  0.472E-05    4.30     462.4  T
     SCC iter.                  ...        0 min,  0.002 sec
     gradient                   ...        0 min,  0.005 sec
 * total energy  :   -23.2355104 Eh     change       -0.3778096E-05 Eh
   gradient norm :     0.0003080 Eh/α   predicted    -0.1516185E-05 ( -59.87%)
   displ. norm   :     0.0356467 α      lambda       -0.2760115E-05
   maximum displ.:     0.0264883 α      in ANC's #2, #8, #7, ...

........................................................................
.............................. CYCLE   15 ..............................
........................................................................

 iter      E             dE          RMSdq      gap      omega  full diag
   1    -23.5442807 -0.235443E+02  0.144E-02    4.30       0.0  T
   2    -23.5442807 -0.350070E-07  0.699E-03    4.30       3.1  T
   3    -23.5442808 -0.824030E-08  0.110E-03    4.30      19.8  T
   4    -23.5442808  0.782450E-10  0.168E-04    4.30     130.1  T
   5    -23.5442808 -0.252019E-09  0.519E-05    4.30     420.2  T
     SCC iter.                  ...        0 min,  0.002 sec
     gradient                   ...        0 min,  0.005 sec
 * total energy  :   -23.2355140 Eh     change       -0.3565634E-05 Eh
   gradient norm :     0.0002950 Eh/α   predicted    -0.1389502E-05 ( -61.03%)
   displ. norm   :     0.0475402 α      lambda       -0.3321827E-05
   maximum displ.:     0.0320812 α      in ANC's #2, #8, #7, ...

........................................................................
.............................. CYCLE   16 ..............................
........................................................................

 iter      E             dE          RMSdq      gap      omega  full diag
   1    -23.5441793 -0.235442E+02  0.207E-02    4.30       0.0  T
   2    -23.5441794 -0.788186E-07  0.993E-03    4.30       2.2  T
   3    -23.5441794 -0.179651E-07  0.155E-03    4.30      14.1  T
   4    -23.5441794  0.317456E-09  0.300E-04    4.30      72.7  T
   5    -23.5441794 -0.775206E-09  0.790E-05    4.30     276.3  T
     SCC iter.                  ...        0 min,  0.002 sec
     gradient                   ...        0 min,  0.005 sec
 * total energy  :   -23.2355178 Eh     change       -0.3807903E-05 Eh
   gradient norm :     0.0002949 Eh/α   predicted    -0.1664257E-05 ( -56.29%)
   displ. norm   :     0.0406668 α      lambda       -0.2012947E-05
   maximum displ.:     0.0270324 α      in ANC's #2, #1, #7, ...

........................................................................
.............................. CYCLE   17 ..............................
........................................................................

 iter      E             dE          RMSdq      gap      omega  full diag
   1    -23.5441465 -0.235441E+02  0.155E-02    4.30       0.0  T
   2    -23.5441466 -0.417315E-07  0.757E-03    4.30       2.9  T
   3    -23.5441466 -0.958690E-08  0.124E-03    4.30      17.6  T
   4    -23.5441466  0.794103E-10  0.209E-04    4.30     104.2  T
   5    -23.5441466 -0.346486E-09  0.681E-05    4.30     320.6  T
     SCC iter.                  ...        0 min,  0.002 sec
     gradient                   ...        0 min,  0.005 sec
 * total energy  :   -23.2355200 Eh     change       -0.2219687E-05 Eh
   gradient norm :     0.0002672 Eh/α   predicted    -0.1008852E-05 ( -54.55%)
   displ. norm   :     0.0248973 α      lambda       -0.1046149E-05
   maximum displ.:     0.0177297 α      in ANC's #2, #1, #7, ...

........................................................................
.............................. CYCLE   18 ..............................
........................................................................

 iter      E             dE          RMSdq      gap      omega  full diag
   1    -23.5441207 -0.235441E+02  0.108E-02    4.30       0.0  T
   2    -23.5441207 -0.231797E-07  0.515E-03    4.30       4.2  T
   3    -23.5441207 -0.502877E-08  0.814E-04    4.30      26.8  T
   4    -23.5441207  0.158309E-10  0.183E-04    4.30     119.0  T
     SCC iter.                  ...        0 min,  0.002 sec
     gradient                   ...        0 min,  0.005 sec
 * total energy  :   -23.2355213 Eh     change       -0.1329739E-05 Eh
   gradient norm :     0.0001732 Eh/α   predicted    -0.5249342E-06 ( -60.52%)
   displ. norm   :     0.0226096 α      lambda       -0.1109518E-05
   maximum displ.:     0.0162333 α      in ANC's #2, #1, #8, ...

........................................................................
.............................. CYCLE   19 ..............................
........................................................................

 iter      E             dE          RMSdq      gap      omega  full diag
   1    -23.5441034 -0.235441E+02  0.867E-03    4.30       0.0  T
   2    -23.5441035 -0.145055E-07  0.417E-03    4.30       5.2  T
   3    -23.5441035 -0.322861E-08  0.670E-04    4.30      32.6  T
   4    -23.5441035 -0.827782E-12  0.949E-05    4.30     229.8  T
     SCC iter.                  ...        0 min,  0.002 sec
     gradient                   ...        0 min,  0.005 sec
 * total energy  :   -23.2355229 Eh     change       -0.1532428E-05 Eh
   gradient norm :     0.0001628 Eh/α   predicted    -0.5554078E-06 ( -63.76%)
   displ. norm   :     0.0357750 α      lambda       -0.1849409E-05
   maximum displ.:     0.0248552 α      in ANC's #2, #1, #8, ...

........................................................................
.............................. CYCLE   20 ..............................
........................................................................

 iter      E             dE          RMSdq      gap      omega  full diag
   1    -23.5441019 -0.235441E+02  0.124E-02    4.30       0.0  T
   2    -23.5441019 -0.288285E-07  0.616E-03    4.30       3.5  T
   3    -23.5441019 -0.624123E-08  0.106E-03    4.30      20.5  T
   4    -23.5441019 -0.255156E-10  0.177E-04    4.30     123.6  T
   5    -23.5441019 -0.141263E-09  0.546E-05    4.30     399.6  T
     SCC iter.                  ...        0 min,  0.003 sec
     gradient                   ...        0 min,  0.005 sec
 * total energy  :   -23.2355253 Eh     change       -0.2479739E-05 Eh
   gradient norm :     0.0002056 Eh/α   predicted    -0.9264584E-06 ( -62.64%)
   displ. norm   :     0.0566253 α      lambda       -0.2584932E-05
   maximum displ.:     0.0396220 α      in ANC's #2, #1, #8, ...
 * RMSD in coord.:     0.3047323 α      energy gain  -0.1500690E-02 Eh

generating ANC from exact Hessian ...
Using Lindh-Hessian (1995)
 Shifting diagonal of input Hessian by   9.267945598252350E-003
 Lowest  eigenvalues of input Hessian
    0.000000    0.000000    0.000000    0.000000    0.000000    0.000000
    0.010000    0.010487    0.012300    0.015548    0.016135    0.017492
    0.018014    0.018086    0.021733    0.022699    0.026501    0.030391
 Highest eigenvalues
    1.160364    1.163410    1.206551    1.208857    1.260681    1.263705
 

........................................................................
.............................. CYCLE   21 ..............................
........................................................................

 iter      E             dE          RMSdq      gap      omega  full diag
   1    -23.5440790 -0.235441E+02  0.188E-02    4.30       0.0  T
   2    -23.5440791 -0.622906E-07  0.935E-03    4.30       2.3  T
   3    -23.5440791 -0.138511E-07  0.163E-03    4.30      13.4  T
   4    -23.5440791 -0.815383E-10  0.214E-04    4.30     102.0  T
   5    -23.5440791 -0.272419E-09  0.795E-05    4.30     274.4  T
     SCC iter.                  ...        0 min,  0.003 sec
     gradient                   ...        0 min,  0.005 sec
 * total energy  :   -23.2355286 Eh     change       -0.3268528E-05 Eh
   gradient norm :     0.0002667 Eh/α   predicted     0.0000000E+00 (-100.00%)
   displ. norm   :     0.0095400 α      lambda       -0.9914275E-07
   maximum displ.:     0.0055362 α      in ANC's #1, #2, #4, ...

........................................................................
.............................. CYCLE   22 ..............................
........................................................................

 iter      E             dE          RMSdq      gap      omega  full diag
   1    -23.5442034 -0.235442E+02  0.244E-03    4.30       0.0  T
   2    -23.5442034 -0.153989E-08  0.141E-03    4.30      15.5  T
   3    -23.5442034 -0.227672E-09  0.216E-04    4.30     101.2  T
   4    -23.5442034 -0.417444E-10  0.915E-05    4.30     238.5  T
     SCC iter.                  ...        0 min,  0.002 sec
     gradient                   ...        0 min,  0.005 sec
 * total energy  :   -23.2355294 Eh     change       -0.7698172E-06 Eh
   gradient norm :     0.0001254 Eh/α   predicted    -0.3270266E-06 ( -57.52%)
   displ. norm   :     0.0228199 α      lambda       -0.8603809E-06
   maximum displ.:     0.0132319 α      in ANC's #1, #2, #6, ...

........................................................................
.............................. CYCLE   23 ..............................
........................................................................

 iter      E             dE          RMSdq      gap      omega  full diag
   1    -23.5442663 -0.235443E+02  0.638E-03    4.30       0.0  T
   2    -23.5442663 -0.587491E-08  0.336E-03    4.30       6.5  T
   3    -23.5442663 -0.143501E-08  0.596E-04    4.30      36.6  T
   4    -23.5442663 -0.372609E-10  0.631E-05    4.30     345.9  T
     SCC iter.                  ...        0 min,  0.002 sec
     gradient                   ...        0 min,  0.005 sec
 * total energy  :   -23.2355306 Eh     change       -0.1241364E-05 Eh
   gradient norm :     0.0002855 Eh/α   predicted    -0.5236759E-06 ( -57.81%)
   displ. norm   :     0.0318234 α      lambda       -0.1118431E-05
   maximum displ.:     0.0192825 α      in ANC's #2, #1, #6, ...

........................................................................
.............................. CYCLE   24 ..............................
........................................................................

 iter      E             dE          RMSdq      gap      omega  full diag
   1    -23.5442107 -0.235442E+02  0.954E-03    4.30       0.0  T
   2    -23.5442107 -0.140103E-07  0.492E-03    4.30       4.4  T
   3    -23.5442107 -0.310377E-08  0.881E-04    4.30      24.8  T
   4    -23.5442107 -0.151061E-10  0.139E-04    4.30     157.0  T
     SCC iter.                  ...        0 min,  0.002 sec
     gradient                   ...        0 min,  0.005 sec
 * total energy  :   -23.2355320 Eh     change       -0.1352282E-05 Eh
   gradient norm :     0.0002531 Eh/α   predicted    -0.5624975E-06 ( -58.40%)
   displ. norm   :     0.0350246 α      lambda       -0.1058495E-05
   maximum displ.:     0.0222903 α      in ANC's #2, #1, #6, ...

........................................................................
.............................. CYCLE   25 ..............................
........................................................................

 iter      E             dE          RMSdq      gap      omega  full diag
   1    -23.5441830 -0.235442E+02  0.118E-02    4.30       0.0  T
   2    -23.5441831 -0.232465E-07  0.592E-03    4.30       3.7  T
   3    -23.5441831 -0.521838E-08  0.104E-03    4.30      21.0  T
   4    -23.5441831 -0.625278E-10  0.105E-04    4.30     208.0  T
   5    -23.5441831 -0.436557E-10  0.416E-05    4.30     524.3  T
     SCC iter.                  ...        0 min,  0.003 sec
     gradient                   ...        0 min,  0.005 sec
 * total energy  :   -23.2355333 Eh     change       -0.1312547E-05 Eh
   gradient norm :     0.0001568 Eh/α   predicted    -0.5307247E-06 ( -59.57%)
   displ. norm   :     0.0355875 α      lambda       -0.9990983E-06
   maximum displ.:     0.0237112 α      in ANC's #2, #1, #3, ...

........................................................................
.............................. CYCLE   26 ..............................
........................................................................

 iter      E             dE          RMSdq      gap      omega  full diag
   1    -23.5441381 -0.235441E+02  0.130E-02    4.30       0.0  T
   2    -23.5441381 -0.313039E-07  0.636E-03    4.30       3.4  T
   3    -23.5441381 -0.685305E-08  0.108E-03    4.30      20.2  T
   4    -23.5441381  0.611067E-10  0.206E-04    4.30     105.8  T
   5    -23.5441381 -0.263086E-09  0.570E-05    4.30     383.0  T
     SCC iter.                  ...        0 min,  0.002 sec
     gradient                   ...        0 min,  0.005 sec
 * total energy  :   -23.2355346 Eh     change       -0.1266657E-05 Eh
   gradient norm :     0.0001185 Eh/α   predicted    -0.5008380E-06 ( -60.46%)
   displ. norm   :     0.0349396 α      lambda       -0.9596248E-06
   maximum displ.:     0.0241457 α      in ANC's #2, #1, #3, ...

........................................................................
.............................. CYCLE   27 ..............................
........................................................................

 iter      E             dE          RMSdq      gap      omega  full diag
   1    -23.5441383 -0.235441E+02  0.137E-02    4.30       0.0  T
   2    -23.5441384 -0.352148E-07  0.662E-03    4.30       3.3  T
   3    -23.5441384 -0.790685E-08  0.107E-03    4.30      20.5  T
   4    -23.5441384  0.998313E-12  0.145E-04    4.30     150.3  T
   5    -23.5441384 -0.138161E-09  0.500E-05    4.30     436.4  T
     SCC iter.                  ...        0 min,  0.002 sec
     gradient                   ...        0 min,  0.005 sec
 * total energy  :   -23.2355358 Eh     change       -0.1253789E-05 Eh
   gradient norm :     0.0001352 Eh/α   predicted    -0.4805202E-06 ( -61.67%)
   displ. norm   :     0.0378149 α      lambda       -0.1022580E-05
   maximum displ.:     0.0267150 α      in ANC's #2, #1, #3, ...

........................................................................
.............................. CYCLE   28 ..............................
........................................................................

 iter      E             dE          RMSdq      gap      omega  full diag
   1    -23.5441538 -0.235442E+02  0.158E-02    4.29       0.0  T
   2    -23.5441539 -0.484076E-07  0.752E-03    4.29       2.9  T
   3    -23.5441539 -0.107943E-07  0.116E-03    4.29      18.8  T
   4    -23.5441539  0.134470E-10  0.197E-04    4.29     110.9  T
   5    -23.5441539 -0.214907E-09  0.653E-05    4.29     334.3  T
     SCC iter.                  ...        0 min,  0.003 sec
     gradient                   ...        0 min,  0.005 sec
 * total energy  :   -23.2355372 Eh     change       -0.1373874E-05 Eh
   gradient norm :     0.0001496 Eh/α   predicted    -0.5130515E-06 ( -62.66%)
   displ. norm   :     0.0445000 α      lambda       -0.1178607E-05
   maximum displ.:     0.0318378 α      in ANC's #2, #1, #3, ...

........................................................................
.............................. CYCLE   29 ..............................
........................................................................

 iter      E             dE          RMSdq      gap      omega  full diag
   1    -23.5441568 -0.235442E+02  0.186E-02    4.29       0.0  T
   2    -23.5441568 -0.651681E-07  0.887E-03    4.29       2.5  T
   3    -23.5441569 -0.146165E-07  0.136E-03    4.29      16.1  T
   4    -23.5441569  0.394351E-10  0.222E-04    4.29      98.3  T
   5    -23.5441569 -0.328367E-09  0.730E-05    4.29     299.1  T
     SCC iter.                  ...        0 min,  0.003 sec
     gradient                   ...        0 min,  0.005 sec
 * total energy  :   -23.2355388 Eh     change       -0.1577335E-05 Eh
   gradient norm :     0.0001552 Eh/α   predicted    -0.5913426E-06 ( -62.51%)
   displ. norm   :     0.0531075 α      lambda       -0.1288743E-05
   maximum displ.:     0.0381668 α      in ANC's #2, #1, #6, ...

........................................................................
.............................. CYCLE   30 ..............................
........................................................................

 iter      E             dE          RMSdq      gap      omega  full diag
   1    -23.5441667 -0.235442E+02  0.217E-02    4.29       0.0  T
   2    -23.5441668 -0.890646E-07  0.104E-02    4.29       2.1  T
   3    -23.5441668 -0.200810E-07  0.159E-03    4.29      13.7  T
   4    -23.5441668  0.312141E-10  0.239E-04    4.29      91.3  T
   5    -23.5441668 -0.389981E-09  0.846E-05    4.29     258.0  T
     SCC iter.                  ...        0 min,  0.003 sec
     gradient                   ...        0 min,  0.005 sec
 * total energy  :   -23.2355404 Eh     change       -0.1676849E-05 Eh
   gradient norm :     0.0001200 Eh/α   predicted    -0.6461132E-06 ( -61.47%)
   displ. norm   :     0.0592292 α      lambda       -0.1190767E-05
   maximum displ.:     0.0427316 α      in ANC's #2, #1, #6, ...

........................................................................
.............................. CYCLE   31 ..............................
........................................................................

 iter      E             dE          RMSdq      gap      omega  full diag
   1    -23.5441655 -0.235442E+02  0.237E-02    4.29       0.0  T
   2    -23.5441656 -0.104518E-06  0.114E-02    4.29       1.9  T
   3    -23.5441657 -0.235659E-07  0.176E-03    4.29      12.4  T
   4    -23.5441657 -0.538982E-10  0.237E-04    4.29      92.1  T
   5    -23.5441657 -0.358746E-09  0.885E-05    4.29     246.7  T
     SCC iter.                  ...        0 min,  0.003 sec
     gradient                   ...        0 min,  0.005 sec
 * total energy  :   -23.2355420 Eh     change       -0.1513616E-05 Eh
   gradient norm :     0.0000862 Eh/α   predicted    -0.5970045E-06 ( -60.56%)
   displ. norm   :     0.0557060 α      lambda       -0.8785413E-06
   maximum displ.:     0.0403644 α      in ANC's #2, #1, #7, ...

........................................................................
.............................. CYCLE   32 ..............................
........................................................................

 iter      E             dE          RMSdq      gap      omega  full diag
   1    -23.5441593 -0.235442E+02  0.212E-02    4.29       0.0  T
   2    -23.5441594 -0.819002E-07  0.102E-02    4.29       2.1  T
   3    -23.5441594 -0.184593E-07  0.161E-03    4.29      13.5  T
   4    -23.5441594 -0.346354E-10  0.205E-04    4.29     106.3  T
   5    -23.5441594 -0.286647E-09  0.774E-05    4.29     281.9  T
     SCC iter.                  ...        0 min,  0.003 sec
     gradient                   ...        0 min,  0.005 sec
 * total energy  :   -23.2355431 Eh     change       -0.1126233E-05 Eh
   gradient norm :     0.0000738 Eh/α   predicted    -0.4405570E-06 ( -60.88%)
   displ. norm   :     0.0456148 α      lambda       -0.5985688E-06
   maximum displ.:     0.0331589 α      in ANC's #2, #1, #7, ...

........................................................................
.............................. CYCLE   33 ..............................
........................................................................

 iter      E             dE          RMSdq      gap      omega  full diag
   1    -23.5441771 -0.235442E+02  0.176E-02    4.29       0.0  T
   2    -23.5441772 -0.566269E-07  0.848E-03    4.29       2.6  T
   3    -23.5441772 -0.128055E-07  0.133E-03    4.29      16.4  T
   4    -23.5441772 -0.112308E-09  0.126E-04    4.29     173.8  T
   5    -23.5441772 -0.596252E-10  0.559E-05    4.29     390.1  T
     SCC iter.                  ...        0 min,  0.003 sec
     gradient                   ...        0 min,  0.005 sec
 * total energy  :   -23.2355439 Eh     change       -0.8042549E-06 Eh
   gradient norm :     0.0000705 Eh/α   predicted    -0.3007204E-06 ( -62.61%)
   displ. norm   :     0.0402229 α      lambda       -0.4900983E-06
   maximum displ.:     0.0295133 α      in ANC's #2, #1, #6, ...

........................................................................
.............................. CYCLE   34 ..............................
........................................................................

 iter      E             dE          RMSdq      gap      omega  full diag
   1    -23.5441797 -0.235442E+02  0.150E-02    4.29       0.0  T
   2    -23.5441797 -0.400801E-07  0.730E-03    4.29       3.0  T
   3    -23.5441797 -0.905321E-08  0.117E-03    4.29      18.6  T
   4    -23.5441797 -0.806821E-10  0.118E-04    4.29     185.3  T
   5    -23.5441797 -0.615934E-10  0.503E-05    4.29     434.1  T
     SCC iter.                  ...        0 min,  0.003 sec
     gradient                   ...        0 min,  0.005 sec
 * total energy  :   -23.2355446 Eh     change       -0.6853692E-06 Eh
   gradient norm :     0.0000616 Eh/α   predicted    -0.2456018E-06 ( -64.17%)
   displ. norm   :     0.0301965 α      lambda       -0.3719333E-06
   maximum displ.:     0.0223957 α      in ANC's #2, #1, #6, ...

........................................................................
.............................. CYCLE   35 ..............................
........................................................................

 iter      E             dE          RMSdq      gap      omega  full diag
   1    -23.5441911 -0.235442E+02  0.116E-02    4.29       0.0  T
   2    -23.5441912 -0.245706E-07  0.563E-03    4.29       3.9  T
   3    -23.5441912 -0.556648E-08  0.899E-04    4.29      24.3  T
   4    -23.5441912 -0.534399E-10  0.798E-05    4.29     273.5  T
     SCC iter.                  ...        0 min,  0.002 sec
     gradient                   ...        0 min,  0.005 sec
 * total energy  :   -23.2355451 Eh     change       -0.5306219E-06 Eh
   gradient norm :     0.0000540 Eh/α   predicted    -0.1870198E-06 ( -64.75%)
   displ. norm   :     0.0256476 α      lambda       -0.3262307E-06
   maximum displ.:     0.0194685 α      in ANC's #2, #1, #6, ...

........................................................................
.............................. CYCLE   36 ..............................
........................................................................

 iter      E             dE          RMSdq      gap      omega  full diag
   1    -23.5441996 -0.235442E+02  0.101E-02    4.29       0.0  T
   2    -23.5441996 -0.182102E-07  0.488E-03    4.29       4.5  T
   3    -23.5441996 -0.411029E-08  0.781E-04    4.29      27.9  T
   4    -23.5441996  0.248690E-13  0.107E-04    4.29     203.1  T
     SCC iter.                  ...        0 min,  0.002 sec
     gradient                   ...        0 min,  0.005 sec
 * total energy  :   -23.2355456 Eh     change       -0.4558216E-06 Eh
   gradient norm :     0.0000419 Eh/α   predicted    -0.1644782E-06 ( -63.92%)
   displ. norm   :     0.0188410 α      lambda       -0.2366993E-06
   maximum displ.:     0.0150374 α      in ANC's #2, #1, #6, ...

........................................................................
.............................. CYCLE   37 ..............................
........................................................................

 iter      E             dE          RMSdq      gap      omega  full diag
   1    -23.5442008 -0.235442E+02  0.787E-03    4.29       0.0  T
   2    -23.5442009 -0.113663E-07  0.377E-03    4.29       5.8  T
   3    -23.5442009 -0.259039E-08  0.589E-04    4.29      37.1  T
   4    -23.5442009 -0.547828E-11  0.742E-05    4.29     294.3  T
     SCC iter.                  ...        0 min,  0.002 sec
     gradient                   ...        0 min,  0.005 sec
 * total energy  :   -23.2355459 Eh     change       -0.3454305E-06 Eh
   gradient norm :     0.0000347 Eh/α   predicted    -0.1200375E-06 ( -65.25%)
   displ. norm   :     0.0102256 α      lambda       -0.1459875E-06
   maximum displ.:     0.0089124 α      in ANC's #2, #1, #6, ...

........................................................................
.............................. CYCLE   38 ..............................
........................................................................

 iter      E             dE          RMSdq      gap      omega  full diag
   1    -23.5442096 -0.235442E+02  0.459E-03    4.29       0.0  T
   2    -23.5442096 -0.389155E-08  0.218E-03    4.29      10.0  T
   3    -23.5442096 -0.889884E-09  0.324E-04    4.29      67.4  T
   4    -23.5442096  0.101963E-11  0.477E-05    4.29     457.5  T
     SCC iter.                  ...        0 min,  0.002 sec
     gradient                   ...        0 min,  0.005 sec
 * total energy  :   -23.2355461 Eh     change       -0.2148415E-06 Eh
   gradient norm :     0.0000331 Eh/α   predicted    -0.7347867E-07 ( -65.80%)
   displ. norm   :     0.0064931 α      lambda       -0.1024087E-06
   maximum displ.:     0.0061602 α      in ANC's #2, #1, #3, ...

........................................................................
.............................. CYCLE   39 ..............................
........................................................................

 iter      E             dE          RMSdq      gap      omega  full diag
   1    -23.5442103 -0.235442E+02  0.313E-03    4.29       0.0  T
   2    -23.5442103 -0.180662E-08  0.148E-03    4.29      14.8  T
   3    -23.5442103 -0.419277E-09  0.211E-04    4.29     103.5  T
   4    -23.5442103  0.735412E-12  0.308E-05    4.29     709.3  T
     SCC iter.                  ...        0 min,  0.002 sec
     gradient                   ...        0 min,  0.005 sec
 * total energy  :   -23.2355463 Eh     change       -0.1621145E-06 Eh
   gradient norm :     0.0000323 Eh/α   predicted    -0.5465788E-07 ( -66.28%)
   displ. norm   :     0.0049884 α      lambda       -0.9219539E-07
   maximum displ.:     0.0048672 α      in ANC's #2, #3, #8, ...

........................................................................
.............................. CYCLE   40 ..............................
........................................................................

 iter      E             dE          RMSdq      gap      omega  full diag
   1    -23.5442122 -0.235442E+02  0.244E-03    4.29       0.0  T
   2    -23.5442122 -0.109118E-08  0.114E-03    4.29      19.1  T
   3    -23.5442122 -0.255287E-09  0.156E-04    4.29     139.7  T
   4    -23.5442122  0.426326E-12  0.209E-05    4.29    1045.4  T
     SCC iter.                  ...        0 min,  0.002 sec
     gradient                   ...        0 min,  0.005 sec
 * total energy  :   -23.2355464 Eh     change       -0.1416800E-06 Eh
   gradient norm :     0.0000319 Eh/α   predicted    -0.4774289E-07 ( -66.30%)
   displ. norm   :     0.0051342 α      lambda       -0.9244408E-07
   maximum displ.:     0.0048082 α      in ANC's #2, #1, #8, ...

........................................................................
.............................. CYCLE   41 ..............................
........................................................................

 iter      E             dE          RMSdq      gap      omega  full diag
   1    -23.5442124 -0.235442E+02  0.243E-03    4.29       0.0  T
   2    -23.5442124 -0.106353E-08  0.114E-03    4.29      19.2  T
   3    -23.5442124 -0.250786E-09  0.157E-04    4.29     138.7  T
   4    -23.5442124 -0.479616E-12  0.153E-05    4.29    1429.3  T
     SCC iter.                  ...        0 min,  0.002 sec
     gradient                   ...        0 min,  0.005 sec
 * total energy  :   -23.2355466 Eh     change       -0.1474402E-06 Eh
   gradient norm :     0.0000302 Eh/α   predicted    -0.5034641E-07 ( -65.85%)
   displ. norm   :     0.0061875 α      lambda       -0.1065099E-06
   maximum displ.:     0.0055435 α      in ANC's #2, #1, #8, ...

........................................................................
.............................. CYCLE   42 ..............................
........................................................................

 iter      E             dE          RMSdq      gap      omega  full diag
   1    -23.5442106 -0.235442E+02  0.271E-03    4.29       0.0  T
   2    -23.5442106 -0.130287E-08  0.128E-03    4.29      17.1  T
   3    -23.5442106 -0.306137E-09  0.181E-04    4.29     120.6  T
   4    -23.5442106  0.299849E-11  0.277E-05    4.29     786.7  T
     SCC iter.                  ...        0 min,  0.002 sec
     gradient                   ...        0 min,  0.005 sec
 * total energy  :   -23.2355467 Eh     change       -0.1676256E-06 Eh
   gradient norm :     0.0000283 Eh/α   predicted    -0.5651128E-07 ( -66.29%)
   displ. norm   :     0.0067916 α      lambda       -0.1141253E-06
   maximum displ.:     0.0058540 α      in ANC's #2, #1, #8, ...
 * RMSD in coord.:     0.1276283 α      energy gain  -0.2138809E-04 Eh

generating ANC from exact Hessian ...
Using Lindh-Hessian (1995)
 Shifting diagonal of input Hessian by   9.260351454607988E-003
 Lowest  eigenvalues of input Hessian
    0.000000    0.000000    0.000000    0.000000    0.000000    0.000000
    0.010000    0.010414    0.012222    0.015516    0.016216    0.017457
    0.017993    0.018076    0.021844    0.022709    0.026521    0.030237
 Highest eigenvalues
    1.160552    1.163568    1.206906    1.209082    1.261239    1.263882
 

........................................................................
.............................. CYCLE   43 ..............................
........................................................................

 iter      E             dE          RMSdq      gap      omega  full diag
   1    -23.5442092 -0.235442E+02  0.296E-03    4.29       0.0  T
   2    -23.5442092 -0.155200E-08  0.140E-03    4.29      15.6  T
   3    -23.5442092 -0.367347E-09  0.200E-04    4.29     109.4  T
   4    -23.5442092 -0.117950E-11  0.151E-05    4.29    1444.2  T
     SCC iter.                  ...        0 min,  0.002 sec
     gradient                   ...        0 min,  0.005 sec
 * total energy  :   -23.2355469 Eh     change       -0.1665083E-06 Eh
   gradient norm :     0.0000266 Eh/α   predicted     0.0000000E+00 (-100.00%)
   displ. norm   :     0.0000398 α      lambda        0.0000000E+00
   maximum displ.:     0.0000379 α      in ANC's #2, #25, #33, ...

........................................................................
.............................. CYCLE   44 ..............................
........................................................................

 iter      E             dE          RMSdq      gap      omega  full diag
   1    -23.5442085 -0.235442E+02  0.203E-05    4.29       0.0  T
   2    -23.5442085 -0.177636E-12  0.116E-05    4.29    1885.3  T
   3    -23.5442085 -0.106581E-13  0.288E-06    4.29    7586.0  T
     SCC iter.                  ...        0 min,  0.002 sec
     gradient                   ...        0 min,  0.005 sec
 * total energy  :   -23.2355469 Eh     change       -0.1034632E-08 Eh
   gradient norm :     0.0000258 Eh/α   predicted    -0.6870493E-09 ( -33.59%)
   displ. norm   :     0.0000398 α      lambda        0.0000000E+00
   maximum displ.:     0.0000379 α      in ANC's #2, #25, #33, ...

   *** GEOMETRY OPTIMIZATION CONVERGED AFTER 44 ITERATIONS ***

------------------------------------------------------------------------
 total energy gain   :        -0.0015222 Eh       -0.9552 kcal/mol
 total RMSD          :         0.3949377 a0        0.2090 Å
 total power (kW/mol):        -0.0908331 (step)   -7.8480 (real)
------------------------------------------------------------------------

 ANCopt (total)                0 d,  0 h,  0 min,  0.509 sec
 optimizer setup                ...        0 min,  0.001 sec (  0.167%)
 model hessian                  ...        0 min,  0.016 sec (  3.093%)
 ANC generation                 ...        0 min,  0.001 sec (  0.263%)
 coordinate transformation      ...        0 min,  0.000 sec (  0.063%)
 single point calculation       ...        0 min,  0.475 sec ( 93.353%)
 optimization log               ...        0 min,  0.011 sec (  2.238%)
 hessian update                 ...        0 min,  0.000 sec (  0.067%)
 rational function              ...        0 min,  0.002 sec (  0.382%)

================
 final structure:
================
$coord
        4.26795648815943        2.04719209840084        1.46761650111091      C
        2.60499211696357        0.76131479496067       -0.49033152084427      C
        4.09269173957527       -1.04128255005992       -2.15983917642391      C
        0.05317032642122       -0.98830601063788        1.14068313330871      S
       -2.79485181704502        0.59650942271393       -0.11006760598717      C
       -3.30888774506605       -0.23606277977253       -2.80928286726850      C
       -4.98351172105370       -0.03054907129428        1.64161448919957      C
        3.15065883724013        3.30111602394909        2.65202095736466      H
        5.15823418539163        0.63953822867664        2.67175278271925      H
        5.73337132959339        3.14571148309639        0.53365565871299      H
        1.64678963776428        2.17855119073498       -1.64452938128187      H
        2.85402243769270       -1.96833224117446       -3.51234574260162      H
        4.99138609314906       -2.48750593404551       -1.00889605010293      H
        5.54604518248486       -0.01138554226820       -3.18652004379294      H
       -2.38713013970739        2.62110037903766       -0.03362084853392      H
       -4.98380369147366        0.71673400496593       -3.52629810597551      H
       -1.72558304749979        0.21609905373601       -4.04021560351246      H
       -3.62359518361710       -2.26644560408420       -2.86770350445912      H
       -6.68433237878252        0.93341473188145        1.00850754126354      H
       -4.55727790814812        0.55747590233300        3.56347023103451      H
       -5.32771681131886       -2.05680234796062        1.64397459318623      H
$end
 
 Bond Distances (Angstroems)
 ---------------------------
C1-C2=1.5202         C1-H8=1.0875         C1-H9=1.0876         C1-H10=1.0879        C2-C1=1.5202         C2-C3=1.5199         
C2-S4=1.8508         C2-H11=1.0921        C3-C2=1.5199         C3-H12=1.0875        C3-H13=1.0876        C3-H14=1.0880        
S4-C2=1.8508         S4-C5=1.8474         C5-S4=1.8474         C5-C6=1.5193         C5-C7=1.5201         C5-H15=1.0936        
C6-C5=1.5193         C6-H16=1.0880        C6-H17=1.0879        C6-H18=1.0877        C7-C5=1.5201         C7-H19=1.0874        
C7-H20=1.0872        C7-H21=1.0876        H8-C1=1.0875         H9-C1=1.0876         H10-C1=1.0879        H11-C2=1.0921        
H12-C3=1.0875        H13-C3=1.0876        H14-C3=1.0880        H15-C5=1.0936        H16-C6=1.0880        H17-C6=1.0879        
H18-C6=1.0877        H19-C7=1.0874        H20-C7=1.0872        H21-C7=1.0876        
 C  H  Rav=1.0884 sigma=0.0019  Rmin=1.0872  Rmax=1.0936    14
 C  C  Rav=1.5199 sigma=0.0003  Rmin=1.5193  Rmax=1.5202     4
 S  C  Rav=1.8491 sigma=0.0017  Rmin=1.8474  Rmax=1.8508     2
 
 selected bond angles (degree)
 --------------------
H8-C1-C2=110.56                H9-C1-C2=110.09                H9-C1-H8=108.41                H10-C1-C2=110.01               
H10-C1-H8=108.86               H10-C1-H9=108.87               C3-C2-C1=112.16                S4-C2-C1=109.17                
S4-C2-C3=109.57                H11-C2-C1=110.03               H11-C2-C3=110.27               H11-C2-S4=105.40               
H12-C3-C2=110.70               H13-C3-C2=110.04               H13-C3-H12=108.34              H14-C3-C2=110.00               
H14-C3-H12=108.87              H14-C3-H13=108.85              C5-S4-C2=101.60                C6-C5-S4=110.56                
C7-C5-S4=107.70                C7-C5-C6=111.94                H15-C5-S4=105.70               H15-C5-C6=110.74               
H15-C5-C7=109.97               H16-C6-C5=109.84               H17-C6-C5=111.18               H17-C6-H16=108.46              
H18-C6-C5=109.91               H18-C6-H16=108.85              H18-C6-H17=108.55              H19-C7-C5=109.90               
H20-C7-C5=110.48               H20-C7-H19=109.00              H21-C7-C5=110.09               H21-C7-H19=108.92              
H21-C7-H20=108.41              
 
 selected dihedral angles (degree)
 ---------------------------------
C3-C2-C1-H8=180.89            C3-C2-C1-H9=300.64            C3-C2-C1-H10= 60.61           S4-C2-C1-H8=302.53            
S4-C2-C1-H9= 62.28            S4-C2-C1-H10=182.26           H11-C2-C1-H8= 57.75           H11-C2-C1-H9=177.50           
H11-C2-C1-H10=297.48          H12-C3-C2-C1=178.65           H12-C3-C2-S4= 57.24           H12-C3-C2-H11=301.66          
H13-C3-C2-C1= 58.93           H13-C3-C2-S4=297.51           H13-C3-C2-H11=181.93          H14-C3-C2-C1=299.01           
H14-C3-C2-S4=177.60           H14-C3-C2-H11= 62.02          C5-S4-C2-C1=118.90            C5-S4-C2-C3=242.10            
C5-S4-C2-H11=  0.74           C6-C5-S4-C2= 75.26            C7-C5-S4-C2=197.84            H15-C5-S4-C2=315.37           
H16-C6-C5-S4=180.28           H16-C6-C5-C7= 60.20           H16-C6-C5-H15=297.09          H17-C6-C5-S4=300.33           
H17-C6-C5-C7=180.25           H17-C6-C5-H15= 57.14          H18-C6-C5-S4= 60.54           H18-C6-C5-C7=300.46           
H18-C6-C5-H15=177.35          H19-C7-C5-S4=177.72           H19-C7-C5-C6=299.46           H19-C7-C5-H15= 63.01          
H20-C7-C5-S4= 57.40           H20-C7-C5-C6=179.13           H20-C7-C5-H15=302.68          H21-C7-C5-S4=297.69           
H21-C7-C5-C6= 59.43           H21-C7-C5-H15=182.97          
           -------------------------------------------------
          |                Final Singlepoint                |
           -------------------------------------------------

          ...................................................
          :                      SETUP                      :
          :.................................................:
          :  # basis functions                  48          :
          :  # atomic orbitals                  47          :
          :  # shells                           29          :
          :  # electrons                        44          :
          :  max. iterations                   250          :
          :  Hamiltonian                  GFN2-xTB          :
          :  restarted?                      false          :
          :  GBSA solvation                   true          :
          :  PC potential                    false          :
          :  electronic temp.          300.0000000     K    :
          :  accuracy                    1.0000000          :
          :  -> integral cutoff          0.2500000E+02      :
          :  -> integral neglect         0.1000000E-07      :
          :  -> SCF convergence          0.1000000E-05 Eh   :
          :  -> wf. convergence          0.1000000E-03 e    :
          :  Broyden damping             0.4000000          :
          :  net charge                          0          :
          :  unpaired electrons                  0          :
          ...................................................

 iter      E             dE          RMSdq      gap      omega  full diag
   1    -23.5442085 -0.235442E+02  0.113E-06    4.29       0.0  T
   2    -23.5442085 -0.248690E-13  0.721E-07    4.29   30256.6  T
   3    -23.5442085 -0.355271E-14  0.364E-07    4.29   59922.9  T

   *** convergence criteria satisfied after 3 iterations ***

         #    Occupation            Energy/Eh            Energy/eV
      -------------------------------------------------------------
         1        2.0000           -0.6995676             -19.0362
       ...           ...                  ...                  ...
        16        2.0000           -0.4518233             -12.2947
        17        2.0000           -0.4490571             -12.2195
        18        2.0000           -0.4460719             -12.1382
        19        2.0000           -0.4399606             -11.9719
        20        2.0000           -0.4289653             -11.6727
        21        2.0000           -0.4176249             -11.3642
        22        2.0000           -0.3510799              -9.5534 (HOMO)
        23                         -0.1933915              -5.2625 (LUMO)
        24                         -0.1482125              -4.0331
        25                         -0.0006747              -0.0184
        26                          0.0058313               0.1587
        27                          0.0113792               0.3096
       ...                                ...                  ...
        47                          0.3950535              10.7500
      -------------------------------------------------------------
                  HL-Gap            0.1576884 Eh            4.2909 eV
             Fermi-level           -0.2722357 Eh           -7.4079 eV

 SCC (total)                   0 d,  0 h,  0 min,  0.010 sec
 SCC setup                      ...        0 min,  0.001 sec ( 11.722%)
 Dispersion                     ...        0 min,  0.000 sec (  0.726%)
 classical contributions        ...        0 min,  0.000 sec (  0.212%)
 integral evaluation            ...        0 min,  0.002 sec ( 17.258%)
 iterations                     ...        0 min,  0.002 sec ( 18.380%)
 molecular gradient             ...        0 min,  0.005 sec ( 50.188%)
 printout                       ...        0 min,  0.000 sec (  1.373%)

         :::::::::::::::::::::::::::::::::::::::::::::::::::::
         ::                     SUMMARY                     ::
         :::::::::::::::::::::::::::::::::::::::::::::::::::::
         :: total energy             -23.235546902349 Eh    ::
         :: total w/o Gsasa/hb       -23.235710970334 Eh    ::
         :: gradient norm              0.000026019275 Eh/a0 ::
         :: HOMO-LUMO gap              4.290919736894 eV    ::
         ::.................................................::
         :: SCC energy               -23.544142568293 Eh    ::
         :: -> isotropic ES            0.009522034170 Eh    ::
         :: -> anisotropic ES          0.004979490293 Eh    ::
         :: -> anisotropic XC          0.016270903328 Eh    ::
         :: -> dispersion             -0.014245896828 Eh    ::
         :: -> Gsolv                  -0.001683421956 Eh    ::
         ::    -> Gelec               -0.001847489941 Eh    ::
         ::    -> Gsasa                0.000010854883 Eh    ::
         ::    -> Ghb                 -0.000927546596 Eh    ::
         ::    -> Gshift               0.001080759698 Eh    ::
         :: repulsion energy           0.308595665944 Eh    ::
         :: add. restraining           0.000000000000 Eh    ::
         :: total charge               0.000000000000 e     ::
         :::::::::::::::::::::::::::::::::::::::::::::::::::::

           ------------------------------------------------- 
          |                Numerical Hessian                |
           ------------------------------------------------- 
step length          :   0.00500
SCC accuracy         :   0.30000
Hessian scale factor :   1.00000
frozen atoms in %    :   0.00000    0
RMS gradient         :   0.00003
estimated CPU  time      0.02 min
estimated wall time      0.02 min

writing file <hessian>.

 projected vibrational frequencies (cm⁻¹)
eigval :       -0.00    -0.00    -0.00     0.00     0.00     0.00
eigval :       -7.01    60.18   143.21   194.09   195.83   224.55
eigval :      225.19   271.48   283.08   322.39   343.50   419.79
eigval :      429.67   637.58   658.93   926.34   931.01   943.57
eigval :      945.99   974.29   975.48  1051.61  1075.22  1142.30
eigval :     1143.50  1159.58  1165.17  1220.70  1248.18  1290.06
eigval :     1299.06  1398.30  1400.11  1410.87  1411.36  1475.71
eigval :     1475.78  1483.98  1485.30  1486.33  1488.57  1496.39
eigval :     1498.73  2924.41  2946.85  3019.62  3019.87  3022.83
eigval :     3027.61  3029.00  3030.80  3034.14  3034.72  3037.76
eigval :     3040.33  3040.46  3042.99
           -------------------------------------------------
          |                Property Printout                |
           -------------------------------------------------

    * Orbital Energies and Occupations

         #    Occupation            Energy/Eh            Energy/eV
      -------------------------------------------------------------
         1        2.0000           -0.6995676             -19.0362
       ...           ...                  ...                  ...
        10        2.0000           -0.5010816             -13.6351
        11        2.0000           -0.4954699             -13.4824
        12        2.0000           -0.4883939             -13.2899
        13        2.0000           -0.4839688             -13.1695
        14        2.0000           -0.4659494             -12.6791
        15        2.0000           -0.4653161             -12.6619
        16        2.0000           -0.4518233             -12.2947
        17        2.0000           -0.4490571             -12.2195
        18        2.0000           -0.4460719             -12.1382
        19        2.0000           -0.4399606             -11.9719
        20        2.0000           -0.4289653             -11.6727
        21        2.0000           -0.4176249             -11.3642
        22        2.0000           -0.3510799              -9.5534 (HOMO)
        23                         -0.1933915              -5.2625 (LUMO)
        24                         -0.1482125              -4.0331
        25                         -0.0006747              -0.0184
        26                          0.0058313               0.1587
        27                          0.0113792               0.3096
        28                          0.0850958               2.3156
        29                          0.0992292               2.7002
        30                          0.1153066               3.1377
        31                          0.1487243               4.0470
        32                          0.1546641               4.2086
        33                          0.1566501               4.2627
       ...                                ...                  ...
        47                          0.3950535              10.7500
      -------------------------------------------------------------
                  HL-Gap            0.1576884 Eh            4.2909 eV
             Fermi-level           -0.2722357 Eh           -7.4079 eV

     #   Z          covCN         q      C6AA      α(0)
     1   6 C        3.790    -0.114    22.686     6.783
     2   6 C        3.841     0.042    19.838     6.336
     3   6 C        3.788    -0.113    22.665     6.781
     4  16 S        2.084    -0.283   153.303    20.839
     5   6 C        3.841     0.043    19.816     6.333
     6   6 C        3.784    -0.111    22.635     6.777
     7   6 C        3.802    -0.115    22.697     6.783
     8   1 H        0.925     0.046     2.373     2.409
     9   1 H        0.925     0.048     2.340     2.392
    10   1 H        0.925     0.049     2.327     2.386
    11   1 H        0.924     0.037     2.496     2.471
    12   1 H        0.925     0.046     2.373     2.409
    13   1 H        0.925     0.048     2.341     2.392
    14   1 H        0.925     0.049     2.336     2.390
    15   1 H        0.924     0.034     2.530     2.488
    16   1 H        0.925     0.049     2.332     2.388
    17   1 H        0.925     0.040     2.444     2.445
    18   1 H        0.925     0.050     2.318     2.381
    19   1 H        0.925     0.053     2.278     2.360
    20   1 H        0.925     0.049     2.329     2.386
    21   1 H        0.925     0.050     2.314     2.379

 Mol. C6AA /au·bohr⁶  :       3809.888881
 Mol. C8AA /au·bohr⁸  :      96746.444698
 Mol. α(0) /au        :         94.306226


Wiberg/Mayer (AO) data.
largest (>0.10) Wiberg bond orders for each atom

 ---------------------------------------------------------------------------
     #   Z sym  total        # sym  WBO       # sym  WBO       # sym  WBO
 ---------------------------------------------------------------------------
     1   6 C    3.994 --     2 C    1.017     8 H    0.986     9 H    0.986
                            10 H    0.979
     2   6 C    3.976 --     3 C    1.017     1 C    1.017    11 H    0.965
                             4 S    0.957
     3   6 C    3.994 --     2 C    1.017    13 H    0.986    12 H    0.985
                            14 H    0.979
     4  16 S    2.044 --     5 C    0.960     2 C    0.957
     5   6 C    3.975 --     6 C    1.018     7 C    1.015    15 H    0.967
                             4 S    0.960
     6   6 C    3.995 --     5 C    1.018    18 H    0.985    17 H    0.984
                            16 H    0.978
     7   6 C    3.993 --     5 C    1.015    20 H    0.985    21 H    0.985
                            19 H    0.979
     8   1 H    0.998 --     1 C    0.986
     9   1 H    0.998 --     1 C    0.986
    10   1 H    0.997 --     1 C    0.979
    11   1 H    0.999 --     2 C    0.965
    12   1 H    0.998 --     3 C    0.985
    13   1 H    0.998 --     3 C    0.986
    14   1 H    0.997 --     3 C    0.979
    15   1 H    0.999 --     5 C    0.967
    16   1 H    0.998 --     6 C    0.978
    17   1 H    0.998 --     6 C    0.984
    18   1 H    0.997 --     6 C    0.985
    19   1 H    0.997 --     7 C    0.979
    20   1 H    0.998 --     7 C    0.985
    21   1 H    0.997 --     7 C    0.985
 ---------------------------------------------------------------------------

Topologies differ in total number of bonds
Writing topology from bond orders to xtbtopo.mol

molecular dipole:
                 x           y           z       tot (Debye)
 q only:       -0.082       0.451      -0.467
   full:       -0.090       0.723      -0.691       2.552
molecular quadrupole (traceless):
                xx          xy          yy          xz          yz          zz
 q only:        4.334       0.464      -2.517      -0.390       0.983      -1.817
  q+dip:        4.011       0.248      -1.546      -0.072       1.195      -2.465
   full:        4.792       0.324      -2.214      -0.271       0.934      -2.578

           -------------------------------------------------
          |                Geometry Summary                 |
           -------------------------------------------------

      molecular mass/u    :      118.2403733
   center of mass at/Å    :        0.0001506      -0.0042013      -0.0035016
  moments of inertia/u·Å² :        0.1406932E+03   0.4067596E+03   0.4681587E+03
rotational constants/cm⁻¹ :        0.1198184E+00   0.4144372E-01   0.3600837E-01

 * 18 selected distances

     #   Z          #   Z                                           value/Å
     1   6 C        2   6 C                                       1.5201754 (max)
     2   6 C        3   6 C                                       1.5199334
     5   6 C        6   6 C                                       1.5193169
     5   6 C        7   6 C                                       1.5201140
     1   6 C        8   1 H                                       1.0875195
     1   6 C        9   1 H                                       1.0875884
     1   6 C       10   1 H                                       1.0879025
     2   6 C       11   1 H                                       1.0920664
     3   6 C       12   1 H                                       1.0874556
     3   6 C       13   1 H                                       1.0875698
     3   6 C       14   1 H                                       1.0879706
     5   6 C       15   1 H                                       1.0936251
     6   6 C       16   1 H                                       1.0880065
     6   6 C       17   1 H                                       1.0879065
     6   6 C       18   1 H                                       1.0877017
     7   6 C       19   1 H                                       1.0874356
     7   6 C       20   1 H                                       1.0871957 (min)
     7   6 C       21   1 H                                       1.0876086

 * 2 distinct bonds (by element types)

   Z      Z             #   av. dist./Å        max./Å        min./Å
   1 H    6 C          14     1.0883966     1.0936251     1.0871957
   6 C    6 C           4     1.5198849     1.5201754     1.5193169

           -------------------------------------------------
          |               Frequency Printout                |
           -------------------------------------------------
 projected vibrational frequencies (cm⁻¹)
eigval :       -0.00    -0.00    -0.00     0.00     0.00     0.00
eigval :       -7.01    60.18   143.21   194.09   195.83   224.55
eigval :      225.19   271.48   283.08   322.39   343.50   419.79
eigval :      429.67   637.58   658.93   926.34   931.01   943.57
eigval :      945.99   974.29   975.48  1051.61  1075.22  1142.30
eigval :     1143.50  1159.58  1165.17  1220.70  1248.18  1290.06
eigval :     1299.06  1398.30  1400.11  1410.87  1411.36  1475.71
eigval :     1475.78  1483.98  1485.30  1486.33  1488.57  1496.39
eigval :     1498.73  2924.41  2946.85  3019.62  3019.87  3022.83
eigval :     3027.61  3029.00  3030.80  3034.14  3034.72  3037.76
eigval :     3040.33  3040.46  3042.99
 reduced masses (amu)
   1: 13.34   2: 11.13   3: 14.44   4: 15.45   5: 11.01   6: 14.74   7: 13.56   8:  9.71
   9: 13.35  10:  1.25  11:  1.18  12:  3.49  13:  1.68  14:  8.51  15: 11.12  16: 15.50
  17: 13.67  18:  9.73  19:  8.37  20: 16.82  21: 15.08  22:  8.11  23:  7.99  24:  2.62
  25:  2.58  26:  4.00  27:  3.87  28:  3.17  29:  4.30  30:  8.01  31:  8.03  32:  6.77
  33:  6.97  34:  3.83  35:  3.57  36:  4.39  37:  4.31  38:  3.25  39:  3.22  40:  3.05
  41:  3.03  42:  1.54  43:  1.54  44:  1.53  45:  1.56  46:  1.57  47:  1.56  48:  1.57
  49:  1.57  50:  1.76  51:  1.76  52:  1.85  53:  1.86  54:  1.82  55:  1.84  56:  1.86
  57:  1.95  58:  1.90  59:  1.88  60:  1.44  61:  1.40  62:  1.38  63:  1.38
 IR intensities (km·mol⁻¹)
   1:  0.40   2:  0.55   3:  0.81   4:  0.09   5:  0.48   6:  0.27   7:  1.63   8:  0.64
   9:  1.28  10:  0.01  11:  0.01  12:  0.49  13:  0.18  14:  0.29  15:  1.40  16:  4.62
  17:  0.90  18:  0.57  19:  1.83  20:  1.35  21:  1.12  22:  0.42  23:  2.49  24:  0.49
  25:  1.26  26:  0.21  27:  0.16  28:  6.21  29:  7.64  30:  0.89  31:  9.27  32: 54.61
  33:  5.49  34: 69.60  35: 19.45  36: 14.21  37:  2.67  38:  1.60  39: 10.67  40:  0.43
  41:  6.76  42:  0.32  43:  2.32  44:  3.52  45:  3.39  46:  0.86  47:  1.62  48:  1.33
  49:  1.01  50: 48.49  51: 32.09  52: 22.25  53: 24.96  54:118.00  55: 75.58  56: 31.29
  57: 28.89  58: 44.31  59: 46.45  60: 47.74  61:  9.91  62: 15.89  63: 33.97
 Raman intensities (Ä⁴*amu⁻¹)
   1:  0.00   2:  0.00   3:  0.00   4:  0.00   5:  0.00   6:  0.00   7:  0.00   8:  0.00
   9:  0.00  10:  0.00  11:  0.00  12:  0.00  13:  0.00  14:  0.00  15:  0.00  16:  0.00
  17:  0.00  18:  0.00  19:  0.00  20:  0.00  21:  0.00  22:  0.00  23:  0.00  24:  0.00
  25:  0.00  26:  0.00  27:  0.00  28:  0.00  29:  0.00  30:  0.00  31:  0.00  32:  0.00
  33:  0.00  34:  0.00  35:  0.00  36:  0.00  37:  0.00  38:  0.00  39:  0.00  40:  0.00
  41:  0.00  42:  0.00  43:  0.00  44:  0.00  45:  0.00  46:  0.00  47:  0.00  48:  0.00
  49:  0.00  50:  0.00  51:  0.00  52:  0.00  53:  0.00  54:  0.00  55:  0.00  56:  0.00
  57:  0.00  58:  0.00  59:  0.00  60:  0.00  61:  0.00  62:  0.00  63:  0.00
 output can be read by thermo (or use thermo option).
 writing <g98.out> molden fake output.
 recommended (thermochemical) frequency scaling factor: 1.0
           -------------------------------------------------
          |             Thermodynamic Functions             |
           -------------------------------------------------

Molecule has no symmetry elements
It seems to be the C1 point group
c1  symmetry found (for desy threshold:  0.10E+00) used in thermo
 inverting freq            1   7.01417281084912     

          ...................................................
          :                      SETUP                      :
          :.................................................:
          :  # frequencies                          57      :
          :  # imaginary freq.                       0      :
          :  linear?                             false      :
          :  only rotor calc.                    false      :
          :  symmetry                               c1      :
          :  rotational number                       1      :
          :  scaling factor                  1.0000000      :
          :  rotor cutoff                    0.0000000 cm⁻¹ :
          :  imag. cutoff                 -100.0000000 cm⁻¹ :
          :.................................................:

    mode    ω/cm⁻¹     T·S(HO)/kcal·mol⁻¹    T·S(FR)/kcal·mol⁻¹   T·S(vib)
   ------------------------------------------------------------------------
       1      7.01    -2.59859 (100.00%)    -1.63630 (  0.00%)    -2.59859
       2     60.18    -1.32720 (100.00%)    -1.00143 (  0.00%)    -1.32720
       3    143.21    -0.82305 (100.00%)    -0.74471 (  0.00%)    -0.82305
       4    194.09    -0.65249 (100.00%)    -0.65469 (  0.00%)    -0.65249
       5    195.83    -0.64757 (100.00%)    -0.65204 (  0.00%)    -0.64757
       6    224.55    -0.57307 (100.00%)    -0.61150 (  0.00%)    -0.57307
       7    225.19    -0.57154 (100.00%)    -0.61066 (  0.00%)    -0.57154
       8    271.48    -0.47309 (100.00%)    -0.55529 (  0.00%)    -0.47309
       9    283.08    -0.45169 (100.00%)    -0.54290 (  0.00%)    -0.45169
   ------------------------------------------------------------------------

   temp. (K)  partition function   enthalpy   heat capacity  entropy
                                   cal/mol     cal/K/mol   cal/K/mol   J/K/mol
 298.15  VIB  0.678E+04             4777.997     30.430     33.558
         ROT  0.395E+06              888.752      2.981     28.592
         INT  0.268E+10             5666.750     33.411     62.150
         TR   0.124E+28             1481.254      4.968     40.199
         TOT                        7148.0034    38.3789   102.3490   428.2282

       T/K    H(0)-H(T)+PV         H(T)/Eh          T*S/Eh         G(T)/Eh
   ------------------------------------------------------------------------
    298.15    0.113911E-01    0.197452E+00    0.486293E-01    0.148823E+00
   ------------------------------------------------------------------------

         :::::::::::::::::::::::::::::::::::::::::::::::::::::
         ::                  THERMODYNAMIC                  ::
         :::::::::::::::::::::::::::::::::::::::::::::::::::::
         :: total free energy         -23.086724081655 Eh   ::
         ::.................................................::
         :: total energy              -23.235546902543 Eh   ::
         :: zero point energy           0.186061062803 Eh   ::
         :: G(RRHO) w/o ZPVE           -0.037238241914 Eh   ::
         :: G(RRHO) contrib.            0.148822820888 Eh   ::
         :::::::::::::::::::::::::::::::::::::::::::::::::::::
imag cut-off (cm-1) :    5.00
 found            1  significant imaginary frequency
 writing imag mode distorted coords to xtbhess.coord
 for further optimization.

optimized geometry written to: xtbopt.coord


           -------------------------------------------------
          | TOTAL ENERGY              -23.235546902543 Eh   |
          | TOTAL ENTHALPY            -23.038094771180 Eh   |
          | TOTAL FREE ENERGY         -23.086724081655 Eh   |
          | GRADIENT NORM               0.000026018948 Eh/α |
          | HOMO-LUMO GAP               4.290919712148 eV   |
           -------------------------------------------------

------------------------------------------------------------------------
 * finished run on 2025/04/11 at 12:51:29.945     
------------------------------------------------------------------------
 total:
 * wall-time:     0 d,  0 h,  0 min,  2.037 sec
 *  cpu-time:     0 d,  0 h,  0 min,  1.947 sec
 * ratio c/w:     0.956 speedup
 SCF:
 * wall-time:     0 d,  0 h,  0 min,  0.017 sec
 *  cpu-time:     0 d,  0 h,  0 min,  0.016 sec
 * ratio c/w:     0.991 speedup
 ANC optimizer:
 * wall-time:     0 d,  0 h,  0 min,  0.533 sec
 *  cpu-time:     0 d,  0 h,  0 min,  0.513 sec
 * ratio c/w:     0.963 speedup
 analytical hessian:
 * wall-time:     0 d,  0 h,  0 min,  1.418 sec
 *  cpu-time:     0 d,  0 h,  0 min,  1.404 sec
 * ratio c/w:     0.990 speedup

