
                                 *****************
                                 * O   R   C   A *
                                 *****************

                                            #,                                       
                                            ###                                      
                                            ####                                     
                                            #####                                    
                                            ######                                   
                                           ########,                                 
                                     ,,################,,,,,                         
                               ,,#################################,,                 
                          ,,##########################################,,             
                       ,#########################################, ''#####,          
                    ,#############################################,,   '####,        
                  ,##################################################,,,,####,       
                ,###########''''           ''''###############################       
              ,#####''   ,,,,##########,,,,          '''####'''          '####       
            ,##' ,,,,###########################,,,                        '##       
           ' ,,###''''                  '''############,,,                           
         ,,##''                                '''############,,,,        ,,,,,,###''
      ,#''                                            '''#######################'''  
     '                                                          ''''####''''         
             ,#######,   #######,   ,#######,      ##                                
            ,#'     '#,  ##    ##  ,#'     '#,    #''#        ,####,   ,####,        
            ##       ##  ##   ,#'  ##            #'  '#       #'       #'  '#        
            ##       ##  #######   ##           ,######,      #####,   #    #        
            '#,     ,#'  ##    ##  '#,     ,#' ,#      #,     #,   #   #,  ,#        
             '#######'   ##     ##  '#######'  #'      '#     '####' # '####'        



                #########################################################
                #                        -***-                          #
                #          Department of theory and spectroscopy        #
                #                                                       #
                #                      Frank Neese                      #
                #                                                       #
                #     Directorship, Architecture, Infrastructure        #
                #                    SHARK, DRIVERS                     #
                #        Core code/Algorithms in most modules           #
                #                                                       #
                #        Max Planck Institute fuer Kohlenforschung      #
                #                Kaiser Wilhelm Platz 1                 #
                #                 D-45470 Muelheim/Ruhr                 #
                #                      Germany                          #
                #                                                       #
                #                  All rights reserved                  #
                #                        -***-                          #
                #########################################################


                         Program Version 6.0.0  -   RELEASE  -


 With contributions from (in alphabetic order):
   Daniel Aravena         : Magnetic Suceptibility
   Michael Atanasov       : Ab Initio Ligand Field Theory (pilot matlab implementation)
   Alexander A. Auer      : GIAO ZORA, VPT2 properties, NMR spectrum
   Ute Becker             : All parallelization in ORCA, NUMFREQ, NUMCALC
   Giovanni Bistoni       : ED, misc. LED, open-shell LED, HFLD
   Martin Brehm           : Molecular dynamics
   Dmytro Bykov           : pre 5.0 version of the SCF Hessian
   Marcos Casanova-Páez   : Triplet and SCS-CIS(D). UHF-(DLPNO)-IP/EA/STEOM-CCSD. UHF-CVS-IP/STEOM-CCSD
   Vijay G. Chilkuri      : MRCI spin determinant printing, contributions to CSF-ICE
   Pauline Colinet        : FMM embedding
   Dipayan Datta          : RHF DLPNO-CCSD density
   Achintya Kumar Dutta   : EOM-CC, STEOM-CC
   Nicolas Foglia         : Exact transition moments, OPA infrastructure, MCD improvements
   Dmitry Ganyushin       : Spin-Orbit,Spin-Spin,Magnetic field MRCI
   Miquel Garcia          : C-PCM and meta-GGA Hessian, CCSD/C-PCM, Gaussian charge scheme
   Tiago L. C. Gouveia    : GS-ROHF, GS-ROCIS
   Yang Guo               : DLPNO-NEVPT2, F12-NEVPT2, CIM, IAO-localization
   Andreas Hansen         : Spin unrestricted coupled pair/coupled cluster methods
   Ingolf Harden          : AUTO-CI MPn and infrastructure 
   Benjamin Helmich-Paris : MC-RPA, TRAH-(SCF,CASSCF), AVAS, COSX integrals, SCF dyn. polar.
   Lee Huntington         : MR-EOM, pCC
   Robert Izsak           : Overlap fitted RIJCOSX, COSX-SCS-MP3, EOM
   Riya Kayal             : Wick's Theorem for AUTO-CI, AUTO-CI UHF-CCSDT
   Emily Kempfer          : AUTO-CI, RHF CISDT and CCSDT
   Christian Kollmar      : KDIIS, OOCD, Brueckner-CCSD(T), CCSD density, CASPT2, CASPT2-K, improved NEVPT2
   Axel Koslowski         : Symmetry handling
   Simone Kossmann        : Meta GGA functionals, TD-DFT gradient, OOMP2, (MP2 Hessian; deprecated post 5.0)
   Lucas Lang             : DCDCAS
   Marvin Lechner         : AUTO-CI (C++ implementation), FIC-MRCC
   Spencer Leger          : CASSCF response
   Dagmar Lenk            : GEPOL surface, SMD, ORCA-2-JSON
   Dimitrios Liakos       : Extrapolation schemes; Compound Job, initial MDCI parallelization
   Dimitrios Manganas     : Further ROCIS development; embedding schemes. LFT, Crystal Embedding
   Dimitrios Pantazis     : SARC Basis sets
   Anastasios Papadopoulos: AUTO-CI, single reference methods and gradients
   Taras Petrenko         : pre 6.0 DFT Hessian and TD-DFT gradient, (ASA, deprecated), ECA, 1-Electron XAS/XES, NRVS
   Peter Pinski           : DLPNO-MP2, DLPNO-MP2 Gradient
   Christoph Reimann      : Effective Core Potentials
   Marius Retegan         : Local ZFS, SOC
   Christoph Riplinger    : Optimizer, TS searches, QM/MM, DLPNO-CCSD(T), (RO)-DLPNO pert. Triples
   Michael Roemelt        : Original ROCIS implementation
   Masaaki Saitow         : Open-shell DLPNO-CCSD energy and density
   Barbara Sandhoefer     : DKH picture change effects
   Kantharuban Sivalingam : CASSCF convergence/infrastructure, NEVPT2 and variants, FIC-MRCI
   Bernardo de Souza      : ESD, SOC TD-DFT
   Georgi Stoychev        : AutoAux, RI-MP2 NMR, DLPNO-MP2 response, X2C
   Van Anh Tran           : RI-MP2 g-tensors
   Willem Van den Heuvel  : Paramagnetic NMR
   Zikuan Wang            : NOTCH, Electric field optimization 
   Frank Wennmohs         : Technical directorship and infrastructure
   Hang Xu                : AUTO-CI-Response properties 


 We gratefully acknowledge several colleagues who have allowed us to
 interface, adapt or use parts of their codes:
   Stefan Grimme, W. Hujo, H. Kruse, P. Pracht,  : VdW corrections, initial TS optimization,
                  C. Bannwarth, S. Ehlert,         DFT functionals, gCP, sTDA/sTD-DF
                  L. Wittmann, M. Mueller
   Ed Valeev, F. Pavosevic, A. Kumar             : LibInt (2-el integral package), F12 methods
   Garnet Chan, S. Sharma, J. Yang, R. Olivares  : DMRG
   Ulf Ekstrom                                   : XCFun DFT Library
   Mihaly Kallay                                 : mrcc  (arbitrary order and MRCC methods)
   Frank Weinhold                                : gennbo (NPA and NBO analysis)
   Simon Mueller                                 : openCOSMO-RS
   Christopher J. Cramer and Donald G. Truhlar   : smd solvation model
   Lars Goerigk                                  : TD-DFT with DH, B97 family of functionals
   V. Asgeirsson, H. Jonsson                     : NEB implementation
   FAccTs GmbH                                   : IRC, NEB, NEB-TS, DLPNO-Multilevel, CI-OPT
                                                   MM, QMMM, 2- and 3-layer-ONIOM, Crystal-QMMM,
                                                   LR-CPCM, SF, NACMEs, symmetry and pop. for TD-DFT,
                                                   nearIR, NL-DFT gradient (VV10), updates on ESD,
                                                   ML-optimized integration grids, MBIS, APM,
                                                   GOAT, DOCKER, SOLVATOR, interface openCOSMO-RS
   S Lehtola, MJT Oliveira, MAL Marques          : LibXC Library
   Liviu Ungur et al                             : ANISO software


 Your calculation uses the libint2 library for the computation of 2-el integrals
 For citations please refer to: http://libint.valeyev.net

 Your ORCA version has been built with support for libXC version: 6.2.2
 For citations please refer to: https://libxc.gitlab.io

 This ORCA versions uses:
   CBLAS   interface :  Fast vector & matrix operations
   LAPACKE interface :  Fast linear algebra routines
   SCALAPACK package :  Parallel linear algebra routines
   Shared memory     :  Shared parallel matrices
   BLAS/LAPACK       :  OpenBLAS 0.3.27  USE64BITINT DYNAMIC_ARCH NO_AFFINITY SkylakeX SINGLE_THREADED
        Core in use  :  SkylakeX
   Copyright (c) 2011-2014, The OpenBLAS Project


Your calculation utilizes the geometrical counterpoise correction gCP
Please cite in your paper:
H.Kruse, S. Grimme J.Chem.Phys., 136, (2012), 154101 
   

Your calculation utilizes the atom-pairwise dispersion correction
based on EEQ partial charges (D4)


================================================================================

----- Orbital basis set information -----
Your calculation utilizes the basis: def2-SV(P)
   F. Weigend and R. Ahlrichs, Phys. Chem. Chem. Phys. 7, 3297 (2005).

----- AuxJ basis set information -----
Your calculation utilizes the auxiliary basis: def2/J
   F. Weigend, Phys. Chem. Chem. Phys. 8, 1057 (2006).

================================================================================
                                        WARNINGS
                       Please study these warnings very carefully!
================================================================================


================================================================================
                                       INPUT FILE
================================================================================
NAME = sp.inp
|  1> ! pbe def2-sv(p) def2/J RI DEFGRID1 loosescf d4 GCP(DFT/SV(P)) printgap
|  2> %output
|  3>     printlevel normal
|  4> end
|  5> * xyz 0 1
|  6> C -2.1421757243 -1.3964193165 -0.45705976
|  7> C -2.0459835267 -0.4414657679 0.7265167613
|  8> C -1.4733485569 0.9192416679 0.3121959134
|  9> C -0.0525336509 0.7938812992 -0.175452118
| 10> O 0.3315315394 1.124614027 -1.2786828123
| 11> O 0.7439952047 0.2904869059 0.7587659652
| 12> C 2.1281582825 0.0807964333 0.4381286635
| 13> C 2.3380253752 -1.2652059407 -0.2389321845
| 14> H -2.549428326 -2.3531981344 -0.1415048833
| 15> H -2.7866633099 -0.9832930242 -1.2295292995
| 16> H -1.1599554857 -1.5669318715 -0.8938654765
| 17> H -1.4082459479 -0.8723624479 1.4993148984
| 18> H -3.0388850087 -0.2853414755 1.1494747193
| 19> H -1.470810339 1.5889008395 1.1731688311
| 20> H -2.0673288784 1.3606645458 -0.4881220388
| 21> H 2.4636360991 0.8946104672 -0.2120763212
| 22> H 2.6419466269 0.1260075421 1.398768166
| 23> H 1.9473243285 -2.0642780725 0.3854664483
| 24> H 1.827307832 -1.2826078122 -1.1994913079
| 25> H 3.398738542 -1.4242654873 -0.4028787374
| 26> *
| 27> 
| 28>                          ****END OF INPUT****
================================================================================

                       ****************************
                       * Single Point Calculation *
                       ****************************

---------------------------------
CARTESIAN COORDINATES (ANGSTROEM)
---------------------------------
  C     -2.142176   -1.396419   -0.457060
  C     -2.045984   -0.441466    0.726517
  C     -1.473349    0.919242    0.312196
  C     -0.052534    0.793881   -0.175452
  O      0.331532    1.124614   -1.278683
  O      0.743995    0.290487    0.758766
  C      2.128158    0.080796    0.438129
  C      2.338025   -1.265206   -0.238932
  H     -2.549428   -2.353198   -0.141505
  H     -2.786663   -0.983293   -1.229529
  H     -1.159955   -1.566932   -0.893865
  H     -1.408246   -0.872362    1.499315
  H     -3.038885   -0.285341    1.149475
  H     -1.470810    1.588901    1.173169
  H     -2.067329    1.360665   -0.488122
  H      2.463636    0.894610   -0.212076
  H      2.641947    0.126008    1.398768
  H      1.947324   -2.064278    0.385466
  H      1.827308   -1.282608   -1.199491
  H      3.398739   -1.424265   -0.402879

----------------------------
CARTESIAN COORDINATES (A.U.)
----------------------------
  NO LB      ZA    FRAG     MASS         X           Y           Z
   0 C     6.0000    0    12.011   -4.048125   -2.638850   -0.863718
   1 C     6.0000    0    12.011   -3.866349   -0.834249    1.372918
   2 C     6.0000    0    12.011   -2.784225    1.737115    0.589965
   3 C     6.0000    0    12.011   -0.099274    1.500218   -0.331556
   4 O     8.0000    0    15.999    0.626504    2.125213   -2.416360
   5 O     8.0000    0    15.999    1.405947    0.548941    1.433860
   6 C     6.0000    0    12.011    4.021636    0.152683    0.827943
   7 C     6.0000    0    12.011    4.418228   -2.390893   -0.451516
   8 H     1.0000    0     1.008   -4.817721   -4.446900   -0.267405
   9 H     1.0000    0     1.008   -5.266030   -1.858155   -2.323474
  10 H     1.0000    0     1.008   -2.191998   -2.961072   -1.689161
  11 H     1.0000    0     1.008   -2.661199   -1.648526    2.833295
  12 H     1.0000    0     1.008   -5.742660   -0.539217    2.172192
  13 H     1.0000    0     1.008   -2.779429    3.002587    2.216968
  14 H     1.0000    0     1.008   -3.906685    2.571283   -0.922417
  15 H     1.0000    0     1.008    4.655598    1.690569   -0.400766
  16 H     1.0000    0     1.008    4.992556    0.238120    2.643289
  17 H     1.0000    0     1.008    3.679910   -3.900920    0.728426
  18 H     1.0000    0     1.008    3.453111   -2.423778   -2.266710
  19 H     1.0000    0     1.008    6.422685   -2.691472   -0.761330

--------------------------------
INTERNAL COORDINATES (ANGSTROEM)
--------------------------------
 C      0   0   0     0.000000000000     0.00000000     0.00000000
 C      1   0   0     1.523824990160     0.00000000     0.00000000
 C      2   1   0     1.533328829535   111.70508107     0.00000000
 C      3   2   1     1.507392059711   111.44586675   296.00106019
 O      4   3   2     1.214087382557   124.71414255   121.27613227
 O      4   3   2     1.326886415631   111.69110903   300.41670646
 C      6   4   3     1.436205347256   118.47349333   178.65176260
 C      7   6   4     1.521242248725   111.19273976   274.70421314
 H      1   2   3     1.086671646903   110.48016468   179.97828401
 H      1   2   3     1.087541617979   110.55106760   300.19471826
 H      1   2   3     1.088407259483   110.66638635    59.82436481
 H      2   1   3     1.090686998618   109.85632229   239.05912780
 H      2   1   3     1.090468514846   109.48185576   120.24084140
 H      3   2   1     1.090744797682   109.41507297   176.98808020
 H      3   2   1     1.090034680217   110.74803437    56.31339294
 H      7   6   4     1.094351483451   108.63363154    36.59579350
 H      7   6   4     1.090344331376   104.55990853   154.44924612
 H      8   7   6     1.086755369140   110.19810060   304.22978920
 H      8   7   6     1.088029900146   110.01842298    64.53169284
 H      8   7   6     1.085030337730   109.37946371   184.05159227

---------------------------
INTERNAL COORDINATES (A.U.)
---------------------------
 C      0   0   0     0.000000000000     0.00000000     0.00000000
 C      1   0   0     2.879611907427     0.00000000     0.00000000
 C      2   1   0     2.897571561068   111.70508107     0.00000000
 C      3   2   1     2.848558169302   111.44586675   296.00106019
 O      4   3   2     2.294292655682   124.71414255   121.27613227
 O      4   3   2     2.507451936364   111.69110903   300.41670646
 C      6   4   3     2.714034778386   118.47349333   178.65176260
 C      7   6   4     2.874731233441   111.19273976   274.70421314
 H      1   2   3     2.053511810144   110.48016468   179.97828401
 H      1   2   3     2.055155817223   110.55106760   300.19471826
 H      1   2   3     2.056791642595   110.66638635    59.82436481
 H      2   1   3     2.061099725216   109.85632229   239.05912780
 H      2   1   3     2.060686850723   109.48185576   120.24084140
 H      3   2   1     2.061208949619   109.41507297   176.98808020
 H      3   2   1     2.059867022087   110.74803437    56.31339294
 H      7   6   4     2.068024597973   108.63363154    36.59579350
 H      7   6   4     2.060452177974   104.55990853   154.44924612
 H      8   7   6     2.053670022243   110.19810060   304.22978920
 H      8   7   6     2.056078536793   110.01842298    64.53169284
 H      8   7   6     2.050410185306   109.37946371   184.05159227

---------------------
BASIS SET INFORMATION
---------------------
There are 3 groups of distinct atoms

 Group   1 Type C   : 7s4p1d contracted to 3s2p1d pattern {511/31/1}
 Group   2 Type O   : 7s4p1d contracted to 3s2p1d pattern {511/31/1}
 Group   3 Type H   : 4s contracted to 2s pattern {31}

Atom   0C    basis set group =>   1
Atom   1C    basis set group =>   1
Atom   2C    basis set group =>   1
Atom   3C    basis set group =>   1
Atom   4O    basis set group =>   2
Atom   5O    basis set group =>   2
Atom   6C    basis set group =>   1
Atom   7C    basis set group =>   1
Atom   8H    basis set group =>   3
Atom   9H    basis set group =>   3
Atom  10H    basis set group =>   3
Atom  11H    basis set group =>   3
Atom  12H    basis set group =>   3
Atom  13H    basis set group =>   3
Atom  14H    basis set group =>   3
Atom  15H    basis set group =>   3
Atom  16H    basis set group =>   3
Atom  17H    basis set group =>   3
Atom  18H    basis set group =>   3
Atom  19H    basis set group =>   3
---------------------------------
AUXILIARY/J BASIS SET INFORMATION
---------------------------------
There are 3 groups of distinct atoms

 Group   1 Type C   : 12s5p4d2f1g contracted to 6s4p3d1f1g pattern {711111/2111/211/2/1}
 Group   2 Type O   : 12s5p4d2f1g contracted to 6s4p3d1f1g pattern {711111/2111/211/2/1}
 Group   3 Type H   : 5s2p1d contracted to 3s1p1d pattern {311/2/1}

Atom   0C    basis set group =>   1
Atom   1C    basis set group =>   1
Atom   2C    basis set group =>   1
Atom   3C    basis set group =>   1
Atom   4O    basis set group =>   2
Atom   5O    basis set group =>   2
Atom   6C    basis set group =>   1
Atom   7C    basis set group =>   1
Atom   8H    basis set group =>   3
Atom   9H    basis set group =>   3
Atom  10H    basis set group =>   3
Atom  11H    basis set group =>   3
Atom  12H    basis set group =>   3
Atom  13H    basis set group =>   3
Atom  14H    basis set group =>   3
Atom  15H    basis set group =>   3
Atom  16H    basis set group =>   3
Atom  17H    basis set group =>   3
Atom  18H    basis set group =>   3
Atom  19H    basis set group =>   3
------------------------------------------------------------------------------
                             ORCA STARTUP CALCULATIONS
                           -- RI-GTO INTEGRALS CHOSEN --
------------------------------------------------------------------------------
------------------------------------------------------------------------------
                   ___                                                        
                  /   \      - P O W E R E D   B Y -                         
                 /     \                                                     
                 |  |  |   _    _      __       _____    __    __             
                 |  |  |  | |  | |    /  \     |  _  \  |  |  /  |          
                  \  \/   | |  | |   /    \    | | | |  |  | /  /          
                 / \  \   | |__| |  /  /\  \   | |_| |  |  |/  /          
                |  |  |   |  __  | /  /__\  \  |    /   |      \           
                |  |  |   | |  | | |   __   |  |    \   |  |\   \          
                \     /   | |  | | |  |  |  |  | |\  \  |  | \   \       
                 \___/    |_|  |_| |__|  |__|  |_| \__\ |__|  \__/        
                                                                              
                      - O R C A' S   B I G   F R I E N D -                    
                                      &                                       
                       - I N T E G R A L  F E E D E R -                       
                                                                              
 v1 FN, 2020, v2 2021, v3 2022-2024                                           
------------------------------------------------------------------------------


----------------------
SHARK INTEGRAL PACKAGE
----------------------

Number of atoms                             ...     20
Number of basis functions                   ...    136
Number of shells                            ...     72
Maximum angular momentum                    ...      2
Integral batch strategy                     ... SHARK/LIBINT Hybrid
RI-J (if used) integral strategy            ... SPLIT-RIJ (Revised 2003 algorithm where possible)
Printlevel                                  ...      1
Contraction scheme used                     ... SEGMENTED contraction
Prescreening option                         ... SCHWARTZ
   Thresh                                   ... 1.000e-09
   Tcut                                     ... 1.000e-10
   Tpresel                                  ... 1.000e-10 
Coulomb Range Separation                    ... NOT USED
Exchange Range Separation                   ... NOT USED
Multipole approximations                    ... NOT USED
Finite Nucleus Model                        ... NOT USED
CABS basis                                  ... NOT available
Auxiliary Coulomb fitting basis             ... AVAILABLE
   # of basis functions in Aux-J            ...    524
   # of shells in Aux-J                     ...    180
   Maximum angular momentum in Aux-J        ...      4
Auxiliary J/K fitting basis                 ... NOT available
Auxiliary Correlation fitting basis         ... NOT available
Auxiliary 'external' fitting basis          ... NOT available

Checking pre-screening integrals            ... done (  0.0 sec) Dimension = 72
Check shell pair data                       ... done (  0.0 sec)
Shell pair information
Shell pair cut-off parameter TPreSel        ...   1.0e-10
Total number of shell pairs                 ...      2628
Shell pairs after pre-screening             ...      2481
Total number of primitive shell pairs       ...     10580
Primitive shell pairs kept                  ...      6892
          la=0 lb=0:   1088 shell pairs
          la=1 lb=0:    744 shell pairs
          la=1 lb=1:    136 shell pairs
          la=2 lb=0:    351 shell pairs
          la=2 lb=1:    128 shell pairs
          la=2 lb=2:     34 shell pairs

Calculating one electron integrals          ... done (  0.0 sec)
Calculating RI/J V-Matrix + Cholesky decomp.... done (  0.1 sec)
Calculating Nuclear repulsion               ... done (  0.0 sec) ENN=    400.981228088647 Eh

Diagonalization of the overlap matrix:
Smallest eigenvalue                        ... 2.010e-03
Time for diagonalization                   ...    0.003 sec
Threshold for overlap eigenvalues          ... 1.000e-07
Number of eigenvalues below threshold      ... 0
Time for construction of square roots      ...    0.019 sec
Total time needed                          ...    0.032 sec

-------------------
DFT GRID GENERATION
-------------------

General Integration Accuracy     IntAcc      ... 4.159
Radial Grid Type                 RadialGrid  ... OptM3 with GC (2021)
Angular Grid (max. ang.)         AngularGrid ... 3 (Lebedev-194)
Angular grid pruning method      GridPruning ... 4 (adaptive)
Weight generation scheme         WeightScheme... mBecke (2022)
Basis function cutoff            BFCut       ... 1.0000e-10
Integration weight cutoff        WCut        ... 1.0000e-14
Partially contracted basis set               ... off
Rotationally invariant grid construction     ... off
Angular grids for H and He will be reduced by one unit

Total number of grid points                  ...    42955
Total number of batches                      ...      681
Average number of points per batch           ...       63
Average number of grid points per atom       ...     2148
Initializing property integral containers    ... done (  0.0 sec)

SHARK setup successfully completed in   0.7 seconds

Maximum memory used throughout the entire STARTUP-calculation: 21.3 MB
-------------------------------------------------------------------------------
                                 ORCA GUESS
                   Start orbitals & Density for SCF / CASSCF
-------------------------------------------------------------------------------

------------
SCF SETTINGS
------------
Hamiltonian:
 Density Functional     Method          .... DFT(GTOs)
 Exchange Functional    Exchange        .... PBE
   PBE kappa parameter   XKappa         ....  0.804000
   PBE mue parameter    XMuePBE         ....  0.219520
 Correlation Functional Correlation     .... PBE
   PBE beta parameter  CBetaPBE         ....  0.066725
 LDA part of GGA corr.  LDAOpt          .... PW91-LDA
 Gradients option       PostSCFGGA      .... off
   NL short-range parameter             ....  6.400000
 RI-approximation to the Coulomb term is turned on
   Number of AuxJ basis functions       .... 524


General Settings:
 Integral files         IntName         .... sp
 Hartree-Fock type      HFTyp           .... RHF
 Total Charge           Charge          ....    0
 Multiplicity           Mult            ....    1
 Number of Electrons    NEL             ....   64
 Basis Dimension        Dim             ....  136
 Nuclear Repulsion      ENuc            ....    400.9812280886 Eh

Convergence Acceleration:
 AO-DIIS                CNVDIIS         .... on
   Start iteration      DIISMaxIt       ....    12
   Startup error        DIISStart       ....  0.200000
   # of expansion vecs  DIISMaxEq       ....     5
   Bias factor          DIISBfac        ....   1.050
   Max. coefficient     DIISMaxC        ....  10.000
 MO-DIIS                CNVKDIIS        .... off
 Trust-Rad. Augm. Hess. CNVTRAH         .... auto
   Auto Start mean grad. ratio tolernc. ....  1.125000
   Auto Start start iteration           ....    50
   Auto Start num. interpolation iter.  ....    10
   Max. Number of Micro iterations      ....    24
   Max. Number of Macro iterations      .... Maxiter - #DIIS iter
   Number of Davidson start vectors     ....     2
   Converg. threshold    (grad. norm)   ....   1.000e-04
   Grad. Scal. Fac. for Micro threshold ....   0.100
   Minimum threshold for Micro iter.    ....   1.000e-02
   NR start threshold (gradient norm)   ....   1.000e-04
   Initial trust radius                 ....   0.400
   Minimum AH scaling param. (alpha)    ....   1.000
   Maximum AH scaling param. (alpha)    .... 1000.000
   Quad. conv. algorithm                .... NR
   White noise on init. David. guess    .... on
   Maximum white noise                  ....   0.010
   Pseudo random numbers                .... off
   Inactive MOs                         .... canonical
   Orbital update algorithm             .... Taylor
   Preconditioner                       .... Diag
   Full preconditioner red. dimension   ....   250
 SOSCF                  CNVSOSCF        .... on
   Start iteration      SOSCFMaxIt      ....   150
   Startup grad/error   SOSCFStart      ....  0.003300
   Hessian update       SOSCFHessUp     .... L-BFGS
 Level Shifting         CNVShift        .... on
   Level shift para.    LevelShift      ....    0.2500
   Turn off err/grad.   ShiftErr        ....    0.0010
 Zerner damping         CNVZerner       .... off
 Static damping         CNVDamp         .... on
   Fraction old density DampFac         ....    0.7000
   Max. Damping (<1)    DampMax         ....    0.9800
   Min. Damping (>=0)   DampMin         ....    0.0000
   Turn off err/grad.   DampErr         ....    0.1000

SCF Procedure:
 Maximum # iterations   MaxIter         ....   125
 SCF integral mode      SCFMode         .... Direct
   Integral package                     .... SHARK and LIBINT hybrid scheme
 Reset frequency        DirectResetFreq ....    20
 Integral Threshold     Thresh          ....  1.000e-09 Eh
 Primitive CutOff       TCut            ....  1.000e-10 Eh

Convergence Tolerance:
 Convergence Check Mode ConvCheckMode   .... Total+1el-Energy
 Convergence forced     ConvForced      .... 0
 Energy Change          TolE            ....  1.000e-05 Eh
 1-El. energy change                    ....  1.000e-02 Eh
 Orbital Gradient       TolG            ....  1.000e-04
 Orbital Rotation angle TolX            ....  1.000e-04
 DIIS Error             TolErr          ....  5.000e-04

------------------------------
INITIAL GUESS: MODEL POTENTIAL
------------------------------
Loading Hartree-Fock densities                     ... done
Calculating cut-offs                               ... done
Initializing the effective Hamiltonian             ... done
Setting up the integral package (SHARK)            ... done
Starting the Coulomb interaction                   ... done (   0.2 sec)
Making the grid                                    ... done (   0.2 sec)
Mapping shells                                     ... done
Starting the XC term evaluation                    ... done (   0.2 sec)
  promolecular density results
     # of electrons  =     63.988932285
     EX              =    -50.542101489
     EC              =     -2.107538128
     EX+EC           =    -52.649639617
Transforming the Hamiltonian                       ... done (   0.0 sec)
Diagonalizing the Hamiltonian                      ... done (   0.0 sec)
Back transforming the eigenvectors                 ... done (   0.0 sec)
Now organizing SCF variables                       ... done
                      ------------------
                      INITIAL GUESS DONE (   0.6 sec)
                      ------------------
             **** ENERGY FILE WAS UPDATED (sp.en.tmp) ****
Finished Guess after   0.8 sec
Maximum memory used throughout the entire GUESS-calculation: 16.3 MB

-------------------------------------------------------------------------------------------
                                      ORCA LEAN-SCF
                              memory conserving SCF solver
-------------------------------------------------------------------------------------------

----------------------------------------D-I-I-S--------------------------------------------
Iteration    Energy (Eh)           Delta-E    RMSDP     MaxDP     DIISErr   Damp  Time(sec)
-------------------------------------------------------------------------------------------
               ***  Starting incremental Fock matrix formation  ***
    1    -385.2865422593498579     0.00e+00  4.92e-03  1.02e-01  2.46e-01  0.700   0.8
    2    -385.4108774862654627    -1.24e-01  3.08e-03  5.17e-02  7.68e-02  0.700   0.8
                               ***Turning on AO-DIIS***
    3    -385.4493049494286652    -3.84e-02  1.24e-03  1.38e-02  2.29e-02  0.700   0.8
    4    -385.4742157185610267    -2.49e-02  1.76e-03  2.22e-02  1.43e-02  0.000   0.9
    5    -385.5320112420280338    -5.78e-02  5.50e-04  6.63e-03  8.75e-03  0.000   0.9
                              *** Initializing SOSCF ***
---------------------------------------S-O-S-C-F--------------------------------------
Iteration    Energy (Eh)           Delta-E    RMSDP     MaxDP     MaxGrad    Time(sec)
--------------------------------------------------------------------------------------
    6    -385.5327273932671233    -7.16e-04  2.07e-04  2.55e-03  3.18e-03     0.8
               *** Restarting incremental Fock matrix formation ***
    7    -385.5327814087964953    -5.40e-05  1.59e-04  2.88e-03  6.35e-04     0.8
    8    -385.5327607890911850     2.06e-05  8.74e-05  2.26e-03  1.90e-03     0.8
    9    -385.5327882131010711    -2.74e-05  6.70e-05  1.08e-03  3.19e-04     0.7
   10    -385.5327843022361094     3.91e-06  3.98e-05  7.80e-04  4.24e-04     0.8
                 **** Energy Check signals convergence ****

               *****************************************************
               *                     SUCCESS                       *
               *           SCF CONVERGED AFTER  10 CYCLES          *
               *****************************************************

             **** ENERGY FILE WAS UPDATED (sp.en.tmp) ****

----------------
TOTAL SCF ENERGY
----------------

Total Energy       :       -385.53278430223611 Eh          -10490.88041 eV

Components:
Nuclear Repulsion  :        400.98122808864684 Eh           10911.25393 eV
Electronic Energy  :       -786.51401239088295 Eh          -21402.13434 eV
One Electron Energy:      -1318.35372022416163 Eh          -35874.22854 eV
Two Electron Energy:        531.83970783327868 Eh           14472.09420 eV

Virial components:
Potential Energy   :       -767.92139999539768 Eh          -20896.20364 eV
Kinetic Energy     :        382.38861569316163 Eh           10405.32323 eV
Virial Ratio       :          2.00822244303318

DFT components:
N(Alpha)           :       32.000009391092 electrons
N(Beta)            :       32.000009391092 electrons
N(Total)           :       64.000018782184 electrons
E(X)               :      -51.599705747785 Eh       
E(C)               :       -2.123488112303 Eh       
E(XC)              :      -53.723193860087 Eh       

---------------
SCF CONVERGENCE
---------------

  Last Energy change         ...   -3.9109e-06  Tolerance :   1.0000e-05
  Last MAX-Density change    ...    7.8031e-04  Tolerance :   1.0000e-03
  Last RMS-Density change    ...    3.9827e-05  Tolerance :   1.0000e-04
  Last DIIS Error            ...    3.1779e-03  Tolerance :   5.0000e-04
  Last Orbital Gradient      ...    4.2384e-04  Tolerance :   1.0000e-04
  Last Orbital Rotation      ...    3.6132e-04  Tolerance :   1.0000e-04


----------------
ORBITAL ENERGIES
----------------

  NO   OCC          E(Eh)            E(eV) 
   0   2.0000     -18.797361      -511.5022 
   1   2.0000     -18.730134      -509.6729 
   2   2.0000     -10.004294      -272.2307 
   3   2.0000      -9.946893      -270.6687 
   4   2.0000      -9.896134      -269.2875 
   5   2.0000      -9.893403      -269.2132 
   6   2.0000      -9.887392      -269.0496 
   7   2.0000      -9.878222      -268.8001 
   8   2.0000      -1.004211       -27.3260 
   9   2.0000      -0.907115       -24.6838 
  10   2.0000      -0.730238       -19.8708 
  11   2.0000      -0.695234       -18.9183 
  12   2.0000      -0.636280       -17.3141 
  13   2.0000      -0.590458       -16.0672 
  14   2.0000      -0.536999       -14.6125 
  15   2.0000      -0.495025       -13.4703 
  16   2.0000      -0.452086       -12.3019 
  17   2.0000      -0.436221       -11.8702 
  18   2.0000      -0.408516       -11.1163 
  19   2.0000      -0.404353       -11.0030 
  20   2.0000      -0.393515       -10.7081 
  21   2.0000      -0.376636       -10.2488 
  22   2.0000      -0.358174        -9.7464 
  23   2.0000      -0.352761        -9.5991 
  24   2.0000      -0.338564        -9.2128 
  25   2.0000      -0.327465        -8.9108 
  26   2.0000      -0.311693        -8.4816 
  27   2.0000      -0.299712        -8.1556 
  28   2.0000      -0.298512        -8.1229 
  29   2.0000      -0.289174        -7.8688 
  30   2.0000      -0.255288        -6.9467 
  31   2.0000      -0.213491        -5.8094 
  32   0.0000      -0.019700        -0.5361 
  33   0.0000       0.034966         0.9515 
  34   0.0000       0.056041         1.5249 
  35   0.0000       0.069218         1.8835 
  36   0.0000       0.080797         2.1986 
  37   0.0000       0.088962         2.4208 
  38   0.0000       0.095990         2.6120 
  39   0.0000       0.099232         2.7002 
  40   0.0000       0.107749         2.9320 
  41   0.0000       0.114716         3.1216 
  42   0.0000       0.125503         3.4151 
*Only the first 10 virtual orbitals were printed.

                    ********************************
                    * MULLIKEN POPULATION ANALYSIS *
                    ********************************

-----------------------
MULLIKEN ATOMIC CHARGES
-----------------------
   0 C :   -0.290467
   1 C :   -0.213818
   2 C :   -0.104100
   3 C :    0.082789
   4 O :   -0.204603
   5 O :   -0.242571
   6 C :   -0.011959
   7 C :   -0.309573
   8 H :    0.106231
   9 H :    0.103368
  10 H :    0.119435
  11 H :    0.103175
  12 H :    0.093599
  13 H :    0.107743
  14 H :    0.096807
  15 H :    0.107573
  16 H :    0.100663
  17 H :    0.113276
  18 H :    0.130161
  19 H :    0.112272
Sum of atomic charges:    0.0000000

--------------------------------
MULLIKEN REDUCED ORBITAL CHARGES
--------------------------------
  0 C s       :     3.094778  s :     3.094778
      pz      :     1.038245  p :     3.166461
      px      :     1.080996
      py      :     1.047221
      dz2     :     0.004653  d :     0.029228
      dxz     :     0.008417
      dyz     :     0.005727
      dx2y2   :     0.006089
      dxy     :     0.004342

  1 C s       :     3.083781  s :     3.083781
      pz      :     1.064886  p :     3.092900
      px      :     1.040012
      py      :     0.988002
      dz2     :     0.005289  d :     0.037137
      dxz     :     0.009103
      dyz     :     0.008544
      dx2y2   :     0.008453
      dxy     :     0.005749

  2 C s       :     3.008144  s :     3.008144
      pz      :     1.017276  p :     3.062923
      px      :     1.001586
      py      :     1.044061
      dz2     :     0.004011  d :     0.033033
      dxz     :     0.006429
      dyz     :     0.009702
      dx2y2   :     0.007685
      dxy     :     0.005205

  3 C s       :     3.066187  s :     3.066187
      pz      :     0.895752  p :     2.720381
      px      :     0.981418
      py      :     0.843211
      dz2     :     0.032493  d :     0.130644
      dxz     :     0.044155
      dyz     :     0.027168
      dx2y2   :     0.013958
      dxy     :     0.012870

  4 O s       :     3.743870  s :     3.743870
      pz      :     1.347591  p :     4.443289
      px      :     1.684380
      py      :     1.411318
      dz2     :     0.006540  d :     0.017444
      dxz     :     0.004241
      dyz     :     0.004949
      dx2y2   :     0.000793
      dxy     :     0.000921

  5 O s       :     3.733012  s :     3.733012
      pz      :     1.584924  p :     4.493481
      px      :     1.256550
      py      :     1.652006
      dz2     :     0.003226  d :     0.016078
      dxz     :     0.005047
      dyz     :     0.002728
      dx2y2   :     0.002901
      dxy     :     0.002176

  6 C s       :     3.072726  s :     3.072726
      pz      :     1.048879  p :     2.880053
      px      :     0.763832
      py      :     1.067342
      dz2     :     0.009185  d :     0.059180
      dxz     :     0.013398
      dyz     :     0.008505
      dx2y2   :     0.016183
      dxy     :     0.011909

  7 C s       :     3.104021  s :     3.104021
      pz      :     1.083733  p :     3.177656
      px      :     1.063213
      py      :     1.030711
      dz2     :     0.005845  d :     0.027895
      dxz     :     0.004383
      dyz     :     0.006878
      dx2y2   :     0.007861
      dxy     :     0.002927

  8 H s       :     0.893769  s :     0.893769

  9 H s       :     0.896632  s :     0.896632

 10 H s       :     0.880565  s :     0.880565

 11 H s       :     0.896825  s :     0.896825

 12 H s       :     0.906401  s :     0.906401

 13 H s       :     0.892257  s :     0.892257

 14 H s       :     0.903193  s :     0.903193

 15 H s       :     0.892427  s :     0.892427

 16 H s       :     0.899337  s :     0.899337

 17 H s       :     0.886724  s :     0.886724

 18 H s       :     0.869839  s :     0.869839

 19 H s       :     0.887728  s :     0.887728


------------------------
MULLIKEN OVERLAP CHARGES
------------------------
B(  0-C ,  1-C ) :   0.8793 B(  0-C ,  2-C ) :  -0.1566 B(  0-C ,  8-H ) :   0.7271 
B(  0-C ,  9-H ) :   0.7528 B(  0-C , 10-H ) :   0.7655 B(  0-C , 11-H ) :  -0.0514 
B(  0-C , 12-H ) :  -0.0538 B(  1-C ,  2-C ) :   0.7821 B(  1-C ,  3-C ) :  -0.0749 
B(  1-C ,  9-H ) :  -0.0523 B(  1-C , 10-H ) :  -0.0507 B(  1-C , 11-H ) :   0.7129 
B(  1-C , 12-H ) :   0.7157 B(  2-C ,  3-C ) :   0.6441 B(  2-C ,  4-O ) :  -0.1757 
B(  2-C ,  5-O ) :  -0.2754 B(  2-C , 13-H ) :   0.5967 B(  2-C , 14-H ) :   0.6445 
B(  3-C ,  4-O ) :   1.3601 B(  3-C ,  5-O ) :   0.6768 B(  3-C ,  6-C ) :  -0.0505 
B(  4-O ,  5-O ) :  -0.1766 B(  4-O , 15-H ) :   0.0529 B(  5-O ,  6-C ) :   0.5312 
B(  5-O ,  7-C ) :  -0.0771 B(  5-O , 15-H ) :  -0.0640 B(  5-O , 16-H ) :  -0.0565 
B(  6-C ,  7-C ) :   0.9354 B(  6-C , 15-H ) :   0.7141 B(  6-C , 16-H ) :   0.7367 
B(  7-C , 15-H ) :  -0.0623 B(  7-C , 16-H ) :  -0.0585 B(  7-C , 17-H ) :   0.7410 
B(  7-C , 18-H ) :   0.7388 B(  7-C , 19-H ) :   0.7083 B( 11-H , 12-H ) :  -0.0564 
B( 15-H , 16-H ) :  -0.0625 B( 17-H , 18-H ) :  -0.0553 


                     *******************************
                     * LOEWDIN POPULATION ANALYSIS *
                     *******************************

----------------------
LOEWDIN ATOMIC CHARGES
----------------------
   0 C :   -0.342521
   1 C :   -0.230667
   2 C :   -0.242404
   3 C :    0.034355
   4 O :   -0.170054
   5 O :   -0.068293
   6 C :   -0.112465
   7 C :   -0.357459
   8 H :    0.120964
   9 H :    0.120515
  10 H :    0.119963
  11 H :    0.119596
  12 H :    0.118599
  13 H :    0.138355
  14 H :    0.131752
  15 H :    0.119274
  16 H :    0.116533
  17 H :    0.123799
  18 H :    0.129796
  19 H :    0.130362

-------------------------------
LOEWDIN REDUCED ORBITAL CHARGES
-------------------------------
  0 C s       :     2.944669  s :     2.944669
      pz      :     1.098342  p :     3.327065
      px      :     1.127288
      py      :     1.101435
      dz2     :     0.010668  d :     0.070787
      dxz     :     0.019181
      dyz     :     0.016012
      dx2y2   :     0.014967
      dxy     :     0.009960

  1 C s       :     2.906831  s :     2.906831
      pz      :     1.091300  p :     3.234494
      px      :     1.095452
      py      :     1.047743
      dz2     :     0.012232  d :     0.089342
      dxz     :     0.020700
      dyz     :     0.022546
      dx2y2   :     0.020238
      dxy     :     0.013626

  2 C s       :     2.917488  s :     2.917488
      pz      :     1.102233  p :     3.241306
      px      :     1.058126
      py      :     1.080946
      dz2     :     0.009865  d :     0.083611
      dxz     :     0.016901
      dyz     :     0.022794
      dx2y2   :     0.021171
      dxy     :     0.012880

  3 C s       :     2.849156  s :     2.849156
      pz      :     0.981677  p :     2.818901
      px      :     0.993305
      py      :     0.843918
      dz2     :     0.076889  d :     0.297588
      dxz     :     0.104957
      dyz     :     0.059425
      dx2y2   :     0.030489
      dxy     :     0.025829

  4 O s       :     3.551506  s :     3.551506
      pz      :     1.465198  p :     4.587748
      px      :     1.702198
      py      :     1.420352
      dz2     :     0.012567  d :     0.030800
      dxz     :     0.007916
      dyz     :     0.007792
      dx2y2   :     0.001182
      dxy     :     0.001344

  5 O s       :     3.447404  s :     3.447404
      pz      :     1.626535  p :     4.588134
      px      :     1.314515
      py      :     1.647084
      dz2     :     0.005721  d :     0.032755
      dxz     :     0.010915
      dyz     :     0.004479
      dx2y2   :     0.006481
      dxy     :     0.005161

  6 C s       :     2.924031  s :     2.924031
      pz      :     1.114554  p :     3.056631
      px      :     0.834775
      py      :     1.107301
      dz2     :     0.019038  d :     0.131803
      dxz     :     0.029684
      dyz     :     0.021017
      dx2y2   :     0.037613
      dxy     :     0.024451

  7 C s       :     2.952197  s :     2.952197
      pz      :     1.127199  p :     3.336586
      px      :     1.125216
      py      :     1.084171
      dz2     :     0.013287  d :     0.068677
      dxz     :     0.010679
      dyz     :     0.017475
      dx2y2   :     0.020055
      dxy     :     0.007181

  8 H s       :     0.879036  s :     0.879036

  9 H s       :     0.879485  s :     0.879485

 10 H s       :     0.880037  s :     0.880037

 11 H s       :     0.880404  s :     0.880404

 12 H s       :     0.881401  s :     0.881401

 13 H s       :     0.861645  s :     0.861645

 14 H s       :     0.868248  s :     0.868248

 15 H s       :     0.880726  s :     0.880726

 16 H s       :     0.883467  s :     0.883467

 17 H s       :     0.876201  s :     0.876201

 18 H s       :     0.870204  s :     0.870204

 19 H s       :     0.869638  s :     0.869638


---------------------------------
LOEWDIN BOND ORDERS (THRESH 0.050000)
---------------------------------
B(  0-C ,  1-C ) :   1.1326 B(  0-C ,  2-C ) :   0.0528 B(  0-C ,  8-H ) :   0.9390 
B(  0-C ,  9-H ) :   0.9396 B(  0-C , 10-H ) :   0.9361 B(  1-C ,  2-C ) :   1.0801 
B(  1-C ,  3-C ) :   0.0611 B(  1-C , 11-H ) :   0.9052 B(  1-C , 12-H ) :   0.9048 
B(  2-C ,  3-C ) :   1.0606 B(  2-C ,  4-O ) :   0.0939 B(  2-C ,  5-O ) :   0.0692 
B(  2-C , 13-H ) :   0.8844 B(  2-C , 14-H ) :   0.8958 B(  3-C ,  4-O ) :   2.2047 
B(  3-C ,  5-O ) :   1.3937 B(  3-C ,  6-C ) :   0.0752 B(  4-O ,  5-O ) :   0.2055 
B(  5-O ,  6-C ) :   1.0759 B(  5-O ,  7-C ) :   0.0539 B(  6-C ,  7-C ) :   1.1494 
B(  6-C , 15-H ) :   0.9068 B(  6-C , 16-H ) :   0.9205 B(  7-C , 17-H ) :   0.9385 
B(  7-C , 18-H ) :   0.9345 B(  7-C , 19-H ) :   0.9298 

------------------------------------------
LOEWDIN REDUCED ORBITAL POPULATIONS PER MO
-------------------------------------------
THRESHOLD FOR PRINTING IS 0.1%%
                      0         1         2         3         4         5   
                 -18.79736 -18.73013 -10.00429  -9.94689  -9.89613  -9.89340
                   2.00000   2.00000   2.00000   2.00000   2.00000   2.00000
                  --------  --------  --------  --------  --------  --------
 1 C  s               0.0       0.0       0.0       0.0       0.0      99.6
 2 C  s               0.0       0.0       0.0       0.0      99.6       0.0
 3 C  s               0.0       0.0      99.3       0.0       0.0       0.0
 3 C  px              0.0       0.0       0.0       0.0       0.1       0.0
 4 O  s               0.0      99.9       0.0       0.0       0.0       0.0
 4 O  pz              0.0       0.0       0.2       0.0       0.0       0.0
 5 O  s              99.9       0.0       0.0       0.0       0.0       0.0
 6 C  s               0.0       0.0       0.0      99.7       0.0       0.0

                      6         7         8         9        10        11   
                  -9.88739  -9.87822  -1.00421  -0.90711  -0.73024  -0.69523
                   2.00000   2.00000   2.00000   2.00000   2.00000   2.00000
                  --------  --------  --------  --------  --------  --------
 0 C  s               0.0      99.7       0.0       0.0       7.3       6.2
 0 C  pz              0.0       0.0       0.0       0.0       1.0       0.4
 0 C  py              0.0       0.0       0.0       0.0       1.1       0.4
 1 C  s               0.0       0.0       0.1       0.0      17.5       8.0
 1 C  pz              0.0       0.1       0.0       0.0       0.9       0.5
 1 C  px              0.0       0.0       0.1       0.0       0.4       0.0
 1 C  py              0.0       0.0       0.1       0.0       0.6       0.0
 2 C  s               0.0       0.0       1.0       0.3      18.7       1.7
 2 C  pz              0.0       0.0       0.1       0.4       0.1       0.0
 2 C  px              0.0       0.0       1.7       0.2       0.1       1.2
 2 C  py              0.0       0.0       0.0       0.0       1.7       0.7
 3 C  s               0.0       0.0      18.3       5.5       3.3       1.0
 3 C  pz              0.0       0.0       0.3      21.1       3.3       1.6
 3 C  px              0.0       0.0       4.6       0.0       5.6       0.8
 3 C  py              0.0       0.0       0.4       2.9       0.1       0.2
 3 C  dz2             0.0       0.0       0.3       0.6       0.0       0.0
 3 C  dxz             0.0       0.0       0.1       1.1       0.0       0.1
 3 C  dyz             0.0       0.0       0.4       0.1       0.0       0.0
 3 C  dxy             0.0       0.0       0.1       0.2       0.0       0.0
 4 O  s               0.0       0.0      10.5      42.5       1.3       0.1
 4 O  pz              0.0       0.0       2.3       3.6       0.1       0.1
 4 O  px              0.0       0.0       0.1       0.6       0.1       0.0
 4 O  py              0.0       0.0       0.3       0.3       0.0       0.0
 5 O  s               0.0       0.0      42.0      14.6       0.0       1.4
 5 O  pz              0.0       0.0       2.9       0.2       0.1       0.3
 5 O  px              0.0       0.0       0.0       0.4       5.9       7.1
 5 O  py              0.0       0.0       0.3       0.1       0.4       1.1
 6 C  s               0.0       0.0       4.8       2.2       5.9      17.5
 6 C  pz              0.0       0.0       0.1       0.2       0.0       0.3
 6 C  px              0.0       0.0       5.4       1.4       0.1       0.7
 6 C  py              0.1       0.0       0.2       0.0       0.2       2.1
 6 C  dx2y2           0.0       0.0       0.3       0.1       0.0       0.1
 7 C  s              99.7       0.0       0.3       0.2       2.9      18.8
 7 C  pz              0.0       0.0       0.1       0.1       0.1       0.4
 7 C  px              0.0       0.0       0.1       0.0       0.0       0.0
 7 C  py              0.0       0.0       0.4       0.1       0.5       1.4
 8 H  s               0.0       0.1       0.0       0.0       1.2       1.2
 9 H  s               0.0       0.1       0.0       0.0       1.3       1.2
10 H  s               0.0       0.1       0.0       0.0       1.5       1.2
11 H  s               0.0       0.0       0.1       0.0       3.2       1.3
12 H  s               0.0       0.0       0.0       0.0       3.0       1.6
13 H  s               0.0       0.0       0.2       0.0       3.5       0.2
14 H  s               0.0       0.0       0.2       0.1       3.1       0.5
15 H  s               0.0       0.0       0.8       0.1       1.0       3.2
16 H  s               0.0       0.0       0.5       0.3       1.1       3.9
17 H  s               0.1       0.0       0.1       0.0       0.5       3.7
18 H  s               0.1       0.0       0.1       0.0       0.5       3.5
19 H  s               0.1       0.0       0.0       0.0       0.5       3.8

                     12        13        14        15        16        17   
                  -0.63628  -0.59046  -0.53700  -0.49502  -0.45209  -0.43622
                   2.00000   2.00000   2.00000   2.00000   2.00000   2.00000
                  --------  --------  --------  --------  --------  --------
 0 C  s              19.2       4.4       8.9       0.1       0.1       0.3
 0 C  pz              0.1       0.2       6.2       0.5       1.0       0.1
 0 C  px              0.0       0.0       0.0       0.0       1.9       2.5
 0 C  py              0.0       0.4       1.9       0.0       0.0       2.3
 0 C  dyz             0.0       0.0       0.2       0.0       0.0       0.0
 1 C  s               2.5       0.7      15.0       0.5       0.2       0.0
 1 C  pz              0.9       0.5       7.3       0.5       0.5       2.7
 1 C  px              0.9       0.0       0.3       0.0       5.1       2.5
 1 C  py              7.2       2.9       0.1       0.5       3.1       0.3
 1 C  dyz             0.2       0.1       0.0       0.0       0.0       0.0
 2 C  s              12.0       5.0       2.1       0.9       1.7       0.0
 2 C  pz              0.0       0.0       3.2       0.4       0.4       5.9
 2 C  px              1.3       1.5       2.9       1.4      11.3       0.0
 2 C  py              1.2       0.1       4.7       0.8       4.0       6.0
 2 C  dxz             0.0       0.0       0.0       0.0       0.1       0.0
 2 C  dx2y2           0.1       0.0       0.1       0.0       0.0       0.0
 3 C  s               2.8       1.4       1.2       1.7       1.1       0.3
 3 C  pz              1.7       1.7       0.2       2.0       0.1       2.7
 3 C  px              5.6       1.6       4.6       1.2       7.9       1.0
 3 C  py              0.1       1.2       0.6       0.1       0.6      11.8
 3 C  dz2             0.0       0.0       0.0       0.0       0.1       0.2
 3 C  dxz             0.0       0.1       0.0       0.0       0.0       0.0
 4 O  s               0.8       0.2       0.8       0.7       0.1       1.8
 4 O  pz              0.1       0.2       0.2       1.0       0.2       0.3
 4 O  px              0.3       0.1       0.8       0.6       3.5       0.6
 4 O  py              0.0       0.1       0.0       0.1       0.0       5.8
 5 O  s               0.8       0.1       0.2       4.2       0.5       1.0
 5 O  pz              0.1       2.4       0.2       5.4       8.2       9.6
 5 O  px              2.4      16.1       0.2       5.8       1.7       0.3
 5 O  py              0.1       0.6       0.1       6.6       2.8       9.7
 6 C  s               0.3       5.1       1.7       7.2       0.3       0.3
 6 C  pz              0.7       3.7       0.3       2.5      11.9       5.8
 6 C  px              1.4       0.9       0.5      15.1       1.7       1.9
 6 C  py              1.7       4.5       0.4       5.2       2.7       0.7
 6 C  dz2             0.0       0.0       0.0       0.1       0.1       0.0
 6 C  dxz             0.0       0.0       0.0       0.2       0.0       0.0
 6 C  dyz             0.0       0.1       0.0       0.1       0.0       0.0
 6 C  dx2y2           0.1       0.2       0.0       0.3       0.0       0.0
 7 C  s               7.9      14.2       0.6       1.5       0.1       0.3
 7 C  pz              0.0       0.8       0.2       0.1       4.5       0.1
 7 C  px              0.1       0.1       0.0       1.5       0.2       4.4
 7 C  py              0.0       1.8       0.6       6.5       0.1       3.5
 8 H  s               5.0       1.5       3.5       0.0       0.1       2.0
 9 H  s               4.4       1.2       4.6       0.2       1.2       0.2
10 H  s               4.2       1.6       4.7       0.1       0.1       0.4
11 H  s               0.5       0.1       7.3       0.5       3.1       0.1
12 H  s               0.7       0.3       7.8       0.2       0.7       1.3
13 H  s               3.6       1.6       0.6       0.4       3.2       4.5
14 H  s               2.5       2.0       1.8       1.9       3.9       0.2
15 H  s               0.1       1.3       0.7      12.8       1.8       0.2
16 H  s               0.0       2.8       1.2       3.8       5.7       2.1
17 H  s               1.9       4.3       0.3       3.3       0.4       0.7
18 H  s               1.8       4.8       0.4       1.1       1.7       0.2
19 H  s               2.2       5.0       0.2       0.1       0.0       2.8

                     18        19        20        21        22        23   
                  -0.40852  -0.40435  -0.39351  -0.37664  -0.35817  -0.35276
                   2.00000   2.00000   2.00000   2.00000   2.00000   2.00000
                  --------  --------  --------  --------  --------  --------
 0 C  s               0.2       0.0       0.1       0.0       0.0       0.0
 0 C  pz              0.0       4.9       0.0       2.2       1.8      14.2
 0 C  px              5.9       0.2       4.5      10.9       1.5       3.3
 0 C  py              8.6       1.0       4.8       0.2       6.3       0.8
 1 C  s               0.2       0.3       0.2       0.0       0.1       0.0
 1 C  pz              5.4       1.5       3.5       0.0       0.7       2.1
 1 C  px             12.1       0.6       3.8       5.9       0.2       0.1
 1 C  py              0.9       6.5       0.0       1.8       0.5       6.2
 2 C  s               0.3       0.2       0.0       0.1       0.1       0.1
 2 C  pz             11.1       2.7       3.2       3.4       0.9      10.4
 2 C  px              2.7       4.6       0.0       2.5       3.9       2.2
 2 C  py              1.0       1.4       4.4       0.5       1.8       2.3
 2 C  dxz             0.0       0.1       0.0       0.0       0.0       0.3
 2 C  dx2y2           0.1       0.1       0.0       0.2       0.0       0.0
 3 C  s               0.7       3.1       0.4       0.2       0.2       0.4
 3 C  pz              0.2       1.5       0.1       0.9       2.2       2.5
 3 C  px              0.3       1.3       0.7       6.7       0.6       0.4
 3 C  py              0.0       6.3       0.7       0.0       2.5       0.5
 3 C  dz2             0.0       0.2       0.0       0.0       0.0       0.1
 3 C  dxz             0.2       0.0       0.0       0.0       0.0       0.2
 3 C  dxy             0.0       0.0       0.1       0.0       0.1       0.0
 4 O  s               1.5      10.5       0.6       2.5       0.5       1.7
 4 O  pz              2.7      20.3       1.8      10.6       0.6       5.2
 4 O  px              1.0       5.2       0.0       0.9       0.5       2.5
 4 O  py              0.3       0.0       1.2       1.0       3.6       2.7
 4 O  dz2             0.0       0.2       0.0       0.1       0.0       0.0
 4 O  dxz             0.0       0.1       0.0       0.0       0.0       0.0
 5 O  s               0.1       0.5       0.7       1.3       0.8       0.1
 5 O  pz              0.0       0.5       5.2       3.8       0.1       1.7
 5 O  px              0.6       7.7       1.4       1.9       0.0       0.5
 5 O  py              0.7       2.2       6.2       3.0       2.7       1.2
 6 C  s               0.0       0.1       0.4       0.1       0.2       0.0
 6 C  pz              4.5       0.3       0.2       4.3       0.0       0.1
 6 C  px              1.7       3.3       0.1       0.0       0.4       0.1
 6 C  py              0.2       1.2      13.3       0.3       0.2       0.0
 6 C  dxz             0.0       0.0       0.2       0.1       0.0       0.1
 6 C  dx2y2           0.0       0.0       0.0       0.0       0.2       0.1
 7 C  s               0.0       0.1       0.2       0.0       0.0       0.0
 7 C  pz              2.6       1.4      13.2       5.5       0.4       5.5
 7 C  px              2.7       0.8       4.3       0.1      29.0       2.5
 7 C  py              1.0       0.8       2.5       8.1       1.6       1.2
 7 C  dz2             0.0       0.0       0.0       0.0       0.1       0.0
 7 C  dx2y2           0.0       0.0       0.2       0.0       0.3       0.1
 8 H  s               1.7       1.0       3.7       1.7       2.4       0.7
 9 H  s               2.0       1.3       0.1       0.2       3.4       8.8
10 H  s               3.4       0.7       0.7       5.6       0.4       0.0
11 H  s               5.0       1.2       0.0       0.2       0.4       0.0
12 H  s               3.1       0.6       2.1       2.1       0.1       0.8
13 H  s               6.1       0.6       3.4       1.0       0.1       1.1
14 H  s               2.3       0.1       0.0       0.2       3.7       9.4
15 H  s               0.8       0.1       2.3       0.6       0.5       0.2
16 H  s               2.4       1.2       0.4       1.3       0.1       0.0
17 H  s               0.5       0.1       0.6       5.5       6.1       4.3
18 H  s               1.8       0.9       3.1       1.8       2.3       0.9
19 H  s               1.0       0.0       4.7       0.1      15.1       1.8

                     24        25        26        27        28        29   
                  -0.33856  -0.32747  -0.31169  -0.29971  -0.29851  -0.28917
                   2.00000   2.00000   2.00000   2.00000   2.00000   2.00000
                  --------  --------  --------  --------  --------  --------
 0 C  s               0.1       0.0       0.3       0.1       0.0       0.1
 0 C  pz              0.1       0.1      16.3       2.1       0.8       2.7
 0 C  px              0.9       9.2       4.6       8.0       2.7       0.1
 0 C  py              7.5       0.4       1.4       5.3      12.4       0.1
 0 C  dz2             0.0       0.0       0.0       0.0       0.3       0.0
 0 C  dxz             0.0       0.1       0.1       0.2       0.4       0.0
 0 C  dyz             0.0       0.0       0.0       0.2       0.0       0.0
 0 C  dx2y2           0.0       0.1       0.3       0.1       0.1       0.0
 0 C  dxy             0.0       0.0       0.1       0.1       0.1       0.0
 1 C  s               0.2       0.0       0.1       0.0       0.1       0.0
 1 C  pz              1.3       0.0      17.6       2.3       1.8       4.1
 1 C  px              0.6       1.0       3.2      13.4       3.3       0.1
 1 C  py              0.8       0.2       0.7       3.5      16.0       0.0
 1 C  dz2             0.1       0.0       0.0       0.0       0.3       0.0
 1 C  dxz             0.0       0.0       0.1       0.3       0.5       0.0
 1 C  dyz             0.0       0.0       0.2       0.5       0.0       0.1
 1 C  dx2y2           0.0       0.0       0.3       0.1       0.0       0.1
 1 C  dxy             0.0       0.1       0.2       0.0       0.1       0.0
 2 C  s               0.1       0.4       0.4       0.2       0.3       0.1
 2 C  pz              0.1       0.4       4.6       2.9       0.3       1.9
 2 C  px              0.5       3.9       0.0       5.1       0.0       1.3
 2 C  py              0.1       2.6       0.4       6.0      14.1       0.0
 2 C  dz2             0.0       0.0       0.0       0.0       0.1       0.0
 2 C  dxz             0.0       0.0       0.0       0.1       0.1       0.0
 2 C  dyz             0.0       0.0       0.2       0.6       0.0       0.1
 2 C  dx2y2           0.0       0.0       0.2       0.0       0.0       0.0
 2 C  dxy             0.1       0.0       0.0       0.0       0.2       0.0
 3 C  s               0.0       0.0       0.0       0.3       0.2       0.4
 3 C  pz              1.1       0.3       0.2       0.3       0.3       4.1
 3 C  px              0.2       2.4       1.2       1.5       0.4       0.1
 3 C  py             10.0       1.3       0.1       1.2       0.7       0.3
 3 C  dz2             0.1       0.1       0.0       0.0       0.0       0.6
 3 C  dxz             0.0       0.0       0.3       0.0       0.0       0.1
 3 C  dyz             0.1       0.1       0.0       0.2       0.0       0.1
 3 C  dx2y2           0.0       0.1       0.0       0.0       0.0       0.2
 3 C  dxy             0.0       0.0       0.0       0.2       0.2       0.0
 4 O  s               0.0       0.6       0.0       0.2       0.0       0.8
 4 O  pz              1.1       4.6       0.9       4.0       0.0       5.6
 4 O  px              0.2       0.1       2.3       0.5       0.0       1.2
 4 O  py             13.5       0.2       0.6       3.0       2.5       1.5
 5 O  s               0.0       0.5       0.3       0.2       0.0       2.9
 5 O  pz              0.0       5.0       0.2       2.1       0.0      21.9
 5 O  px              0.6       4.3       0.3       0.8       0.6       5.2
 5 O  py              0.0       0.1       0.0       0.3       1.8       2.6
 6 C  s               0.1       0.0       0.0       0.0       0.0       0.1
 6 C  pz              5.6       2.1       3.3       0.2       0.0       8.9
 6 C  px              1.3       2.7       0.0       0.3       0.3       1.5
 6 C  py             11.0       3.7       0.9       0.5       1.0       2.1
 6 C  dz2             0.2       0.2       0.1       0.0       0.0       0.0
 6 C  dxz             0.1       0.1       0.1       0.0       0.0       0.4
 6 C  dyz             0.1       0.2       0.1       0.0       0.0       0.2
 6 C  dx2y2           0.0       0.0       0.0       0.0       0.0       0.2
 6 C  dxy             0.1       0.0       0.0       0.0       0.0       0.2
 7 C  s               0.1       0.0       0.0       0.1       0.1       0.0
 7 C  pz              5.8       7.4       3.0       0.0       0.1       2.8
 7 C  px              3.6       5.4       0.0       0.6       0.0       0.4
 7 C  py             10.3       6.7       0.6       0.6       1.0       0.4
 7 C  dz2             0.1       0.2       0.1       0.0       0.0       0.1
 7 C  dxz             0.1       0.2       0.0       0.0       0.0       0.0
 7 C  dyz             0.1       0.1       0.1       0.0       0.0       0.1
 7 C  dx2y2           0.0       0.0       0.0       0.0       0.0       0.1
 8 H  s               4.5       2.1       1.2       4.7       5.7       0.1
 9 H  s               0.4       1.0       0.7       2.4       8.3       1.0
10 H  s               0.1       5.0       8.5       3.7       1.8       0.1
11 H  s               0.1       0.0       2.0       5.8      11.1       1.6
12 H  s               0.6       0.7       8.7       5.5       2.6       0.2
13 H  s               0.0       0.0       2.6       5.8       2.4       1.2
14 H  s               0.3       2.0       1.8       3.5       3.3       0.3
15 H  s               1.1       2.0       2.6       0.0       0.5       9.4
16 H  s               5.8       3.5       2.0       0.0       0.2       4.4
17 H  s               1.5       4.3       2.0       0.0       0.2       3.4
18 H  s               6.3       8.3       1.9       0.1       0.0       1.6
19 H  s               0.8       3.2       0.0       0.6       0.0       0.5

                     30        31        32        33        34        35   
                  -0.25529  -0.21349  -0.01970   0.03497   0.05604   0.06922
                   2.00000   2.00000   0.00000   0.00000   0.00000   0.00000
                  --------  --------  --------  --------  --------  --------
 0 C  s               0.0       0.0       0.2       7.2       1.5       6.5
 0 C  pz              0.0       0.2       0.1       1.0       0.3       0.9
 0 C  px              0.0       0.0       0.1       0.1       2.8       0.7
 0 C  py              0.0       0.0       0.2       0.7       0.1       0.4
 0 C  dz2             0.0       0.0       0.0       0.1       0.1       0.0
 0 C  dyz             0.0       0.0       0.1       0.1       0.1       0.0
 1 C  s               0.0       0.1       2.0       3.3       3.1       0.3
 1 C  pz              0.1       0.3       0.2       1.8       1.1       0.0
 1 C  px              0.2       0.8       0.0       0.1       2.0       0.1
 1 C  py              0.1       0.2       1.8       0.3       0.1       0.2
 1 C  dz2             0.0       0.0       0.0       0.0       0.0       0.1
 1 C  dx2y2           0.0       0.1       0.0       0.1       0.2       0.0
 2 C  s               0.0       0.6       0.1       2.0       4.4       1.8
 2 C  pz              0.0       2.6       0.0       0.0       0.1       1.0
 2 C  px              0.0       4.4       0.1       0.0       0.7       0.0
 2 C  py              0.0       0.0       0.4       0.9       1.5       0.5
 2 C  dz2             0.0       0.0       0.3       0.0       0.0       0.0
 2 C  dxz             0.0       0.0       0.0       0.0       0.2       0.0
 2 C  dyz             0.0       0.0       0.6       0.1       0.0       0.0
 2 C  dxy             0.0       0.0       1.2       0.0       0.0       0.0
 3 C  s               0.0       0.5       0.0       1.1       0.0       0.0
 3 C  pz              0.1       0.5       5.2       0.2       1.2       0.0
 3 C  px              0.0       0.9       1.5       0.7       0.5       0.2
 3 C  py              0.5       0.1      39.0       0.6       1.0       0.3
 3 C  dz2             0.8       0.5       0.2       0.0       0.1       0.0
 3 C  dxz             0.2       2.7       0.0       0.0       0.1       0.0
 3 C  dyz             1.1       0.6       0.3       0.1       0.0       0.0
 3 C  dx2y2           0.3       0.4       0.0       0.1       0.1       0.0
 3 C  dxy             0.0       0.2       0.6       0.1       0.1       0.0
 4 O  s               0.0       0.0       0.0       0.5       0.0       0.0
 4 O  pz              4.4       3.2       2.9       0.1       0.0       0.1
 4 O  px              2.1      62.1       1.1       0.2       0.1       0.1
 4 O  py             27.5       6.6      22.0       0.0       1.2       0.2
 4 O  dz2             0.0       0.0       0.2       0.0       0.0       0.0
 4 O  dyz             0.0       0.0       0.3       0.0       0.0       0.0
 5 O  s               0.0       0.3       0.0       0.8       0.8       1.0
 5 O  pz              4.7       6.6       1.1       0.1       0.0       0.0
 5 O  px              1.6       0.3       0.4       0.3       0.5       0.8
 5 O  py             39.1       0.5       7.6       0.1       0.9       0.0
 5 O  dx2y2           0.0       0.0       0.1       0.0       0.1       0.0
 5 O  dxy             0.0       0.0       0.2       0.0       0.0       0.0
 6 C  s               0.0       0.1       0.0       2.1       4.5       4.3
 6 C  pz              0.8       0.1       0.0       0.3       0.7       1.7
 6 C  px              0.2       0.8       0.0       1.3       0.8       9.1
 6 C  py              3.0       0.2       0.1       0.2       0.5       0.2
 6 C  dz2             0.0       0.0       0.0       0.0       0.0       0.4
 6 C  dxz             0.1       0.0       0.0       0.0       0.0       0.2
 6 C  dyz             0.3       0.0       0.2       0.0       0.0       0.0
 6 C  dx2y2           0.2       0.0       0.1       0.0       0.2       0.3
 6 C  dxy             0.5       0.0       0.2       0.0       0.0       0.1
 7 C  s               0.5       0.0       0.7       8.3       6.4       0.9
 7 C  pz              2.2       0.1       0.1       0.2       0.3       0.9
 7 C  px              0.3       0.1       0.0       0.2       0.3       2.4
 7 C  py              4.2       0.0       0.3       2.0       1.5       0.2
 7 C  dxz             0.0       0.0       0.0       0.0       0.0       0.1
 7 C  dyz             0.0       0.0       0.0       0.1       0.1       0.2
 7 C  dx2y2           0.1       0.0       0.0       0.1       0.0       0.1
 7 C  dxy             0.0       0.0       0.0       0.0       0.0       0.2
 8 H  s               0.0       0.0       0.1       5.3       3.2       2.5
 9 H  s               0.0       0.0       0.1       4.1       5.9       3.3
10 H  s               0.0       0.1       0.1       8.2       1.1      11.3
11 H  s               0.2       0.0       0.1       6.5       0.8       0.4
12 H  s               0.2       1.1       1.6       3.7      11.5       0.7
13 H  s               0.1       0.8       4.5       3.3       4.1       7.0
14 H  s               0.1       0.2       0.1       2.4       9.7       0.2
15 H  s               1.7       0.4       0.2       2.0       2.1       3.2
16 H  s               1.2       0.1       0.1       4.2       5.8      22.7
17 H  s               0.1       0.0       0.1       9.1       4.8       0.4
18 H  s               0.2       0.1       0.2       5.8       3.8       9.2
19 H  s               0.7       0.1       0.3       7.3       6.6       1.8

                     36        37        38        39        40        41   
                   0.08080   0.08896   0.09599   0.09923   0.10775   0.11472
                   0.00000   0.00000   0.00000   0.00000   0.00000   0.00000
                  --------  --------  --------  --------  --------  --------
 0 C  s               0.1       0.3       1.0       7.0       1.1       1.5
 0 C  pz              2.8       1.0       0.1       0.2       0.6       1.3
 0 C  px              0.0       0.9       4.2       0.4       0.9       0.1
 0 C  py              2.5       0.6       0.0       2.9       0.2       1.0
 0 C  dz2             0.1       0.0       0.1       0.0       0.0       0.0
 0 C  dxz             0.1       0.0       0.2       0.1       0.1       0.0
 0 C  dyz             0.0       0.0       0.0       0.0       0.1       0.1
 0 C  dx2y2           0.2       0.1       0.0       0.0       0.0       0.2
 0 C  dxy             0.0       0.2       0.1       0.0       0.1       0.1
 1 C  s               2.6       0.4       0.5       0.0       4.4       4.2
 1 C  pz              2.6       0.1       0.3       0.1       0.4       0.3
 1 C  px              0.7       0.1       5.1       1.2       3.3       0.0
 1 C  py              0.8       0.2       0.6       0.4       0.2       0.0
 1 C  dz2             0.4       0.4       0.0       0.0       0.0       0.1
 1 C  dxz             0.0       0.0       0.6       0.0       0.1       0.0
 1 C  dyz             0.3       0.0       0.0       0.4       0.0       0.1
 2 C  s               0.7       2.6       0.3       3.6       2.3       0.8
 2 C  pz              5.5       4.8       0.4       0.2       0.1       1.9
 2 C  px              0.5       0.3       1.3       1.6       0.9       1.1
 2 C  py              0.1       0.7       0.0       1.8       0.8       0.2
 2 C  dxz             0.0       0.1       0.0       0.0       0.0       0.0
 2 C  dyz             0.5       0.1       0.0       0.1       0.0       0.0
 2 C  dx2y2           0.0       0.1       0.6       0.0       0.0       0.4
 2 C  dxy             0.2       0.1       0.0       0.0       0.2       0.1
 3 C  s               0.3       1.2       1.1       0.3       0.4       0.8
 3 C  pz              0.1       0.6       0.9       0.0       0.3       0.1
 3 C  px              0.2       0.1       0.4       0.0       0.4       0.0
 3 C  py              0.4       0.7       0.3       0.0       0.3       0.2
 3 C  dz2             0.1       0.3       0.1       0.0       0.1       0.0
 3 C  dxz             0.2       0.6       0.1       0.0       0.0       0.0
 3 C  dyz             0.0       0.1       0.0       0.0       0.0       0.0
 3 C  dx2y2           0.2       0.1       0.5       0.0       0.0       0.0
 3 C  dxy             0.1       0.0       0.2       0.0       0.0       0.0
 4 O  s               0.2       0.7       0.0       0.0       0.3       0.1
 4 O  pz              0.1       0.2       0.0       0.0       0.0       0.0
 4 O  px              0.2       0.0       0.1       0.3       0.1       0.6
 4 O  py              0.0       0.0       0.1       0.0       0.0       0.0
 5 O  s               0.7       0.2       7.2       0.4       0.0       0.3
 5 O  pz              0.7       0.1       0.8       0.1       0.0       0.3
 5 O  px              0.3       0.4       3.8       0.7       0.1       0.6
 5 O  py              0.0       0.2       0.1       0.0       0.5       0.0
 5 O  dz2             0.0       0.0       0.2       0.0       0.0       0.0
 5 O  dxz             0.0       0.1       0.0       0.0       0.0       0.1
 5 O  dx2y2           0.1       0.1       0.5       0.0       0.0       0.0
 6 C  s               0.3       1.0       7.4       2.1       0.7       2.8
 6 C  pz              1.0       5.3       2.1       0.4       2.7       2.9
 6 C  px              3.0       1.6      13.4       4.0       0.4       0.6
 6 C  py              0.5       2.0       1.2       0.4       0.5       1.4
 6 C  dz2             0.0       0.6       0.3       0.0       0.1       0.0
 6 C  dxz             0.0       0.2       0.2       0.0       0.0       0.3
 6 C  dyz             0.1       0.3       0.0       0.0       0.0       0.1
 6 C  dx2y2           0.5       0.0       2.0       0.8       0.0       0.1
 6 C  dxy             0.1       0.0       0.1       0.0       0.2       0.1
 7 C  s               0.0       0.1       0.0       6.1       2.2       0.7
 7 C  pz              2.2       4.7       0.1       0.8       0.2       0.1
 7 C  px              1.5       0.0       0.6       0.8       7.9       8.4
 7 C  py              0.2       1.1       0.0       0.9       0.1       0.8
 7 C  dz2             0.0       0.3       0.0       0.0       0.0       0.7
 7 C  dxz             0.0       0.1       0.2       0.0       0.0       0.0
 7 C  dyz             0.0       0.2       0.1       0.0       0.2       0.1
 7 C  dx2y2           0.3       0.1       0.2       0.5       0.1       0.0
 7 C  dxy             0.1       0.0       0.5       0.2       0.0       0.0
 8 H  s               5.7       0.5       3.8      18.9       0.1       7.3
 9 H  s               7.3       5.5       5.3       1.1       1.0       0.2
10 H  s               0.6       0.3       3.0       1.1       4.3       0.3
11 H  s              16.4       0.5      10.2       0.8       0.3       4.5
12 H  s               0.8       0.1       5.2       1.6      18.1       4.1
13 H  s               2.7      18.9       0.2       6.9       5.6       6.5
14 H  s              15.3       1.1       0.2       6.5       3.3       0.0
15 H  s               5.3      13.7       1.9       5.0       1.5      17.1
16 H  s               0.1       7.1       5.8       2.8       8.4       0.3
17 H  s               5.5       8.9       0.7      12.9       0.5       2.8
18 H  s               1.1       6.6       0.4       1.8       0.2       1.0
19 H  s               4.6       0.1       2.9       1.2      22.8      19.7

                     42        43        44        45        46        47   
                   0.12550   0.13397   0.14118   0.15100   0.18116   0.19012
                   0.00000   0.00000   0.00000   0.00000   0.00000   0.00000
                  --------  --------  --------  --------  --------  --------
 0 C  s               0.3       1.2       0.9       0.2       1.1       1.3
 0 C  pz              0.0       4.1       1.5       0.1       2.0      11.5
 0 C  px              5.2       0.0       0.0       6.4       5.9       0.4
 0 C  py              0.0      11.3       0.9       0.3       0.9      11.5
 0 C  dz2             0.1       0.1       0.2       0.2       0.3       0.1
 0 C  dxz             0.0       0.4       0.4       0.0       0.5       0.2
 0 C  dyz             0.0       0.1       0.4       0.2       0.7       4.5
 0 C  dx2y2           0.3       0.1       0.0       0.2       0.1       1.0
 0 C  dxy             0.1       0.4       0.3       0.0       0.0       0.0
 1 C  s               0.9       0.1       4.8       0.6       0.2       5.8
 1 C  pz              0.4       1.2       0.9       0.8       0.4      23.0
 1 C  px              5.8       0.2       6.0       1.4       1.6       0.5
 1 C  py              0.1       0.2       1.5       0.9       9.4       0.0
 1 C  dz2             0.0       0.4       0.1       0.0       0.3       0.5
 1 C  dxz             0.0       0.0       0.4       0.2       0.0       0.1
 1 C  dyz             0.1       0.4       0.1       0.1       1.2       1.0
 1 C  dx2y2           0.1       0.1       0.2       0.6       0.0       2.4
 1 C  dxy             0.0       0.2       0.2       0.0       1.8       0.8
 2 C  s               0.4       0.7       0.0       0.9       2.1       0.7
 2 C  pz              0.1       5.0       2.3       0.5       0.1       0.1
 2 C  px              0.1       2.7       2.9       0.6       1.0       2.8
 2 C  py              0.8       0.3       1.7       2.8       8.5       4.4
[...]
 2 C  pz              0.2       0.1       0.0       0.1       0.0       0.0
 2 C  px              0.7       0.3       0.0       0.0       0.0       0.2
 2 C  py              1.5       0.0       0.0       0.0       0.0       0.0
 2 C  dz2             2.3       0.0       0.2       0.6       0.0       0.4
 2 C  dxz             0.0       0.3       0.0       2.8       0.4       0.0
 2 C  dyz             1.5       0.1       0.3       0.0       0.5       0.0
 2 C  dx2y2           7.3       1.7       0.0       0.0       0.1       0.8
 2 C  dxy             5.9       0.2       0.4       0.1       1.7       0.4
 3 C  s               0.8       0.1       0.0       0.2       0.0       1.0
 3 C  pz              0.0       0.2       0.0       0.1       0.3       2.0
 3 C  px              0.4       0.4       0.0       0.1       0.1       0.8
 3 C  py              0.1       0.0       0.0       0.4       0.7       0.2
 3 C  dz2             0.0       0.0       0.1       3.2       1.0       0.3
 3 C  dxz             0.2       0.1       0.5       5.9       0.2       3.4
 3 C  dyz             0.4       0.7       0.2       0.0       0.0       1.5
 3 C  dx2y2           0.4       1.8       0.8       3.8       0.4       1.3
 3 C  dxy             0.1       0.3       0.7       0.2      11.3       0.1
 4 O  s               0.0       0.0       0.0       1.2       0.2       0.4
 4 O  pz              0.1       0.0       0.0       0.4       0.0       0.1
 4 O  px              0.0       0.0       0.0       0.3       0.2       0.7
 4 O  py              0.0       0.0       0.0       0.1       0.2       0.0
 4 O  dz2             0.0       0.5       0.9       0.5       6.3       3.5
 4 O  dxz             0.7       2.3       0.1       4.0       5.1      19.0
 4 O  dyz             1.7      10.2       1.3       1.4       9.4       0.2
 4 O  dx2y2           1.0      48.4       0.3      13.5       1.0       1.0
 4 O  dxy            22.9      16.4       5.4       0.0       1.8       3.9
 5 O  s               0.0       0.1       0.0       0.5       0.1       7.2
 5 O  pz              0.0       0.5       0.1       0.5       0.3       0.9
 5 O  px              0.0       0.0       0.1       1.9       0.1       0.1
 5 O  py              0.1       0.1       1.0       0.0       0.4       0.1
 5 O  dz2             3.1       3.8       6.2       6.7      18.0       0.3
 5 O  dxz             0.4       1.4       0.1      26.9       0.1       4.4
 5 O  dyz             5.4       2.7      23.2      13.0       8.0       6.9
 5 O  dx2y2           0.4       0.8       1.5       1.1      18.6      28.3
 5 O  dxy             0.0       0.1      34.8       2.5       9.5       5.0
 6 C  s               0.1       0.4       0.2       0.4       0.1       0.5
 6 C  pz              0.1       0.3       0.0       0.1       0.0       0.1
 6 C  px              0.0       0.2       0.2       0.7       0.1       0.6
 6 C  py              0.0       0.0       0.2       0.1       0.0       0.0
 6 C  dz2             0.2       0.1       0.0       1.2       0.0       0.1
 6 C  dxz             0.5       1.0       1.1       1.1       0.2       1.5
 6 C  dyz             0.0       0.2       1.0       0.6       0.3       0.0
 6 C  dx2y2           0.1       0.5       2.2       2.5       0.3       1.5
 6 C  dxy             0.1       0.2      11.3       0.2       1.6       0.3
 7 C  s               0.0       0.2       0.1       0.0       0.0       0.0
 7 C  py              0.0       0.1       0.2       0.1       0.0       0.0
 7 C  dxz             0.0       0.1       0.4       0.1       0.1       0.0
 7 C  dyz             0.0       0.1       0.8       0.1       0.0       0.0
 7 C  dx2y2           0.1       0.2       2.1       0.2       0.1       0.0
 7 C  dxy             0.0       0.1       1.0       0.0       0.1       0.1
 8 H  s               0.2       0.0       0.0       0.0       0.0       0.0
15 H  s               0.0       0.1       0.0       0.0       0.1       0.0
16 H  s               0.1       0.1       0.0       0.0       0.0       0.0
19 H  s               0.0       0.0       0.2       0.0       0.0       0.0

                    132       133       134       135   
                   3.12108   3.32372   3.48634   3.55770
                   0.00000   0.00000   0.00000   0.00000
                  --------  --------  --------  --------
 2 C  s               0.0       0.2       0.1       0.0
 2 C  px              0.0       0.1       0.4       0.1
 2 C  dz2             0.0       0.0       0.6       0.0
 2 C  dxz             0.1       0.6       0.0       0.4
 2 C  dx2y2           0.4       0.1       0.8       0.0
 2 C  dxy             0.1       0.0       0.3       0.0
 3 C  s               0.1       3.6       0.1       6.4
 3 C  pz              0.0       0.1       3.2       3.2
 3 C  px              0.0       1.6       0.2       0.8
 3 C  py              0.5       0.1       0.5       0.3
 3 C  dz2             5.5       3.0       0.9       8.9
 3 C  dxz             0.0       0.0      15.2       0.0
 3 C  dyz            10.5       0.2       1.8       3.3
 3 C  dx2y2           2.8       3.1       0.8       0.7
 3 C  dxy             0.6       0.5       1.7       0.0
 4 O  s               0.0       1.7       0.8       4.3
 4 O  pz              0.2       0.7       0.8       2.4
 4 O  px              0.0       0.1       0.2       0.9
 4 O  py              0.8       0.1       0.2       0.2
 4 O  dz2            13.8      12.1      15.2      18.5
 4 O  dxz             0.8       0.6       3.6      26.4
 4 O  dyz            32.9       6.5       6.8       5.4
 4 O  dx2y2           2.1       0.4       2.9       0.7
 4 O  dxy             6.4       0.1       0.1       2.2
 5 O  s               0.8       0.1       0.7       0.4
 5 O  pz              0.1       0.5       0.6       0.1
 5 O  px              0.0       1.9       2.7       0.1
 5 O  py              0.1       0.4       0.4       0.0
 5 O  dz2             0.4      22.7       1.2       3.5
 5 O  dxz             1.0       7.6      26.6       2.6
 5 O  dyz             2.8       5.5       4.8       0.0
 5 O  dx2y2           0.3      16.1       0.0       4.8
 5 O  dxy            14.7       0.7       3.8       2.4
 6 C  s               0.0       0.8       0.3       0.0
 6 C  pz              0.0       0.2       0.0       0.0
 6 C  px              0.1       1.5       0.4       0.1
 6 C  dz2             0.1       0.9       0.5       0.0
 6 C  dxz             0.0       1.2       0.1       0.6
 6 C  dyz             0.3       0.0       0.0       0.0
 6 C  dx2y2           0.4       3.6       0.4       0.2
 6 C  dxy             0.7       0.2       0.2       0.0


                      *****************************
                      * MAYER POPULATION ANALYSIS *
                      *****************************

  NA   - Mulliken gross atomic population
  ZA   - Total nuclear charge
  QA   - Mulliken gross atomic charge
  VA   - Mayer's total valence
  BVA  - Mayer's bonded valence
  FA   - Mayer's free valence

  ATOM       NA         ZA         QA         VA         BVA        FA
  0 C      6.2905     6.0000    -0.2905     4.0056     4.0056     0.0000
  1 C      6.2138     6.0000    -0.2138     4.1661     4.1661     0.0000
  2 C      6.1041     6.0000    -0.1041     3.9327     3.9327    -0.0000
  3 C      5.9172     6.0000     0.0828     4.4121     4.4121     0.0000
  4 O      8.2046     8.0000    -0.2046     2.2911     2.2911    -0.0000
  5 O      8.2426     8.0000    -0.2426     2.2436     2.2436     0.0000
  6 C      6.0120     6.0000    -0.0120     4.0580     4.0580     0.0000
  7 C      6.3096     6.0000    -0.3096     4.0108     4.0108    -0.0000
  8 H      0.8938     1.0000     0.1062     0.9500     0.9500    -0.0000
  9 H      0.8966     1.0000     0.1034     0.9564     0.9564     0.0000
 10 H      0.8806     1.0000     0.1194     0.9602     0.9602     0.0000
 11 H      0.8968     1.0000     0.1032     0.9593     0.9593     0.0000
 12 H      0.9064     1.0000     0.0936     0.9415     0.9415     0.0000
 13 H      0.8923     1.0000     0.1077     0.9530     0.9530    -0.0000
 14 H      0.9032     1.0000     0.0968     0.9761     0.9761    -0.0000
 15 H      0.8924     1.0000     0.1076     0.9783     0.9783    -0.0000
 16 H      0.8993     1.0000     0.1007     0.9504     0.9504    -0.0000
 17 H      0.8867     1.0000     0.1133     0.9568     0.9568    -0.0000
 18 H      0.8698     1.0000     0.1302     0.9678     0.9678    -0.0000
 19 H      0.8877     1.0000     0.1123     0.9546     0.9546     0.0000

  Mayer bond orders larger than 0.100000
B(  0-C ,  1-C ) :   1.1519 B(  0-C ,  8-H ) :   0.9511 B(  0-C ,  9-H ) :   0.9532 
B(  0-C , 10-H ) :   0.9473 B(  1-C ,  2-C ) :   1.1093 B(  1-C , 11-H ) :   0.9231 
B(  1-C , 12-H ) :   0.9267 B(  2-C ,  3-C ) :   1.0332 B(  2-C , 13-H ) :   0.8932 
B(  2-C , 14-H ) :   0.9111 B(  3-C ,  4-O ) :   2.0556 B(  3-C ,  5-O ) :   1.1897 
B(  5-O ,  6-C ) :   0.9260 B(  6-C ,  7-C ) :   1.1733 B(  6-C , 15-H ) :   0.9140 
B(  6-C , 16-H ) :   0.9372 B(  7-C , 17-H ) :   0.9487 B(  7-C , 18-H ) :   0.9429 
B(  7-C , 19-H ) :   0.9436 

-------
TIMINGS
-------

Total SCF time: 0 days 0 hours 0 min 8 sec 

Total time                  ....       8.412 sec
Sum of individual times     ....       7.907 sec  ( 94.0%)

SCF preparation             ....       0.167 sec  (  2.0%)
Fock matrix formation       ....       6.890 sec  ( 81.9%)
  Startup                   ....       0.061 sec  (  0.9% of F)
  Split-RI-J                ....       2.547 sec  ( 37.0% of F)
  XC integration            ....       3.785 sec  ( 54.9% of F)
    XC Preparation          ....       0.000 sec  (  0.0% of XC)
    Basis function eval.    ....       1.352 sec  ( 35.7% of XC)
    Density eval.           ....       0.472 sec  ( 12.5% of XC)
    XC-Functional eval.     ....       0.342 sec  (  9.0% of XC)
    XC-Potential eval.      ....       0.735 sec  ( 19.4% of XC)
Diagonalization             ....       0.000 sec  (  0.0%)
Density matrix formation    ....       0.180 sec  (  2.1%)
Total Energy calculation    ....       0.035 sec  (  0.4%)
Population analysis         ....       0.081 sec  (  1.0%)
Orbital Transformation      ....       0.051 sec  (  0.6%)
Orbital Orthonormalization  ....       0.000 sec  (  0.0%)
DIIS solution               ....       0.342 sec  (  4.1%)
  MO trafo                  ....       0.000 sec  (  0.0 % of DIIS)
  Orb grad                  ....       0.000 sec  (  0.0 % of DIIS)
  Energy W gradient         ....       0.000 sec  (  0.0 % of DIIS)
  DIIS error                ....       0.005 sec  (  1.5 % of DIIS)
  DIIS work                 ....       0.295 sec  ( 86.1 % of DIIS)
  Form Q                    ....       0.000 sec  (  0.0 % of DIIS)
  Form QpQm                 ....       0.000 sec  (  0.0 % of DIIS)
  Exp/Cayley                ....       0.000 sec  (  0.0 % of DIIS)
  Orb update                ....       0.000 sec  (  0.0 % of DIIS)
  Wake-sleep                ....       0.016 sec  (  4.6 % of DIIS)
SOSCF solution              ....       0.161 sec  (  1.9%)
  MO trafo                  ....       0.054 sec  ( 33.3 % of SOSCF)
  Orb grad                  ....       0.003 sec  (  1.6 % of SOSCF)
  Rot update                ....       0.065 sec  ( 40.4 % of SOSCF)
  Step                      ....       0.040 sec  ( 24.5 % of SOSCF)
Finished LeanSCF after   8.5 sec

Maximum memory used throughout the entire LEANSCF-calculation: 12.9 MB


-------------------------------------------------------------------------------
                          DFT DISPERSION CORRECTION                            
                                                                               
                                DFTD4 V3.4.0                                   
-------------------------------------------------------------------------------
The PBE functional is recognized
Active option DFTDOPT                   ...         5   

-------------------------   ----------------
Dispersion correction           -0.015668016
-------------------------   ----------------

------------------   -----------------
gCP correction             0.090476625
------------------   -----------------

-------------------------   --------------------
FINAL SINGLE POINT ENERGY      -385.457975693734
-------------------------   --------------------


------------------------------------------------------------------------------
                              ORCA PROPERTY CALCULATIONS
------------------------------------------------------------------------------

GBWName                                 ... sp.gbw
Number of atoms                         ...     20
Number of basis functions               ...    136
Max core memory                         ...   1024 MB

Electric properties:
Dipole moment                           ... YES
Quadrupole moment                       ...  NO
Static polarizability (Dipole/Dipole)   ...  NO
Static polarizability (Dipole/Quad.)    ...  NO
Static polarizability (Quad./Quad.)     ...  NO
Static polarizability (Velocity)        ...  NO

Atomic electric properties:
Dipole moment                           ...  NO
Quadrupole moment                       ...  NO
Static polarizability                   ...  NO

Choice of electric origin               ... Center of mass
Position of electric origin             ...    -0.000011    -0.000020     0.000005

General magnetic properties:
Magnetizability                         ...  NO

EPR properties:
g-Tensor (aka g-matrix)                 ...  NO
Zero-Field splitting spin-orbit         ...  NO
Zero-field splitting spin-spin          ...  NO
Hyperfine couplings                     ...  NO (   0 nuclei)
Quadrupole couplings                    ...  NO (   0 nuclei)
Contact density                         ...  NO (   0 nuclei)

NMR properties:
Chemical shifts                         ...  NO (   0 nuclei)
Spin-rotation constants                 ...  NO (   0 nuclei)
Spin-spin couplings                     ...  NO (   0 nuclei,    0 pairs)

Choice of magnetic origin               ... GIAO
Position of magnetic origin             ...     0.000000     0.000000     0.000000

Properties with geometric perturbations:
SCF Hessian                             ...  NO
IR spectrum                             ...  NO
VCD spectrum                            ...  NO
X-ray spectroscopy properties:
SCF XES/XAS/RIXS spectra                ...  NO


-------------
DIPOLE MOMENT
-------------

Method             : SCF
Type of density    : Electron Density
Multiplicity       :   1
Irrep              :   0
Energy             :  -385.5327843022361094 Eh
Relativity type    : 
Basis              : AO
                                X                 Y                 Z
Electronic contribution:      2.140894351       6.019045459      -0.316354458
Nuclear contribution   :     -2.050236348      -6.416805596       0.966787789
                        -----------------------------------------
Total Dipole Moment    :      0.090658002      -0.397760137       0.650433331
                        -----------------------------------------
Magnitude (a.u.)       :      0.767786115
Magnitude (Debye)      :      1.951557211



--------------------
Rotational spectrum 
--------------------
 
Rotational constants in cm-1:             0.100733             0.043539             0.038662 
Rotational constants in MHz :          3019.903854          1305.265628          1159.062905 

Dipole components along the rotational axes: 
x,y,z [a.u.] :    -0.067044     0.475637    -0.598974 
x,y,z [Debye]:    -0.170413     1.208973    -1.522472 

 

Dipole moment calculation done in   0.0 sec 

Maximum memory used throughout the entire PROP-calculation: 8.1 MB

--------------------------------
SUGGESTED CITATIONS FOR THIS RUN
--------------------------------

Below you find a list of papers that are relevant to this ORCA run
We neither can nor want to force you to cite these papers, but we appreciate if you do
You receive ORCA, which is the product of decades of hard work by many enthusiastic individuals, for free
The only thing we kindly ask in return is that you cite our papers,
We deeply appreciate it, if you show your appreciation for ORCA by not just citing the generic ORCA reference.

Please note that relegating all ORCA citations to the supporting information does *not* help us.
SI sections are not indexed - citations you put there will not count into any citation statistics
But we need these citations in order to attract the funding resources that allow us to do what we are doing

Therefore, if you are a happy ORCA user, please consider citing a few of the papers listed below in the main body of your paper

In addition to the list printed below, the program has created the file sp.bibtex that contains the list in bibtex format
You can import this file easily into all common literature databanks and citation aid programs


List of essential papers. We consider these as the minimum necessary citations

  1. Neese,F.
     Software update: the ORCA program system, version 5.0
     WIRES Comput. Molec. Sci., 2022 12(1)e1606
     doi.org/10.1002/wcms.1606

List of papers to cite with high priority. The work reported in these papers was absolutely
necessary for this run to complete.
Our perspective: the developers of density functionals and basis sets usually get cited in chemistry papers
Good! But without the algorithms to do something with them, the functionals or basis sets would not do anything.
Hence, in our opinion, the algorithm design and method developments papers are equally worthy of getting cited

  1. Neese,F.
     An improvement of the resolution of the identity approximation for the formation of the Coulomb matrix
     J. Comp. Chem., 2003 24(14)1740-1747
     doi.org/10.1002/jcc.10318
  2. Neese,F.
     The SHARK Integral Generation and Digestion System
     J. Comp. Chem., 2022  1-16
     doi.org/10.1002/jcc.26942
  3. Caldeweyher,E.; Bannwarth,C.; Grimme,S.
     Extension of the D3 dispersion coefficient model
     J. Chem. Phys., 2017 147 034112-XXXX
     doi.org/10.1063/1.4993215
  4. Caldeweyher,E.; Ehlert,S.; Hansen,A.; Neugebauer,H.; Spicher,S.; Bannwarth,C.; Grimme,S.
     A generally applicable atomic-charge dependent London dispersion correction
     J. Chem. Phys., 2019 150 154122-XXXX
     doi.org/10.1063/1.5090222
  5. Caldeweyher,E.; Mewes,J.; Ehlert,S.; Grimme,S.
     Extension and evaluation of the D4 London-dispersion model for periodic systems
     Phys. Chem. Chem. Phys., 2020 22(16)8499-8512
     doi.org/10.1039/D0CP00502A

List of suggested additional citations. These are papers that are important in the 'surrounding' of 
of this run, or papers that preceded the highly important papers. If you like your results we are grateful for a citation.

  1. Neese,F.
     The ORCA program system
     WIRES Comput. Molec. Sci., 2012 2(1)73-78
     doi.org/10.1002/wcms.81
  2. Neese,F.
     Software update: the ORCA program system, version 4.0
     WIRES Comput. Molec. Sci., 2018 8(1)1-6
     doi.org/10.1002/wcms.1327
  3. Neese,F.; Wennmohs,F.; Becker,U.; Riplinger,C.
     The ORCA quantum chemistry program package
     J. Chem. Phys., 2020 152 Art. No. L224108
     doi.org/10.1063/5.0004608

List of optional additional citations

  1. Neese,F.
     Approximate second-order SCF convergence for spin unrestricted wavefunctions
     Chem. Phys. Lett., 2000 325(1-3)93-98
     doi.org/10.1016/s0009-2614(00)00662-x

Timings for individual modules:

Sum of individual times          ...       10.204 sec (=   0.170 min)
Startup calculation              ...        0.779 sec (=   0.013 min)   7.6 %
SCF iterations                   ...        9.313 sec (=   0.155 min)  91.3 %
Property calculations            ...        0.112 sec (=   0.002 min)   1.1 %
                             ****ORCA TERMINATED NORMALLY****
TOTAL RUN TIME: 0 days 0 hours 0 minutes 10 seconds 898 msec
