 Entering Gaussian System
 *********************************************
 Gaussian 98:
 frequency output generated by the xtb code
 *********************************************
                         Standard orientation:
 --------------------------------------------------------------------
  Center     Atomic     Atomic              Coordinates (Angstroms)
  Number     Number      Type              X           Y           Z
 --------------------------------------------------------------------
    1          6             0       -3.630418    0.200321    1.881988
    2          6             0       -3.057365    0.600928    0.522691
    3          1             0       -3.115163    1.683540    0.385956
    4          6             0       -1.612227    0.167858    0.379033
    5          6             0       -1.288870   -1.204689    0.390027
    6          6             0        0.006319   -1.619815    0.278699
    7          6             0        1.058137   -0.685546    0.151480
    8          6             0        2.400750   -1.079437    0.039380
    9          6             0        3.407518   -0.146716   -0.086013
   10          6             0        3.087746    1.225628   -0.103167
   11          6             0        1.785327    1.628417    0.003946
   12          6             0        0.736927    0.697339    0.133557
   13          6             0       -0.611651    1.093157    0.244745
   14          8             0        4.677048   -0.638882   -0.187343
   15          6             0        5.756363    0.267487   -0.315957
   16          6             0       -3.818479   -0.048416   -0.612210
   17          8             0       -4.343789   -1.139398   -0.568733
   18          8             0       -3.817475    0.701927   -1.702836
   19          1             0       -2.992768    0.578709    2.675652
   20          1             0       -4.630844    0.607870    2.003064
   21          1             0       -3.690130   -0.881863    1.959981
   22          1             0       -2.086488   -1.928310    0.474181
   23          1             0        0.245885   -2.672742    0.285021
   24          1             0        2.659466   -2.127004    0.051099
   25          1             0        3.866116    1.964930   -0.200607
   26          1             0        1.546642    2.681418   -0.010003
   27          1             0       -0.842172    2.148470    0.226705
   28          1             0        5.829655    0.922813    0.555804
   29          1             0        5.665426    0.865791   -1.226208
   30          1             0        6.645001   -0.356723   -0.377922
   31          1             0       -4.265457    0.274569   -2.458948
 --------------------------------------------------------------------
     1 basis functions        1 primitive gaussians
     1 alpha electrons        1 beta electrons
 
 Harmonic frequencies (cm**-1), IR intensities (km*mol⁻¹),
 Raman scattering activities (A**4/amu), Raman depolarization ratios,
 reduced masses (AMU), force constants (mDyne/A) and normal coordinates:
                      1                      2                      3
                        a                      a                      a 
 Frequencies --    27.2168                36.3325                50.7651
 Red. masses --    11.7549                14.2517                11.6698
 Frc consts  --     0.0000                 0.0000                 0.0000
 IR Inten    --     0.0262                 4.3676                 2.0803
 Raman Activ --     0.0000                 0.0000                 0.0000
 Depolar     --     0.0000                 0.0000                 0.0000
 Atom AN      X      Y      Z        X      Y      Z        X      Y      Z
   1   6    -0.21  -0.20  -0.04     0.06  -0.05  -0.00    -0.08   0.23  -0.12
   2   6    -0.03  -0.05   0.08     0.02  -0.01  -0.01    -0.01   0.07  -0.14
   3   1    -0.01  -0.01   0.06     0.01  -0.00   0.01    -0.01   0.01  -0.08
   4   6    -0.02  -0.04   0.17     0.02  -0.02  -0.05     0.00   0.06   0.01
   5   6     0.00  -0.03   0.29     0.02  -0.02   0.03    -0.02   0.05  -0.02
   6   6     0.01  -0.02   0.31     0.03  -0.01   0.06    -0.02   0.04   0.03
   7   6    -0.01  -0.01   0.18     0.02  -0.02   0.00    -0.00   0.02   0.11
   8   6    -0.01  -0.00   0.15     0.03  -0.01   0.08    -0.02  -0.00   0.03
   9   6    -0.04   0.00  -0.03     0.03  -0.01   0.03     0.00  -0.02   0.04
  10   6    -0.06  -0.00  -0.15     0.01  -0.02  -0.12     0.04  -0.01   0.24
  11   6    -0.06  -0.01  -0.11     0.00  -0.02  -0.20     0.06   0.02   0.34
  12   6    -0.04  -0.02   0.05     0.01  -0.02  -0.12     0.03   0.03   0.23
  13   6    -0.04  -0.03   0.05     0.01  -0.02  -0.15     0.03   0.05   0.17
  14   8    -0.04   0.02  -0.08     0.04  -0.01   0.16    -0.03  -0.05  -0.17
  15   6    -0.06   0.02  -0.29     0.04  -0.01   0.14    -0.03  -0.07  -0.37
  16   6     0.13   0.07  -0.10    -0.04   0.04   0.00     0.04  -0.09  -0.09
  17   8     0.18   0.06  -0.35     0.37  -0.16  -0.16     0.34  -0.24  -0.06
  18   8     0.30   0.24  -0.01    -0.62   0.36   0.22    -0.28  -0.08  -0.08
  19   1    -0.08  -0.10   0.03     0.04  -0.04  -0.00    -0.04   0.11  -0.04
  20   1    -0.06  -0.04  -0.03     0.03   0.00   0.02    -0.03   0.06  -0.07
  21   1    -0.09  -0.06  -0.06    -0.00  -0.02  -0.02    -0.01   0.07   0.01
  22   1     0.00  -0.01   0.11     0.01  -0.00   0.02    -0.01   0.02  -0.03
  23   1     0.01  -0.00   0.12     0.01  -0.00   0.04    -0.01   0.01  -0.01
  24   1     0.00   0.00   0.07     0.01  -0.00   0.05    -0.01  -0.00  -0.03
  25   1    -0.02  -0.00  -0.08     0.00  -0.01  -0.05     0.02  -0.00   0.09
  26   1    -0.02  -0.01  -0.06    -0.00  -0.01  -0.09     0.02   0.01   0.14
  27   1    -0.02  -0.01  -0.02    -0.00  -0.01  -0.06     0.01   0.02   0.07
  28   1     0.00   0.04  -0.11    -0.01   0.02   0.03     0.06  -0.04  -0.10
  29   1    -0.05  -0.03  -0.10     0.03  -0.03   0.02    -0.07  -0.00  -0.09
  30   1    -0.02   0.01  -0.09     0.01  -0.00   0.08    -0.02  -0.03  -0.19
  31   1     0.11   0.08  -0.04    -0.17   0.10   0.06    -0.06  -0.05  -0.01
                      4                      5                      6
                        a                      a                      a 
 Frequencies --    77.5794               112.9777               139.0954
 Red. masses --    11.4248                12.3019                10.6666
 Frc consts  --     0.0000                 0.0000                 0.0000
 IR Inten    --     3.5115                 1.9057                 1.1237
 Raman Activ --     0.0000                 0.0000                 0.0000
 Depolar     --     0.0000                 0.0000                 0.0000
 Atom AN      X      Y      Z        X      Y      Z        X      Y      Z
   1   6     0.15  -0.11  -0.04    -0.05   0.14  -0.13    -0.10   0.42   0.07
   2   6     0.03  -0.06  -0.07     0.05  -0.03  -0.15     0.05   0.07   0.04
   3   1     0.02  -0.01  -0.00     0.05  -0.01  -0.06     0.07   0.02  -0.03
   4   6     0.02  -0.07  -0.15     0.04  -0.13  -0.00    -0.01  -0.16   0.08
   5   6     0.04  -0.06  -0.14     0.08  -0.12   0.16    -0.03  -0.16  -0.00
   6   6     0.06  -0.04   0.01     0.11  -0.10   0.26    -0.03  -0.18  -0.15
   7   6     0.06  -0.03   0.10     0.10  -0.09   0.16    -0.01  -0.20  -0.15
   8   6     0.08   0.00   0.25     0.11  -0.04   0.03     0.03  -0.12  -0.13
   9   6     0.07   0.02   0.22     0.06  -0.00  -0.12    -0.02  -0.04   0.03
  10   6     0.03   0.01   0.11     0.01  -0.01  -0.02    -0.08  -0.05   0.03
  11   6     0.02  -0.02   0.02     0.01  -0.06   0.10    -0.10  -0.13  -0.03
  12   6     0.03  -0.04  -0.00     0.06  -0.10   0.13    -0.03  -0.20  -0.07
  13   6     0.02  -0.06  -0.10     0.05  -0.13   0.05     0.00  -0.19   0.01
  14   8     0.10   0.06   0.33     0.08   0.09  -0.44     0.08   0.16   0.23
  15   6    -0.00   0.05  -0.43     0.05   0.18   0.17    -0.12   0.33  -0.07
  16   6    -0.15   0.06  -0.02    -0.13   0.05  -0.08     0.08   0.07   0.04
  17   8    -0.40   0.18   0.03    -0.35   0.16  -0.02     0.17   0.04  -0.00
  18   8    -0.13   0.08  -0.01    -0.22   0.09  -0.08     0.12   0.10   0.06
  19   1     0.07  -0.05  -0.02    -0.01   0.04  -0.04    -0.03   0.15   0.01
  20   1     0.05  -0.02   0.02    -0.00   0.08  -0.06    -0.02   0.17  -0.03
  21   1     0.03  -0.03  -0.03    -0.05   0.05  -0.02    -0.07   0.13   0.08
  22   1     0.01  -0.02  -0.06     0.03  -0.04   0.06    -0.01  -0.04   0.01
  23   1     0.02  -0.01   0.01     0.04  -0.03   0.11    -0.02  -0.05  -0.06
  24   1     0.03   0.00   0.10     0.04  -0.01  -0.00     0.03  -0.03  -0.05
  25   1     0.01   0.01   0.03    -0.01   0.01  -0.02    -0.04  -0.00   0.03
  26   1    -0.00  -0.01  -0.01    -0.01  -0.02   0.04    -0.05  -0.04   0.00
  27   1     0.00  -0.02  -0.04     0.01  -0.04  -0.00     0.01  -0.05   0.01
  28   1     0.10   0.09  -0.19    -0.06  -0.03   0.12    -0.04   0.14  -0.05
  29   1    -0.12  -0.07  -0.17     0.07   0.14   0.10    -0.10   0.05  -0.04
  30   1    -0.00   0.02  -0.18     0.03   0.07   0.05    -0.00   0.14  -0.02
  31   1    -0.08   0.04   0.01    -0.11   0.05  -0.00     0.05   0.03   0.00
                      7                      8                      9
                        a                      a                      a 
 Frequencies --   156.5647               169.7446               180.4407
 Red. masses --     3.8470                 6.5713                10.1911
 Frc consts  --     0.0000                 0.0000                 0.0000
 IR Inten    --     0.3241                 0.9287                 2.6310
 Raman Activ --     0.0000                 0.0000                 0.0000
 Depolar     --     0.0000                 0.0000                 0.0000
 Atom AN      X      Y      Z        X      Y      Z        X      Y      Z
   1   6     0.12  -0.01   0.03     0.03  -0.03   0.04     0.45   0.03   0.15
   2   6     0.00   0.04  -0.00    -0.00  -0.03   0.03     0.02   0.05  -0.02
   3   1     0.01   0.01   0.00    -0.01  -0.01   0.01    -0.00   0.01   0.00
   4   6    -0.02   0.00  -0.09    -0.00  -0.00  -0.04    -0.03   0.01  -0.20
   5   6    -0.01   0.01   0.14     0.03   0.01   0.28    -0.10  -0.01  -0.24
   6   6    -0.02   0.00   0.09     0.02   0.00   0.13    -0.09  -0.04   0.05
   7   6    -0.03  -0.00  -0.06    -0.01   0.00  -0.14    -0.06  -0.05   0.22
   8   6    -0.04  -0.00  -0.07    -0.02  -0.00  -0.16    -0.05  -0.05   0.33
   9   6    -0.03   0.00   0.04     0.00   0.00   0.05    -0.10  -0.05   0.06
  10   6    -0.00   0.01   0.25     0.03   0.01   0.35    -0.09  -0.05  -0.02
  11   6    -0.02   0.01   0.09     0.00   0.01   0.06    -0.07  -0.04   0.02
  12   6    -0.03  -0.01  -0.13    -0.03  -0.00  -0.25    -0.04  -0.05   0.05
  13   6    -0.04  -0.00  -0.26    -0.04  -0.01  -0.38    -0.03  -0.01  -0.10
  14   8    -0.04   0.00  -0.09    -0.01  -0.01  -0.04    -0.12   0.02  -0.28
  15   6    -0.04   0.02  -0.01     0.00  -0.02  -0.02    -0.18   0.15   0.05
  16   6     0.01   0.02   0.01    -0.00  -0.00   0.01     0.05   0.03   0.00
  17   8     0.08  -0.02   0.03    -0.03   0.01  -0.05     0.17  -0.02  -0.08
  18   8     0.06  -0.04  -0.03     0.03   0.06   0.05     0.16   0.05   0.00
  19   1     0.29  -0.40  -0.01    -0.15   0.26   0.01     0.15   0.12  -0.02
  20   1     0.21   0.37   0.23    -0.11  -0.26  -0.11     0.09  -0.09   0.10
  21   1    -0.38   0.00  -0.18     0.29  -0.01   0.14     0.26   0.01   0.10
  22   1    -0.00   0.01   0.10     0.02   0.00   0.17    -0.04   0.01  -0.12
  23   1    -0.00   0.00   0.06     0.01   0.00   0.08    -0.03  -0.01   0.02
  24   1    -0.01  -0.00  -0.04    -0.01  -0.00  -0.08    -0.01  -0.01   0.12
  25   1     0.01   0.00   0.14     0.02   0.01   0.22    -0.03  -0.02  -0.04
  26   1    -0.00   0.00   0.05     0.00   0.00   0.05    -0.03  -0.01  -0.01
  27   1    -0.01  -0.00  -0.12    -0.02  -0.01  -0.18    -0.00  -0.00  -0.03
  28   1     0.04  -0.07   0.05     0.10  -0.12   0.07    -0.08  -0.03   0.07
  29   1    -0.06   0.09   0.06    -0.08   0.11   0.08    -0.05   0.11   0.06
  30   1    -0.02   0.00  -0.10    -0.02  -0.01  -0.18    -0.03   0.07  -0.02
  31   1     0.03  -0.03  -0.01     0.01   0.03   0.01     0.08   0.00  -0.02
                     10                     11                     12
                        a                      a                      a 
 Frequencies --   221.7251               227.9442               254.1202
 Red. masses --    10.1651                 5.4053                 8.0732
 Frc consts  --     0.0000                 0.0000                 0.0000
 IR Inten    --     4.0813                 0.1609                 0.6356
 Raman Activ --     0.0000                 0.0000                 0.0000
 Depolar     --     0.0000                 0.0000                 0.0000
 Atom AN      X      Y      Z        X      Y      Z        X      Y      Z
   1   6    -0.10  -0.30  -0.16     0.31  -0.03   0.03    -0.29  -0.01  -0.03
   2   6    -0.01   0.15   0.00     0.01  -0.02  -0.08    -0.01   0.04   0.09
   3   1    -0.04   0.05   0.05    -0.01  -0.01  -0.03     0.02   0.01   0.04
   4   6     0.02   0.22   0.01     0.01   0.03  -0.04    -0.03  -0.04  -0.07
   5   6    -0.06   0.21   0.03     0.00   0.03   0.21    -0.01  -0.04  -0.14
   6   6    -0.11   0.06   0.02    -0.01   0.01   0.16     0.01  -0.02  -0.13
   7   6     0.00  -0.07  -0.01    -0.04  -0.00  -0.06     0.03  -0.01   0.05
   8   6    -0.01  -0.19  -0.02    -0.07  -0.03  -0.28     0.06   0.03   0.27
   9   6     0.03  -0.23   0.00    -0.05  -0.03  -0.12     0.04   0.04   0.09
  10   6     0.07  -0.22   0.01    -0.01  -0.02   0.06     0.02   0.04   0.19
  11   6     0.11  -0.13  -0.01     0.01   0.01   0.18    -0.00  -0.00   0.10
  12   6     0.07  -0.05  -0.02    -0.00   0.01   0.08    -0.01  -0.03  -0.12
  13   6     0.11   0.12  -0.02     0.01   0.03   0.02    -0.04  -0.06  -0.32
  14   8     0.14  -0.01  -0.00    -0.04  -0.01   0.10     0.00   0.02  -0.31
  15   6    -0.19   0.37   0.00    -0.09   0.04  -0.03     0.09  -0.05  -0.04
  16   6     0.03   0.09   0.01    -0.02  -0.02  -0.07     0.03   0.05   0.10
  17   8     0.10   0.08   0.25    -0.05  -0.01  -0.13     0.10   0.03   0.18
  18   8    -0.10  -0.10  -0.12    -0.02   0.00  -0.08     0.05   0.02   0.09
  19   1    -0.09  -0.12   0.01     0.13   0.03  -0.04    -0.14  -0.02   0.04
  20   1    -0.06  -0.15  -0.06     0.08  -0.04   0.07    -0.09   0.00  -0.08
  21   1     0.02  -0.09  -0.14     0.14  -0.01   0.03    -0.10  -0.00  -0.03
  22   1    -0.03   0.08   0.01     0.00   0.01   0.11     0.00  -0.02  -0.04
  23   1    -0.07   0.01   0.01    -0.00   0.00   0.08     0.00  -0.01  -0.05
  24   1    -0.03  -0.06  -0.00    -0.03  -0.01  -0.12     0.03   0.01   0.10
  25   1     0.02  -0.07   0.01    -0.00  -0.01   0.02     0.00   0.01   0.06
  26   1     0.06  -0.03  -0.00     0.01   0.00   0.09    -0.01  -0.00   0.04
  27   1     0.07   0.04  -0.01     0.00   0.01  -0.01    -0.02  -0.02  -0.14
  28   1    -0.11   0.10   0.01    -0.25   0.30  -0.21    -0.18   0.18  -0.14
  29   1    -0.12   0.11   0.01     0.14  -0.29  -0.23     0.23  -0.21  -0.16
  30   1     0.01   0.20  -0.02     0.02   0.04   0.40     0.04  -0.02   0.34
  31   1    -0.04  -0.07   0.00    -0.01   0.00  -0.02     0.03  -0.01   0.02
                     13                     14                     15
                        a                      a                      a 
 Frequencies --   282.1997               326.4642               370.6481
 Red. masses --    12.2721                10.7986                 9.6297
 Frc consts  --     0.0000                 0.0000                 0.0000
 IR Inten    --     5.8769                 1.3229                 0.5746
 Raman Activ --     0.0000                 0.0000                 0.0000
 Depolar     --     0.0000                 0.0000                 0.0000
 Atom AN      X      Y      Z        X      Y      Z        X      Y      Z
   1   6    -0.10   0.15   0.21    -0.04   0.04  -0.13     0.10  -0.02   0.03
   2   6    -0.19  -0.15   0.07     0.23  -0.15  -0.05     0.01   0.01  -0.00
   3   1    -0.10  -0.05  -0.03     0.08  -0.04  -0.04    -0.00   0.00  -0.00
   4   6    -0.06   0.15   0.02     0.21  -0.11   0.04     0.03   0.03   0.23
   5   6    -0.01   0.16  -0.03     0.18  -0.11   0.01     0.03   0.03   0.41
   6   6    -0.02   0.14  -0.07     0.18   0.01  -0.09    -0.07  -0.03  -0.45
   7   6     0.04   0.08  -0.01    -0.00   0.17  -0.02    -0.02  -0.04  -0.15
   8   6     0.03  -0.07   0.08    -0.11   0.02   0.07     0.03   0.01   0.30
   9   6     0.13  -0.18   0.03    -0.12  -0.04   0.05    -0.01   0.02  -0.03
  10   6     0.13  -0.18   0.03     0.07   0.00   0.01    -0.04   0.01  -0.25
  11   6     0.15  -0.05  -0.02     0.12   0.16  -0.03     0.01  -0.00   0.28
  12   6     0.02   0.08  -0.04     0.09   0.19  -0.04     0.01  -0.03   0.09
  13   6    -0.02   0.13  -0.05     0.07   0.04  -0.02     0.00  -0.00  -0.15
  14   8     0.21  -0.08  -0.08    -0.28  -0.24  -0.01    -0.01   0.03   0.00
  15   6     0.02   0.17  -0.01    -0.49   0.04   0.04     0.02  -0.01   0.00
  16   6    -0.14  -0.23   0.02     0.12  -0.10   0.01     0.02   0.01  -0.07
  17   8    -0.26  -0.24  -0.39    -0.09  -0.00   0.04    -0.03   0.04  -0.07
  18   8     0.08   0.02   0.22     0.02   0.04   0.13    -0.08  -0.05  -0.13
  19   1     0.02   0.05   0.02    -0.05   0.01  -0.01     0.05   0.00  -0.01
  20   1     0.00   0.12   0.08    -0.00   0.06  -0.11     0.03  -0.02   0.04
  21   1    -0.10   0.05   0.12    -0.06   0.02  -0.01     0.04  -0.01   0.01
  22   1     0.00   0.04  -0.00     0.05  -0.03   0.01     0.01   0.02   0.20
  23   1    -0.02   0.04  -0.03     0.11   0.02  -0.05    -0.04  -0.01  -0.26
  24   1    -0.04  -0.03   0.04    -0.05   0.00   0.03     0.03   0.01   0.18
  25   1     0.04  -0.06   0.01     0.04  -0.02   0.00    -0.02   0.00  -0.14
  26   1     0.09  -0.00  -0.01     0.06   0.05  -0.02     0.00   0.00   0.16
  27   1     0.01   0.04  -0.02    -0.03  -0.00  -0.01    -0.00  -0.00  -0.16
  28   1    -0.06   0.06  -0.01    -0.21   0.01   0.02     0.03  -0.03   0.02
  29   1    -0.01   0.03  -0.01    -0.19   0.01   0.01    -0.00   0.02   0.02
  30   1     0.05   0.10   0.02    -0.08   0.09   0.02    -0.00  -0.01  -0.03
  31   1     0.06   0.07  -0.00    -0.07   0.07   0.04    -0.05  -0.03  -0.01
                     16                     17                     18
                        a                      a                      a 
 Frequencies --   378.3506               407.1321               444.6906
 Red. masses --    10.9776                11.3621                 8.8864
 Frc consts  --     0.0000                 0.0000                 0.0000
 IR Inten    --     4.3816                 2.9326                 5.2625
 Raman Activ --     0.0000                 0.0000                 0.0000
 Depolar     --     0.0000                 0.0000                 0.0000
 Atom AN      X      Y      Z        X      Y      Z        X      Y      Z
   1   6    -0.11   0.01  -0.05    -0.00   0.00   0.18     0.02  -0.00  -0.06
   2   6    -0.01  -0.00  -0.01    -0.12   0.02   0.10     0.01   0.00  -0.04
   3   1    -0.00  -0.00  -0.00     0.04   0.02   0.08     0.01  -0.00  -0.02
   4   6    -0.05  -0.04  -0.30    -0.16  -0.27   0.02    -0.00  -0.02   0.06
   5   6    -0.00  -0.02  -0.14     0.03  -0.24   0.00    -0.01  -0.02   0.09
   6   6     0.04   0.02   0.16     0.16   0.13  -0.01    -0.03   0.01  -0.20
   7   6     0.01   0.04   0.08     0.00   0.28  -0.01     0.02   0.05   0.44
   8   6    -0.01   0.00  -0.10    -0.05   0.05   0.00    -0.05  -0.01  -0.28
   9   6    -0.02  -0.03  -0.34     0.13  -0.16  -0.02     0.02  -0.03   0.14
  10   6    -0.02  -0.03  -0.34     0.04  -0.16  -0.01    -0.01  -0.04   0.06
  11   6     0.06   0.02   0.43     0.07   0.06   0.01    -0.03  -0.01  -0.19
  12   6     0.01   0.04   0.17    -0.13   0.24  -0.00     0.01   0.05   0.48
  13   6    -0.05  -0.02  -0.29    -0.26  -0.12   0.03    -0.06  -0.00  -0.26
  14   8     0.04  -0.02   0.24     0.20  -0.17  -0.01     0.04   0.01  -0.01
  15   6    -0.00   0.01   0.03     0.01   0.07  -0.00     0.05   0.01  -0.00
  16   6    -0.03  -0.02   0.09    -0.07   0.22  -0.04     0.01  -0.02   0.01
  17   8     0.04  -0.05   0.10     0.17   0.15   0.04    -0.00  -0.01   0.05
  18   8     0.12   0.07   0.19    -0.10  -0.05  -0.31     0.03   0.03   0.05
  19   1    -0.07  -0.00   0.01     0.03   0.03   0.02     0.01  -0.00  -0.01
  20   1    -0.04   0.01  -0.06    -0.00  -0.02   0.09     0.01  -0.00  -0.01
  21   1    -0.04   0.00  -0.02     0.03   0.00   0.07     0.01  -0.00  -0.02
  22   1     0.01  -0.01  -0.03     0.06  -0.12  -0.00    -0.01  -0.01  -0.04
  23   1     0.02   0.01   0.09     0.12   0.05  -0.01    -0.02  -0.00  -0.24
  24   1    -0.01  -0.00   0.03    -0.10  -0.01   0.01    -0.05  -0.01  -0.27
  25   1    -0.01  -0.01  -0.13     0.01  -0.05  -0.00    -0.01  -0.02  -0.08
  26   1     0.04   0.01   0.25     0.10   0.04   0.00    -0.01  -0.01  -0.25
  27   1    -0.03  -0.01  -0.12    -0.15  -0.05   0.02    -0.05  -0.01  -0.27
  28   1     0.05  -0.02   0.03    -0.04   0.02   0.00     0.02  -0.00   0.00
  29   1    -0.06   0.03   0.03    -0.04   0.02   0.00     0.01   0.01   0.00
  30   1    -0.00   0.01  -0.07     0.04   0.08  -0.01     0.01  -0.00  -0.01
  31   1     0.07   0.05   0.01     0.03  -0.13  -0.04     0.00   0.03   0.00
                     19                     20                     21
                        a                      a                      a 
 Frequencies --   454.1689               502.3861               512.9577
 Red. masses --    11.0789                11.1157                10.7263
 Frc consts  --     0.0000                 0.0000                 0.0000
 IR Inten    --     9.8699                 4.6052                 4.9563
 Raman Activ --     0.0000                 0.0000                 0.0000
 Depolar     --     0.0000                 0.0000                 0.0000
 Atom AN      X      Y      Z        X      Y      Z        X      Y      Z
   1   6    -0.13  -0.01   0.31    -0.04   0.01   0.13     0.02   0.01  -0.12
   2   6    -0.14   0.03   0.21     0.10  -0.10   0.11    -0.19   0.12  -0.12
   3   1    -0.04   0.01   0.11     0.02  -0.02   0.05    -0.05   0.03  -0.04
   4   6    -0.01   0.08   0.03     0.14   0.11   0.10    -0.15   0.07  -0.19
   5   6     0.08   0.08  -0.10     0.32   0.15  -0.14     0.29   0.15   0.11
   6   6     0.07  -0.04   0.04     0.26   0.02   0.03     0.27   0.07  -0.10
   7   6     0.17  -0.15   0.14     0.13   0.04   0.09     0.23  -0.01  -0.17
   8   6     0.17   0.04  -0.10     0.00  -0.27  -0.01     0.22  -0.03   0.00
   9   6     0.01   0.18  -0.07    -0.16  -0.16  -0.10     0.11   0.04   0.18
  10   6     0.14   0.22  -0.03    -0.36  -0.21   0.05    -0.19  -0.01  -0.00
  11   6     0.08  -0.01   0.01    -0.25   0.03   0.05    -0.23  -0.08  -0.00
  12   6     0.18  -0.15   0.05    -0.12   0.00  -0.04    -0.12  -0.10   0.11
  13   6     0.16  -0.09  -0.14    -0.03   0.21  -0.08    -0.10   0.02   0.10
  14   8    -0.17  -0.13   0.06    -0.07   0.17   0.04    -0.00  -0.20  -0.05
  15   6    -0.27  -0.07   0.03     0.09  -0.03  -0.00    -0.15  -0.07   0.01
  16   6    -0.10   0.13   0.01     0.13   0.02  -0.03    -0.20   0.02   0.03
  17   8     0.02   0.07  -0.20    -0.01   0.10  -0.09     0.04  -0.10   0.13
  18   8    -0.14  -0.14  -0.23    -0.08  -0.08  -0.12     0.08   0.12   0.11
  19   1    -0.03   0.01   0.08    -0.02   0.02   0.04     0.02  -0.01  -0.04
  20   1    -0.04   0.00   0.10    -0.00   0.04  -0.00    -0.00  -0.04   0.02
  21   1    -0.04  -0.00   0.11    -0.05   0.01   0.08     0.04  -0.00  -0.08
  22   1     0.02   0.02  -0.07     0.08   0.05  -0.09     0.13   0.00   0.11
  23   1    -0.02  -0.02  -0.01     0.06   0.00  -0.01     0.05   0.02   0.02
  24   1     0.13   0.03  -0.07    -0.05  -0.09   0.02     0.07  -0.01  -0.03
  25   1     0.02   0.08  -0.01    -0.07  -0.09   0.05    -0.10   0.04  -0.07
  26   1    -0.04  -0.02  -0.00    -0.04   0.01   0.04    -0.08  -0.03  -0.06
  27   1     0.09  -0.01  -0.08     0.01   0.06  -0.04     0.02   0.02   0.06
  28   1    -0.10  -0.02   0.01     0.08  -0.01  -0.01    -0.09  -0.02   0.01
  29   1    -0.11  -0.02   0.01     0.07  -0.01  -0.01    -0.08  -0.01   0.01
  30   1    -0.05   0.02  -0.00    -0.02  -0.08   0.00    -0.00   0.04  -0.00
  31   1     0.03  -0.17  -0.02    -0.13  -0.04   0.05     0.21   0.03  -0.08
                     22                     23                     24
                        a                      a                      a 
 Frequencies --   546.4709               565.9328               604.6783
 Red. masses --    10.5264                 9.7454                 6.6180
 Frc consts  --     0.0000                 0.0000                 0.0000
 IR Inten    --    52.5750                31.5016               125.0532
 Raman Activ --     0.0000                 0.0000                 0.0000
 Depolar     --     0.0000                 0.0000                 0.0000
 Atom AN      X      Y      Z        X      Y      Z        X      Y      Z
   1   6     0.06   0.01  -0.07     0.07   0.01  -0.15    -0.03  -0.01   0.09
   2   6     0.03  -0.02  -0.05    -0.13   0.16  -0.11    -0.15  -0.05  -0.03
   3   1    -0.01  -0.01  -0.04    -0.02   0.04  -0.07    -0.07  -0.02  -0.01
   4   6     0.00   0.07   0.29    -0.10  -0.05   0.29    -0.17  -0.01   0.04
   5   6     0.03   0.05  -0.08    -0.05  -0.02   0.02    -0.13   0.05  -0.04
   6   6    -0.00  -0.09   0.02     0.03   0.19  -0.05    -0.04   0.26   0.04
   7   6    -0.04  -0.02   0.19     0.18   0.04   0.20     0.16   0.01  -0.06
   8   6     0.06   0.30   0.01     0.08  -0.20   0.06     0.14  -0.13  -0.04
   9   6     0.21   0.10  -0.32    -0.13  -0.06  -0.39     0.01   0.01   0.12
  10   6    -0.00   0.08   0.08    -0.02  -0.02   0.14    -0.05   0.03  -0.05
  11   6    -0.15  -0.24  -0.01     0.03   0.17  -0.11    -0.01   0.12   0.05
  12   6    -0.24  -0.09  -0.12     0.13   0.02  -0.17     0.09  -0.02  -0.01
  13   6    -0.17   0.14  -0.02     0.06  -0.23   0.04     0.01  -0.22  -0.03
  14   8     0.20  -0.31   0.06    -0.10   0.11   0.09    -0.03  -0.02  -0.02
  15   6    -0.06  -0.01   0.01    -0.02  -0.02   0.01    -0.05  -0.03   0.00
  16   6     0.14  -0.07  -0.07    -0.17  -0.02   0.01     0.16  -0.10  -0.18
  17   8    -0.02   0.01   0.06    -0.02  -0.11   0.05     0.04  -0.03   0.18
  18   8     0.03   0.03  -0.00     0.02   0.07   0.09     0.19   0.06  -0.12
  19   1     0.04   0.00  -0.04     0.05  -0.03  -0.05     0.05   0.02  -0.04
  20   1     0.02   0.00   0.01     0.01  -0.06   0.05     0.00   0.00   0.08
  21   1     0.02   0.00  -0.02     0.08  -0.01  -0.12     0.00  -0.00   0.07
  22   1    -0.02   0.03  -0.14     0.02  -0.06  -0.13     0.01  -0.03  -0.01
  23   1    -0.03  -0.03  -0.09     0.00   0.05  -0.15    -0.03   0.07   0.03
  24   1     0.03   0.09   0.06     0.03  -0.05   0.11     0.05  -0.03  -0.03
  25   1    -0.07   0.12   0.15     0.05  -0.04   0.21    -0.00  -0.01  -0.06
  26   1    -0.05  -0.07   0.09     0.03   0.05   0.08    -0.01   0.03  -0.00
  27   1    -0.04   0.04  -0.07     0.01  -0.07  -0.06     0.02  -0.06  -0.00
  28   1    -0.09   0.01   0.00     0.03   0.00  -0.01    -0.02  -0.01   0.00
  29   1    -0.11  -0.01   0.01     0.01  -0.02  -0.00    -0.01  -0.00   0.00
  30   1     0.06   0.11  -0.01    -0.03  -0.04   0.01    -0.01  -0.00  -0.00
  31   1    -0.16   0.11   0.04     0.22  -0.00  -0.09    -0.57   0.37   0.13
                     25                     26                     27
                        a                      a                      a 
 Frequencies --   624.2860               638.9019               673.2571
 Red. masses --    11.1934                10.0589                10.0969
 Frc consts  --     0.0000                 0.0000                 0.0000
 IR Inten    --    38.8261                39.3552                23.0762
 Raman Activ --     0.0000                 0.0000                 0.0000
 Depolar     --     0.0000                 0.0000                 0.0000
 Atom AN      X      Y      Z        X      Y      Z        X      Y      Z
   1   6    -0.09  -0.05   0.17    -0.03  -0.00   0.03     0.00  -0.04   0.06
   2   6    -0.14  -0.34  -0.07     0.04   0.06   0.06     0.18  -0.22   0.03
   3   1    -0.06  -0.09   0.04     0.02   0.02   0.04     0.02  -0.06   0.03
   4   6     0.04   0.04  -0.15    -0.04  -0.02  -0.49     0.03  -0.01  -0.12
   5   6     0.11   0.04   0.07     0.01  -0.00   0.21    -0.25   0.04   0.03
   6   6     0.02  -0.16  -0.08    -0.02   0.01  -0.20    -0.19   0.26  -0.02
   7   6    -0.07  -0.05   0.06     0.01   0.01   0.06     0.08   0.00  -0.02
   8   6    -0.07   0.01   0.07     0.02   0.01   0.16     0.13  -0.06   0.02
   9   6    -0.08  -0.00  -0.18    -0.03  -0.02  -0.42     0.07  -0.00  -0.08
  10   6     0.14  -0.00   0.08    -0.00   0.01   0.23    -0.24   0.06   0.07
  11   6     0.11  -0.08  -0.10    -0.04   0.00  -0.22    -0.21   0.23  -0.03
  12   6     0.02   0.00   0.04     0.01   0.01   0.18     0.06  -0.01   0.07
  13   6     0.02   0.14   0.06     0.02  -0.00   0.14     0.10  -0.11  -0.00
  14   8    -0.08   0.12   0.04     0.02  -0.02   0.07     0.18  -0.23   0.00
  15   6     0.01   0.02   0.00     0.00  -0.00   0.01     0.02  -0.02   0.00
  16   6    -0.07  -0.03  -0.28    -0.02   0.07   0.15     0.32  -0.11  -0.11
  17   8     0.07  -0.08   0.40     0.04   0.05  -0.16    -0.08   0.11   0.06
  18   8     0.01   0.30  -0.22     0.09  -0.16   0.04    -0.19   0.09   0.00
  19   1     0.04   0.08  -0.05    -0.05  -0.01   0.05    -0.02   0.04   0.01
  20   1     0.01   0.07   0.05    -0.02  -0.00  -0.04     0.02   0.07  -0.08
  21   1    -0.07   0.00   0.22    -0.02  -0.00  -0.01    -0.07   0.00   0.12
  22   1     0.00   0.05   0.05     0.02  -0.00   0.18    -0.07   0.02   0.07
  23   1    -0.00  -0.05  -0.03    -0.00   0.00  -0.02    -0.07   0.07   0.03
  24   1    -0.01   0.01   0.05     0.01   0.00   0.09     0.04  -0.02   0.01
  25   1     0.06  -0.01   0.08     0.01   0.01   0.15    -0.08   0.03   0.02
  26   1     0.03  -0.02  -0.01    -0.01   0.00  -0.06    -0.08   0.06  -0.02
  27   1     0.01   0.04   0.01     0.01   0.00   0.08     0.03  -0.03   0.03
  28   1     0.04   0.01  -0.00     0.00   0.01  -0.00    -0.06  -0.00   0.00
  29   1     0.03  -0.00  -0.00    -0.01  -0.01  -0.00    -0.06  -0.00   0.01
  30   1    -0.03  -0.04   0.00     0.00   0.01   0.00     0.06   0.08  -0.01
  31   1     0.16   0.16  -0.19    -0.30   0.03   0.16     0.30  -0.17  -0.10
                     28                     29                     30
                        a                      a                      a 
 Frequencies --   716.3251               728.8927               773.0421
 Red. masses --    11.4192                11.6195                10.3310
 Frc consts  --     0.0000                 0.0000                 0.0000
 IR Inten    --    12.9306               134.4194                 5.8191
 Raman Activ --     0.0000                 0.0000                 0.0000
 Depolar     --     0.0000                 0.0000                 0.0000
 Atom AN      X      Y      Z        X      Y      Z        X      Y      Z
   1   6    -0.01  -0.01   0.01    -0.00  -0.01   0.01     0.08  -0.04  -0.08
   2   6     0.04  -0.05   0.00     0.03  -0.04  -0.01     0.26  -0.31  -0.01
   3   1     0.02  -0.01   0.03     0.04  -0.00   0.04     0.13  -0.07   0.08
   4   6     0.03  -0.00  -0.23     0.18   0.03   0.13     0.08  -0.05   0.05
   5   6    -0.01   0.00   0.21    -0.02  -0.04  -0.04    -0.13   0.07   0.02
   6   6    -0.05  -0.03  -0.18    -0.06  -0.24   0.10    -0.07   0.42   0.07
   7   6     0.04   0.00   0.54    -0.10  -0.08  -0.15     0.07   0.09  -0.08
   8   6    -0.01  -0.02  -0.17    -0.03  -0.05   0.03     0.05   0.06  -0.03
   9   6     0.03   0.00   0.20    -0.00  -0.03  -0.02     0.05   0.03   0.04
  10   6    -0.08   0.01  -0.19    -0.20   0.07   0.05     0.02  -0.06  -0.03
  11   6    -0.03   0.11   0.17    -0.14   0.41  -0.04    -0.02  -0.34  -0.02
  12   6    -0.02  -0.01  -0.53     0.12   0.08   0.10    -0.06  -0.10   0.04
  13   6     0.06   0.03   0.18     0.15   0.08  -0.06     0.02  -0.03   0.03
  14   8     0.06  -0.07  -0.02     0.22  -0.23  -0.02    -0.10   0.11  -0.01
  15   6     0.02   0.00  -0.00     0.09   0.02  -0.01    -0.06  -0.03   0.01
  16   6    -0.13   0.06   0.03    -0.48   0.15   0.05    -0.38   0.20   0.12
  17   8     0.04  -0.03  -0.00     0.10  -0.16   0.02     0.12  -0.04  -0.02
  18   8     0.04  -0.01  -0.03     0.14  -0.00  -0.11     0.09  -0.04  -0.06
  19   1    -0.02   0.01   0.01    -0.02   0.00   0.01    -0.04   0.05  -0.01
  20   1     0.00   0.02  -0.04    -0.00   0.01  -0.02     0.05   0.10  -0.19
  21   1    -0.03   0.00   0.03    -0.01  -0.00   0.01    -0.09   0.01   0.12
  22   1    -0.02   0.02   0.01    -0.07   0.05  -0.06    -0.03   0.00  -0.09
  23   1    -0.02  -0.01  -0.11    -0.02  -0.07  -0.01    -0.03   0.12  -0.08
  24   1    -0.01  -0.01  -0.09    -0.01  -0.01   0.04     0.01   0.02   0.06
  25   1    -0.01   0.00   0.03    -0.03  -0.00   0.00    -0.04   0.03   0.06
  26   1    -0.01   0.03   0.11    -0.05   0.11  -0.00    -0.01  -0.09   0.06
  27   1     0.02   0.01   0.11     0.03   0.02  -0.08     0.00  -0.01  -0.10
  28   1    -0.02   0.00   0.00    -0.04   0.01   0.00     0.01  -0.01  -0.00
  29   1    -0.01   0.00   0.00    -0.04   0.01   0.00     0.01  -0.01  -0.00
  30   1     0.02   0.03   0.00     0.09   0.09  -0.01    -0.04  -0.05   0.01
  31   1    -0.04   0.03   0.01    -0.10   0.14  -0.02    -0.03  -0.00   0.01
                     31                     32                     33
                        a                      a                      a 
 Frequencies --   794.6286               824.2656               836.9838
 Red. masses --     5.0814                 9.3352                 5.2652
 Frc consts  --     0.0000                 0.0000                 0.0000
 IR Inten    --    18.4143                 3.3646                36.2038
 Raman Activ --     0.0000                 0.0000                 0.0000
 Depolar     --     0.0000                 0.0000                 0.0000
 Atom AN      X      Y      Z        X      Y      Z        X      Y      Z
   1   6     0.03   0.01  -0.02    -0.03   0.03   0.17    -0.04  -0.00   0.07
   2   6     0.08  -0.01   0.02     0.09   0.24   0.10    -0.03   0.05  -0.00
   3   1     0.04  -0.00   0.01     0.03   0.06  -0.00    -0.03   0.01  -0.01
   4   6     0.05  -0.00   0.17     0.09   0.02  -0.02    -0.00   0.01  -0.19
   5   6    -0.03   0.01  -0.09     0.08   0.02  -0.06     0.07   0.03   0.18
   6   6    -0.02   0.08  -0.15     0.07   0.14  -0.07     0.06   0.04   0.23
   7   6     0.01   0.04   0.10    -0.12   0.16   0.05    -0.07   0.05  -0.14
   8   6     0.00   0.05   0.18    -0.27   0.30  -0.03    -0.12   0.12   0.04
   9   6    -0.02  -0.01  -0.24    -0.01  -0.03   0.06    -0.02  -0.02  -0.09
  10   6     0.00  -0.01   0.22    -0.15  -0.11  -0.07    -0.03  -0.03   0.22
  11   6     0.00  -0.06   0.22    -0.10  -0.16  -0.06    -0.02  -0.03   0.14
  12   6    -0.02  -0.03  -0.15     0.11  -0.13   0.07     0.04  -0.06  -0.16
  13   6     0.02  -0.03  -0.15     0.30  -0.26  -0.06     0.14  -0.11   0.17
  14   8    -0.00   0.01   0.06     0.02  -0.03  -0.01     0.01  -0.02   0.02
  15   6    -0.00  -0.00   0.01     0.07   0.04  -0.01     0.04   0.02  -0.00
  16   6    -0.14   0.02  -0.01    -0.03  -0.13  -0.13     0.07  -0.04  -0.02
  17   8     0.01  -0.07   0.01    -0.09  -0.16   0.03    -0.02   0.00   0.01
  18   8     0.02   0.01  -0.05    -0.02   0.07  -0.11    -0.01   0.01   0.00
  19   1    -0.01  -0.01   0.01    -0.08  -0.08   0.14    -0.01  -0.01   0.03
  20   1     0.01  -0.00  -0.02    -0.04  -0.06   0.04    -0.01  -0.01   0.02
  21   1     0.00   0.00  -0.01     0.03  -0.01  -0.10    -0.00  -0.00  -0.00
  22   1     0.02   0.00   0.20     0.06  -0.02   0.11    -0.01  -0.01  -0.39
  23   1     0.03   0.03   0.26     0.10   0.06   0.09    -0.00   0.00  -0.43
  24   1    -0.05  -0.00  -0.33    -0.17   0.06   0.08    -0.08   0.02   0.01
  25   1    -0.06  -0.01  -0.43    -0.05   0.01   0.19    -0.06  -0.02  -0.40
  26   1    -0.04  -0.03  -0.36    -0.06  -0.06   0.12    -0.05  -0.02  -0.21
  27   1     0.04   0.01   0.29     0.16  -0.06   0.05     0.05  -0.04  -0.24
  28   1     0.01  -0.00   0.00     0.01   0.01  -0.00     0.01  -0.00   0.00
  29   1    -0.00   0.00   0.01     0.01   0.01  -0.00     0.00   0.01   0.00
  30   1    -0.01  -0.01  -0.02     0.02   0.01   0.01     0.01   0.01  -0.02
  31   1     0.00   0.05  -0.04     0.03   0.14  -0.12     0.00   0.00  -0.00
                     34                     35                     36
                        a                      a                      a 
 Frequencies --   862.4857               866.0191               874.7526
 Red. masses --     8.1801                 4.3105                 3.6341
 Frc consts  --     0.0000                 0.0000                 0.0000
 IR Inten    --     7.8538                18.0079                 1.9093
 Raman Activ --     0.0000                 0.0000                 0.0000
 Depolar     --     0.0000                 0.0000                 0.0000
 Atom AN      X      Y      Z        X      Y      Z        X      Y      Z
   1   6    -0.04  -0.06  -0.19     0.01   0.02   0.09    -0.01  -0.01  -0.04
   2   6    -0.25  -0.25  -0.15     0.10   0.11   0.06    -0.04  -0.05  -0.02
   3   1    -0.10  -0.06  -0.00     0.04   0.03   0.00    -0.01  -0.01  -0.01
   4   6    -0.08   0.05   0.07     0.03  -0.02  -0.07    -0.01   0.01  -0.01
   5   6     0.15   0.17  -0.06    -0.06  -0.07   0.05     0.04   0.03   0.14
   6   6     0.06  -0.01  -0.05    -0.02   0.01   0.07     0.03   0.00   0.18
   7   6    -0.12   0.03  -0.00     0.03  -0.01  -0.11    -0.02   0.00  -0.04
   8   6    -0.20   0.15   0.17     0.12  -0.04   0.37    -0.02   0.02   0.07
   9   6    -0.07  -0.03  -0.00     0.03   0.01  -0.03    -0.01  -0.00   0.02
  10   6    -0.04   0.01  -0.06    -0.00  -0.01  -0.12    -0.01   0.00  -0.08
  11   6    -0.02   0.03  -0.04    -0.01  -0.02  -0.11    -0.00   0.01  -0.04
  12   6     0.11  -0.09  -0.02    -0.04   0.03  -0.02     0.02  -0.01   0.09
  13   6     0.15  -0.24   0.05    -0.04   0.10   0.09    -0.02  -0.05  -0.38
  14   8     0.03  -0.08   0.01    -0.01   0.03   0.02     0.00  -0.01  -0.00
  15   6     0.09   0.05  -0.01    -0.04  -0.02   0.01     0.01   0.01  -0.00
  16   6     0.05   0.14   0.13    -0.01  -0.06  -0.05     0.01   0.02   0.02
  17   8     0.11   0.20  -0.02    -0.05  -0.08   0.01     0.02   0.03  -0.00
  18   8     0.03  -0.07   0.15    -0.01   0.03  -0.06     0.00  -0.01   0.02
  19   1     0.14   0.12  -0.24    -0.07  -0.06   0.11     0.03   0.02  -0.04
  20   1     0.04   0.06   0.05    -0.02  -0.03  -0.02     0.01   0.01   0.01
  21   1    -0.02   0.00   0.16     0.01  -0.00  -0.07    -0.00   0.00   0.02
  22   1     0.06   0.04   0.04    -0.03  -0.02  -0.10    -0.01   0.00  -0.18
  23   1     0.02   0.00   0.12    -0.01  -0.00  -0.07    -0.04  -0.01  -0.40
  24   1    -0.16   0.01  -0.29    -0.02  -0.03  -0.73    -0.03  -0.00  -0.10
  25   1     0.01  -0.00   0.08     0.01   0.01   0.13     0.01   0.00   0.13
  26   1    -0.04   0.00   0.11     0.04   0.01   0.27    -0.00   0.00   0.04
  27   1     0.09  -0.06  -0.14    -0.05   0.01  -0.17     0.09   0.02   0.72
  28   1     0.01   0.01  -0.00     0.00   0.00  -0.00     0.00   0.00  -0.00
  29   1     0.00   0.01  -0.00    -0.01  -0.01  -0.00    -0.00  -0.00  -0.00
  30   1     0.04   0.03  -0.00    -0.01  -0.01   0.00     0.01   0.01   0.00
  31   1    -0.03  -0.18   0.15     0.01   0.07  -0.06    -0.00  -0.03   0.02
                     37                     38                     39
                        a                      a                      a 
 Frequencies --   904.2121               923.9552               927.2380
 Red. masses --     3.4030                 8.1834                 5.5350
 Frc consts  --     0.0000                 0.0000                 0.0000
 IR Inten    --     0.9066                43.9504                16.1233
 Raman Activ --     0.0000                 0.0000                 0.0000
 Depolar     --     0.0000                 0.0000                 0.0000
 Atom AN      X      Y      Z        X      Y      Z        X      Y      Z
   1   6    -0.00   0.00   0.01    -0.11  -0.02   0.01     0.05   0.02   0.02
   2   6    -0.00   0.01  -0.00    -0.15   0.00  -0.09     0.10  -0.01   0.05
   3   1    -0.00   0.00  -0.00    -0.09  -0.00  -0.05     0.06  -0.00   0.01
   4   6     0.00  -0.00  -0.02     0.18   0.02  -0.01    -0.10  -0.02   0.00
   5   6    -0.00  -0.01   0.04    -0.15  -0.24   0.21     0.13   0.15   0.28
   6   6    -0.00   0.00   0.00    -0.06  -0.05  -0.15     0.01   0.04  -0.23
   7   6    -0.01  -0.00  -0.08     0.07   0.04  -0.02    -0.05  -0.02  -0.02
   8   6     0.01   0.01   0.08     0.14   0.23  -0.03    -0.10  -0.17   0.00
   9   6     0.00  -0.00  -0.04     0.22   0.01  -0.01    -0.16  -0.00   0.02
  10   6    -0.03  -0.02  -0.28    -0.20  -0.31   0.04     0.14   0.23  -0.01
  11   6     0.03   0.01   0.34    -0.04  -0.01  -0.02     0.02  -0.01  -0.04
  12   6     0.00   0.00  -0.01     0.09   0.05   0.03    -0.05  -0.04   0.06
  13   6     0.01   0.01   0.05     0.16   0.14  -0.08    -0.10  -0.08  -0.06
  14   8    -0.00   0.00  -0.00    -0.03   0.17  -0.00     0.01  -0.12   0.00
  15   6    -0.00  -0.00   0.00    -0.18  -0.09   0.02     0.13   0.07  -0.01
  16   6     0.01  -0.00  -0.00     0.02   0.03   0.03     0.00  -0.02  -0.02
  17   8    -0.00  -0.00   0.00     0.02   0.04   0.00    -0.02  -0.02   0.00
  18   8    -0.00   0.00  -0.00     0.01  -0.01   0.05    -0.01   0.00  -0.03
  19   1    -0.00  -0.00   0.00     0.08   0.02  -0.10    -0.05  -0.02   0.07
  20   1    -0.00  -0.00   0.00    -0.02  -0.03   0.15     0.01   0.02  -0.08
  21   1     0.00  -0.00  -0.00     0.03  -0.01   0.03    -0.01   0.00  -0.03
  22   1    -0.01  -0.00  -0.10    -0.12  -0.04  -0.36    -0.00   0.00  -0.59
  23   1     0.00   0.00   0.02     0.10   0.01   0.30     0.01   0.02   0.44
  24   1    -0.00  -0.00  -0.06     0.07   0.07   0.01    -0.05  -0.05   0.03
  25   1     0.05   0.02   0.55    -0.07  -0.07  -0.01     0.04   0.05  -0.03
  26   1    -0.06  -0.02  -0.67     0.10   0.02   0.04    -0.07  -0.02   0.06
  27   1    -0.01  -0.00  -0.09     0.08   0.05   0.04    -0.04  -0.02   0.06
  28   1     0.01   0.01  -0.01     0.01  -0.02  -0.00    -0.01   0.01   0.00
  29   1    -0.01  -0.01  -0.00     0.01  -0.02   0.00    -0.00   0.01  -0.00
  30   1    -0.00  -0.00   0.02    -0.09  -0.09   0.01     0.06   0.06  -0.01
  31   1     0.00   0.00  -0.00    -0.01  -0.04   0.04     0.01   0.03  -0.03
                     40                     41                     42
                        a                      a                      a 
 Frequencies --   952.0106              1023.7242              1049.3633
 Red. masses --     9.2410                 4.9328                10.9160
 Frc consts  --     0.0000                 0.0000                 0.0000
 IR Inten    --     4.3286                31.5642                76.0132
 Raman Activ --     0.0000                 0.0000                 0.0000
 Depolar     --     0.0000                 0.0000                 0.0000
 Atom AN      X      Y      Z        X      Y      Z        X      Y      Z
   1   6    -0.15   0.01   0.04     0.18  -0.15  -0.25     0.02   0.01   0.01
   2   6    -0.14   0.03  -0.11    -0.08   0.26   0.23    -0.01  -0.02  -0.01
   3   1    -0.06  -0.00  -0.09    -0.22   0.11   0.46    -0.01  -0.01  -0.03
   4   6     0.25  -0.03  -0.02    -0.06   0.11   0.02    -0.01   0.00   0.00
   5   6    -0.13  -0.34   0.00    -0.06  -0.21   0.02    -0.03  -0.02   0.00
   6   6     0.05   0.22   0.00     0.06  -0.05  -0.01    -0.01   0.01   0.00
   7   6     0.02   0.09  -0.00     0.03   0.05  -0.01     0.09  -0.07  -0.01
   8   6    -0.07  -0.27   0.02    -0.01  -0.02   0.00     0.08   0.16  -0.01
   9   6    -0.18   0.02   0.02    -0.03   0.01   0.00    -0.13   0.12   0.01
  10   6     0.07   0.28  -0.02    -0.00   0.01   0.00    -0.09  -0.24   0.02
  11   6    -0.06  -0.22   0.01    -0.02  -0.03   0.00     0.04  -0.02  -0.00
  12   6     0.01  -0.08  -0.00     0.04  -0.01   0.00     0.02   0.04  -0.00
  13   6     0.11   0.31  -0.02     0.02   0.06  -0.01    -0.02   0.03   0.00
  14   8    -0.00  -0.15   0.01    -0.02  -0.02   0.00    -0.49  -0.32   0.06
  15   6     0.17   0.07  -0.02     0.03   0.01  -0.00     0.45   0.28  -0.05
  16   6     0.01   0.02   0.03     0.04  -0.06  -0.06    -0.00   0.00   0.01
  17   8     0.02   0.03   0.00    -0.06  -0.06  -0.02     0.00  -0.00   0.00
  18   8     0.01   0.00   0.03    -0.04  -0.07   0.02     0.00   0.02  -0.01
  19   1     0.09   0.00  -0.09     0.01   0.18  -0.13    -0.02  -0.01   0.03
  20   1    -0.04  -0.07   0.22     0.12   0.23  -0.29    -0.00  -0.00  -0.02
  21   1     0.07  -0.01  -0.01    -0.17   0.01   0.29    -0.00   0.00  -0.02
  22   1    -0.00  -0.12   0.05     0.00  -0.09  -0.02     0.00  -0.01   0.00
  23   1     0.20   0.10  -0.05     0.16   0.01  -0.01    -0.02  -0.00   0.00
  24   1    -0.04  -0.08   0.01    -0.01  -0.01   0.00     0.32   0.12  -0.03
  25   1    -0.03   0.13  -0.00    -0.01   0.01   0.00     0.03  -0.13   0.00
  26   1    -0.18  -0.10   0.02    -0.02  -0.01   0.00     0.19   0.03  -0.02
  27   1     0.07   0.09  -0.01     0.07   0.03  -0.01    -0.02   0.01   0.00
  28   1    -0.02   0.01   0.00    -0.00   0.00   0.00    -0.02   0.04   0.01
  29   1    -0.02   0.01   0.00    -0.00   0.00   0.00    -0.02   0.04  -0.01
  30   1     0.09   0.09  -0.01     0.02   0.01  -0.00     0.15   0.15  -0.02
  31   1    -0.01  -0.04   0.04     0.02   0.14  -0.10    -0.01  -0.02   0.01
                     43                     44                     45
                        a                      a                      a 
 Frequencies --  1064.0469              1096.9529              1113.8741
 Red. masses --     4.6383                 9.9387                 3.6844
 Frc consts  --     0.0000                 0.0000                 0.0000
 IR Inten    --    91.0532               192.0193                 2.8085
 Raman Activ --     0.0000                 0.0000                 0.0000
 Depolar     --     0.0000                 0.0000                 0.0000
 Atom AN      X      Y      Z        X      Y      Z        X      Y      Z
   1   6    -0.30  -0.04  -0.10     0.03  -0.17   0.32     0.00  -0.00   0.00
   2   6     0.22   0.12   0.08     0.04   0.11  -0.45    -0.00  -0.00  -0.00
   3   1     0.31   0.07   0.23    -0.08   0.02  -0.19    -0.00  -0.00  -0.00
   4   6     0.07  -0.11  -0.06    -0.02   0.04   0.06    -0.00   0.00  -0.00
   5   6     0.05   0.14   0.00    -0.01  -0.02  -0.01     0.00  -0.00   0.00
   6   6    -0.03   0.04   0.01     0.02  -0.03  -0.01     0.00  -0.00   0.00
   7   6    -0.01  -0.03  -0.00     0.01   0.02   0.00    -0.00  -0.00  -0.00
   8   6     0.02  -0.00  -0.00     0.00  -0.01   0.00     0.00  -0.00   0.00
   9   6    -0.00   0.01   0.00    -0.01   0.01   0.00     0.00  -0.00   0.00
  10   6     0.00  -0.01  -0.00     0.01   0.00   0.00     0.00   0.00  -0.00
  11   6     0.01  -0.00  -0.00    -0.00  -0.01   0.00    -0.00   0.00   0.00
  12   6    -0.06   0.04   0.01    -0.01   0.01  -0.01     0.00  -0.00   0.00
  13   6    -0.03  -0.05   0.01    -0.02  -0.03  -0.01     0.00   0.00   0.00
  14   8    -0.03  -0.02   0.00    -0.00  -0.00  -0.00     0.02   0.01   0.22
  15   6     0.02   0.02  -0.00     0.00  -0.00   0.00    -0.04  -0.01  -0.42
  16   6    -0.01   0.01  -0.08    -0.03   0.12  -0.16    -0.00   0.00  -0.00
  17   8    -0.01   0.01  -0.05     0.12   0.25  -0.04     0.00   0.00  -0.00
  18   8    -0.07  -0.22   0.12    -0.06  -0.36   0.30    -0.00  -0.00   0.00
  19   1     0.25   0.10  -0.33    -0.13  -0.01   0.18    -0.00  -0.00   0.00
  20   1    -0.04  -0.05   0.39     0.02   0.05  -0.13     0.00   0.00  -0.00
  21   1     0.12  -0.01   0.13    -0.15  -0.03   0.16    -0.00  -0.00  -0.00
  22   1    -0.02   0.08  -0.01    -0.02   0.02   0.02    -0.00   0.00  -0.00
  23   1    -0.12  -0.01   0.00     0.04  -0.00   0.00     0.00  -0.00  -0.00
  24   1     0.04   0.01  -0.00     0.01  -0.00  -0.00    -0.00  -0.00  -0.01
  25   1     0.00  -0.00   0.00     0.00   0.00  -0.00     0.00   0.00   0.02
  26   1     0.04   0.01  -0.00     0.01  -0.00  -0.00    -0.00  -0.00  -0.00
  27   1    -0.08  -0.03  -0.00    -0.01  -0.01   0.02    -0.00  -0.00  -0.00
  28   1    -0.00   0.00   0.00    -0.00   0.00  -0.00    -0.41  -0.38   0.22
  29   1    -0.00   0.00  -0.00    -0.00  -0.00   0.00     0.44   0.39   0.12
  30   1     0.01   0.01  -0.00     0.01   0.01  -0.00     0.02   0.01   0.23
  31   1     0.08   0.28  -0.22     0.08   0.30  -0.20     0.00   0.00  -0.00
                     46                     47                     48
                        a                      a                      a 
 Frequencies --  1122.5762              1137.3658              1148.7823
 Red. masses --     8.1718                 5.6813                 6.2880
 Frc consts  --     0.0000                 0.0000                 0.0000
 IR Inten    --    97.3925                14.6210               323.1713
 Raman Activ --     0.0000                 0.0000                 0.0000
 Depolar     --     0.0000                 0.0000                 0.0000
 Atom AN      X      Y      Z        X      Y      Z        X      Y      Z
   1   6    -0.13  -0.29   0.16     0.02   0.05  -0.03    -0.03  -0.06   0.04
   2   6     0.19   0.37  -0.32    -0.05  -0.05   0.06     0.08   0.05  -0.08
   3   1     0.01   0.10  -0.05    -0.04  -0.02   0.01     0.14   0.02   0.01
   4   6     0.09  -0.04   0.02     0.02   0.00  -0.01    -0.11   0.00   0.02
   5   6     0.03   0.06  -0.01     0.02   0.03  -0.00     0.03  -0.01  -0.00
   6   6    -0.00  -0.03  -0.00    -0.01  -0.05   0.00     0.03   0.16  -0.01
   7   6     0.02   0.04  -0.00    -0.02   0.06  -0.00    -0.18  -0.14   0.02
   8   6     0.02  -0.05   0.00    -0.04  -0.11   0.01    -0.09   0.10   0.00
   9   6     0.02   0.01  -0.00    -0.08   0.13   0.00    -0.30   0.06   0.03
  10   6     0.01   0.01  -0.00    -0.06  -0.06   0.01    -0.00  -0.06   0.00
  11   6    -0.00  -0.05   0.00     0.05  -0.14  -0.00     0.03   0.07  -0.00
  12   6    -0.04   0.08  -0.00     0.04   0.13  -0.01    -0.06  -0.14   0.01
  13   6    -0.02  -0.11   0.00     0.04  -0.08  -0.00    -0.03   0.10  -0.00
  14   8    -0.04   0.02   0.00     0.03   0.31  -0.01     0.34   0.08  -0.03
  15   6     0.03  -0.02  -0.00     0.12  -0.40   0.00    -0.13  -0.15   0.02
  16   6    -0.03  -0.08   0.09     0.00   0.01  -0.01    -0.01  -0.01  -0.03
  17   8    -0.09  -0.20   0.02     0.01   0.03  -0.00    -0.02  -0.04   0.00
  18   8     0.10   0.26  -0.10    -0.01  -0.03   0.01     0.02   0.04   0.01
  19   1     0.02   0.11  -0.08    -0.01  -0.02   0.01     0.01   0.02  -0.02
  20   1     0.03   0.09   0.03    -0.00  -0.01  -0.01     0.01   0.02   0.02
  21   1    -0.12  -0.04   0.34     0.02   0.01  -0.06    -0.01  -0.01   0.06
  22   1    -0.05   0.09   0.00    -0.04   0.06   0.00     0.16  -0.17  -0.01
  23   1    -0.07  -0.02   0.01     0.01  -0.01  -0.00     0.17   0.08  -0.02
  24   1    -0.02  -0.02   0.00     0.02  -0.02  -0.00     0.46   0.15  -0.05
  25   1    -0.05   0.06   0.00    -0.15   0.12   0.01     0.26  -0.30  -0.01
  26   1     0.03  -0.01  -0.00     0.21   0.00  -0.02     0.01   0.02  -0.00
  27   1    -0.16  -0.07   0.03    -0.03  -0.03   0.00     0.16   0.06  -0.02
  28   1    -0.03  -0.00  -0.00    -0.33  -0.03  -0.02    -0.02  -0.02  -0.00
  29   1    -0.03   0.00   0.01    -0.32  -0.02   0.08    -0.02  -0.02   0.01
  30   1     0.03   0.03  -0.00     0.37   0.39  -0.05     0.05   0.08  -0.01
  31   1    -0.06  -0.32   0.24     0.01   0.03  -0.03    -0.01  -0.08   0.06
                     49                     50                     51
                        a                      a                      a 
 Frequencies --  1165.7317              1168.0815              1184.0790
 Red. masses --     3.7966                 4.1142                 2.6418
 Frc consts  --     0.0000                 0.0000                 0.0000
 IR Inten    --    32.6766                27.2906                 4.8270
 Raman Activ --     0.0000                 0.0000                 0.0000
 Depolar     --     0.0000                 0.0000                 0.0000
 Atom AN      X      Y      Z        X      Y      Z        X      Y      Z
   1   6    -0.02  -0.04   0.02    -0.02  -0.03   0.05     0.01  -0.03   0.01
   2   6     0.03   0.04  -0.04     0.08  -0.03  -0.08    -0.05   0.02  -0.01
   3   1    -0.05   0.01  -0.02     0.42   0.02   0.06    -0.02   0.00  -0.01
   4   6     0.03  -0.02   0.00    -0.30   0.09   0.03     0.01  -0.07   0.01
   5   6     0.06  -0.12  -0.00    -0.09  -0.09   0.01     0.09  -0.02  -0.01
   6   6    -0.07   0.12   0.00     0.03  -0.10   0.00    -0.04   0.10  -0.00
   7   6     0.16  -0.15  -0.01     0.08   0.04  -0.01    -0.12  -0.12   0.02
   8   6    -0.05   0.15  -0.00     0.05  -0.01  -0.00    -0.09  -0.08   0.01
   9   6     0.09   0.02  -0.01     0.12  -0.03  -0.01    -0.05   0.02   0.00
  10   6     0.05  -0.07  -0.00     0.02   0.06  -0.00    -0.10   0.05   0.01
  11   6    -0.04   0.12  -0.00     0.02   0.09  -0.00     0.07  -0.05  -0.00
  12   6     0.08  -0.14  -0.00    -0.11  -0.09   0.01    -0.02   0.10  -0.00
  13   6    -0.06   0.18  -0.00    -0.05   0.06   0.00     0.11   0.06  -0.01
  14   8    -0.10   0.09   0.01    -0.14   0.02   0.01     0.10  -0.06  -0.01
  15   6     0.06  -0.09  -0.00     0.07   0.00  -0.01    -0.05   0.06   0.00
  16   6     0.01  -0.01   0.07    -0.02   0.00  -0.16     0.01  -0.01   0.04
  17   8    -0.00   0.00  -0.01    -0.02  -0.04   0.02     0.00   0.01  -0.01
  18   8    -0.01   0.00  -0.03     0.03   0.02   0.08    -0.01  -0.00  -0.02
  19   1     0.00   0.02  -0.01     0.00  -0.00   0.00    -0.01   0.02   0.00
  20   1     0.01   0.03  -0.01    -0.00  -0.00   0.01     0.01   0.03  -0.03
  21   1    -0.01  -0.01   0.04     0.00  -0.01   0.02    -0.02  -0.00   0.02
  22   1     0.29  -0.34  -0.02    -0.02  -0.04   0.00     0.33  -0.34  -0.03
  23   1    -0.46  -0.07   0.05     0.10  -0.01  -0.01    -0.32  -0.04   0.03
  24   1    -0.37  -0.04   0.04    -0.29  -0.08   0.03     0.12   0.01  -0.01
  25   1     0.20  -0.22  -0.01    -0.02   0.05   0.00    -0.35   0.35   0.02
  26   1    -0.19  -0.01   0.02     0.20   0.07  -0.02     0.45   0.08  -0.04
  27   1    -0.08   0.04   0.01     0.58   0.15  -0.06     0.10   0.03  -0.01
  28   1    -0.10  -0.01   0.00    -0.04   0.00   0.00     0.08   0.01  -0.01
  29   1    -0.10  -0.01   0.02    -0.04   0.00   0.01     0.08   0.01  -0.01
  30   1     0.12   0.14  -0.02     0.04   0.04  -0.00    -0.11  -0.13   0.01
  31   1     0.01   0.03  -0.03    -0.02  -0.13   0.11     0.00   0.03  -0.02
                     52                     53                     54
                        a                      a                      a 
 Frequencies --  1191.7580              1238.3678              1243.3441
 Red. masses --     7.6152                 5.9307                 5.3568
 Frc consts  --     0.0000                 0.0000                 0.0000
 IR Inten    --   155.1001                52.1618                90.4202
 Raman Activ --     0.0000                 0.0000                 0.0000
 Depolar     --     0.0000                 0.0000                 0.0000
 Atom AN      X      Y      Z        X      Y      Z        X      Y      Z
   1   6     0.06   0.12   0.04     0.06   0.01  -0.02    -0.12   0.09  -0.00
   2   6    -0.14  -0.00  -0.08    -0.21   0.06   0.01     0.44  -0.06   0.01
   3   1     0.11   0.06   0.41    -0.10   0.02   0.05    -0.54  -0.04   0.06
   4   6     0.11  -0.07   0.00     0.28  -0.25  -0.01    -0.07   0.19  -0.01
   5   6     0.04   0.01  -0.00     0.01  -0.02  -0.00    -0.04  -0.02   0.01
   6   6    -0.02   0.04   0.00     0.08   0.10  -0.01    -0.00  -0.01   0.00
   7   6     0.00  -0.02   0.00     0.12   0.03  -0.01     0.05  -0.12  -0.00
   8   6    -0.02   0.01   0.00     0.06   0.04  -0.01    -0.01   0.02  -0.00
   9   6    -0.02   0.01   0.00    -0.22   0.14   0.02    -0.03   0.08  -0.00
  10   6    -0.02  -0.03   0.00    -0.04   0.12  -0.00    -0.01   0.05  -0.00
  11   6    -0.00  -0.05   0.00    -0.03  -0.05   0.01    -0.02   0.05   0.00
  12   6     0.09   0.06  -0.01    -0.27  -0.09   0.03    -0.07  -0.16   0.01
  13   6     0.05   0.04  -0.01     0.04  -0.04  -0.00    -0.07  -0.07   0.01
  14   8     0.02  -0.01  -0.00     0.14  -0.07  -0.01     0.03  -0.03  -0.00
  15   6    -0.01   0.01   0.00    -0.06   0.00   0.01    -0.02   0.01   0.00
  16   6    -0.09   0.08  -0.59     0.03  -0.00   0.01    -0.13   0.06  -0.17
  17   8    -0.01  -0.03   0.06    -0.01   0.00   0.00     0.03   0.01   0.02
  18   8     0.07  -0.05   0.32    -0.01  -0.00   0.00     0.03  -0.01   0.07
  19   1    -0.06  -0.05   0.11    -0.04  -0.00   0.04     0.06  -0.05  -0.03
  20   1    -0.02  -0.05  -0.01     0.00  -0.01  -0.04    -0.04  -0.05   0.16
  21   1     0.01   0.02  -0.11    -0.04   0.01  -0.01     0.09   0.01  -0.04
  22   1     0.03  -0.01  -0.00    -0.24   0.27   0.02     0.07  -0.10  -0.00
  23   1    -0.14  -0.02   0.01    -0.27  -0.04   0.03     0.23   0.05  -0.02
  24   1     0.04   0.01  -0.00    -0.19  -0.03   0.02    -0.19  -0.04   0.02
  25   1    -0.03   0.02   0.00     0.23  -0.23  -0.01     0.05  -0.04  -0.00
  26   1    -0.10  -0.04   0.01     0.39   0.08  -0.04     0.33   0.09  -0.03
  27   1    -0.20  -0.03   0.02     0.17   0.02  -0.02    -0.12  -0.05   0.01
  28   1     0.01   0.00  -0.00     0.05  -0.01   0.01     0.02  -0.00   0.00
  29   1     0.01   0.00  -0.00     0.05  -0.01  -0.02     0.02  -0.00  -0.01
  30   1    -0.01  -0.01   0.00     0.00   0.02  -0.00    -0.01  -0.01   0.00
  31   1    -0.05  -0.28   0.25    -0.00   0.02  -0.01    -0.00  -0.09   0.06
                     55                     56                     57
                        a                      a                      a 
 Frequencies --  1251.9065              1269.5464              1305.5943
 Red. masses --     8.6286                 7.5256                 6.8501
 Frc consts  --     0.0000                 0.0000                 0.0000
 IR Inten    --   211.2238               165.5221               107.0412
 Raman Activ --     0.0000                 0.0000                 0.0000
 Depolar     --     0.0000                 0.0000                 0.0000
 Atom AN      X      Y      Z        X      Y      Z        X      Y      Z
   1   6     0.06  -0.02   0.01    -0.02   0.05  -0.00    -0.01   0.16   0.10
   2   6    -0.21   0.06  -0.04     0.10   0.02  -0.02    -0.00  -0.13  -0.50
   3   1     0.13   0.03   0.05    -0.37  -0.00   0.08    -0.02   0.05   0.63
   4   6     0.15  -0.20   0.00     0.12  -0.17  -0.00    -0.01   0.07   0.04
   5   6    -0.02   0.16  -0.00     0.02   0.05  -0.00    -0.00   0.00   0.00
   6   6     0.05   0.21  -0.01     0.05   0.03  -0.01    -0.04  -0.04   0.00
   7   6    -0.23  -0.37   0.03    -0.27   0.11   0.02     0.03   0.04  -0.00
   8   6     0.04   0.08  -0.01     0.13  -0.05  -0.01    -0.01  -0.02   0.00
   9   6     0.22  -0.19  -0.01     0.24  -0.30  -0.01    -0.01   0.04  -0.00
  10   6    -0.02   0.08  -0.00     0.10   0.08  -0.01     0.01  -0.01  -0.00
  11   6     0.08   0.21  -0.01     0.04   0.11  -0.01    -0.02  -0.01   0.00
  12   6    -0.12  -0.29   0.02    -0.38   0.06   0.03     0.02   0.02  -0.01
  13   6     0.05   0.12  -0.01     0.11  -0.10  -0.01    -0.04  -0.04  -0.00
  14   8    -0.16   0.07   0.01    -0.19   0.10   0.01     0.01  -0.01  -0.00
  15   6     0.06  -0.02  -0.01     0.07  -0.02  -0.01    -0.01   0.00   0.00
  16   6     0.05  -0.02   0.05    -0.04   0.02  -0.06     0.12  -0.09   0.39
  17   8    -0.01  -0.01  -0.01     0.01   0.01   0.01    -0.02  -0.01  -0.04
  18   8    -0.01   0.00  -0.01     0.01  -0.01   0.03    -0.02   0.05  -0.14
  19   1    -0.04   0.01   0.03     0.00  -0.02   0.01    -0.04  -0.11   0.12
  20   1     0.01   0.02  -0.06    -0.01  -0.02   0.05    -0.06  -0.11   0.06
  21   1    -0.04  -0.00   0.01     0.02   0.01  -0.02     0.02   0.02  -0.11
  22   1     0.02   0.03  -0.00     0.05  -0.03  -0.00     0.02  -0.03   0.00
  23   1     0.35   0.14  -0.04    -0.17  -0.03   0.02     0.04   0.00  -0.00
  24   1    -0.13  -0.02   0.01     0.25   0.03  -0.02     0.00  -0.00  -0.00
  25   1    -0.04   0.07   0.00     0.05   0.00  -0.01     0.01  -0.01  -0.00
  26   1     0.18   0.09  -0.02    -0.22  -0.01   0.02     0.01  -0.00  -0.00
  27   1    -0.26  -0.03   0.03     0.34   0.04  -0.03     0.02  -0.00   0.01
  28   1    -0.06  -0.00   0.00    -0.07  -0.01   0.01     0.01  -0.00   0.00
  29   1    -0.06  -0.00   0.01    -0.07  -0.01   0.01     0.01  -0.00  -0.00
  30   1     0.03   0.02  -0.00     0.04   0.03  -0.00    -0.00  -0.00   0.00
  31   1    -0.00   0.03  -0.02    -0.00  -0.02   0.02     0.02   0.09  -0.08
                     58                     59                     60
                        a                      a                      a 
 Frequencies --  1327.7891              1368.9733              1389.8358
 Red. masses --     7.6051                10.3502                 3.2768
 Frc consts  --     0.0000                 0.0000                 0.0000
 IR Inten    --     3.4198                72.0212                 3.8500
 Raman Activ --     0.0000                 0.0000                 0.0000
 Depolar     --     0.0000                 0.0000                 0.0000
 Atom AN      X      Y      Z        X      Y      Z        X      Y      Z
   1   6    -0.01   0.02  -0.02    -0.02   0.01   0.01     0.01   0.00  -0.02
   2   6     0.09   0.03  -0.02     0.11  -0.03  -0.04    -0.01   0.02   0.01
   3   1    -0.16   0.00   0.03    -0.03  -0.01   0.03    -0.04   0.00  -0.00
   4   6    -0.03  -0.11   0.01    -0.27  -0.08   0.03     0.06  -0.08  -0.00
   5   6     0.13  -0.17  -0.01    -0.25   0.05   0.02     0.06   0.04  -0.01
   6   6     0.07   0.20  -0.01     0.32  -0.08  -0.03    -0.08   0.04   0.01
   7   6     0.19  -0.15  -0.01     0.00   0.05  -0.00    -0.03  -0.11   0.01
   8   6    -0.30   0.13   0.02     0.26   0.22  -0.03    -0.02  -0.05   0.00
   9   6    -0.07  -0.14   0.01    -0.32  -0.25   0.04     0.10   0.10  -0.01
  10   6     0.13  -0.14  -0.01    -0.25   0.10   0.02     0.07  -0.09  -0.00
  11   6     0.05   0.20  -0.01     0.39  -0.02  -0.04    -0.05   0.02   0.00
  12   6     0.19  -0.23  -0.01    -0.03  -0.09   0.01     0.01   0.11  -0.00
  13   6    -0.32   0.11   0.03     0.17   0.16  -0.02    -0.06  -0.02   0.01
  14   8     0.04   0.05  -0.01     0.04  -0.01  -0.00    -0.12  -0.06   0.01
  15   6     0.02  -0.03  -0.00    -0.05  -0.07   0.01    -0.25  -0.15   0.03
  16   6    -0.00   0.01  -0.00     0.00  -0.01   0.03    -0.00   0.00  -0.01
  17   8    -0.00  -0.01  -0.00     0.00   0.00  -0.00    -0.00  -0.00   0.00
  18   8     0.00   0.00  -0.00     0.00   0.01  -0.01     0.00  -0.00   0.00
  19   1    -0.01  -0.03   0.02     0.02  -0.02  -0.00    -0.02  -0.00   0.02
  20   1    -0.01  -0.03   0.04    -0.01  -0.01   0.00     0.00  -0.01   0.02
  21   1    -0.00   0.01   0.03     0.02   0.00  -0.00    -0.01   0.00   0.02
  22   1    -0.27   0.29   0.02    -0.07   0.01   0.01     0.03   0.00  -0.00
  23   1    -0.13   0.02   0.01    -0.13  -0.08   0.01     0.08   0.03  -0.01
  24   1     0.13   0.09  -0.01    -0.10   0.03   0.01    -0.04  -0.02   0.00
  25   1    -0.24   0.26   0.01    -0.12   0.08   0.01    -0.04   0.04   0.00
  26   1    -0.08   0.04   0.01    -0.12  -0.06   0.01    -0.06  -0.00   0.01
  27   1     0.16   0.08  -0.02    -0.14   0.01   0.01     0.11   0.02  -0.01
  28   1    -0.04   0.02  -0.02     0.10   0.05  -0.05     0.44   0.18  -0.18
  29   1    -0.03   0.02   0.02     0.11   0.05   0.03     0.46   0.19   0.08
  30   1    -0.01  -0.03   0.00     0.09   0.12  -0.01     0.28   0.42  -0.04
  31   1     0.00  -0.00   0.00     0.00   0.00  -0.00    -0.00  -0.00   0.00
                     61                     62                     63
                        a                      a                      a 
 Frequencies --  1400.5649              1403.6517              1424.7479
 Red. masses --     5.5786                 6.6822                11.3921
 Frc consts  --     0.0000                 0.0000                 0.0000
 IR Inten    --    27.6570                19.0674                13.4617
 Raman Activ --     0.0000                 0.0000                 0.0000
 Depolar     --     0.0000                 0.0000                 0.0000
 Atom AN      X      Y      Z        X      Y      Z        X      Y      Z
   1   6    -0.11  -0.07   0.29    -0.10  -0.06   0.25     0.01   0.01  -0.02
   2   6    -0.04  -0.02  -0.02     0.06   0.03  -0.03    -0.02  -0.05  -0.00
   3   1     0.07   0.01   0.03    -0.14   0.00   0.05     0.09  -0.01  -0.01
   4   6     0.08   0.23  -0.01    -0.07  -0.28   0.02    -0.05   0.16  -0.00
   5   6     0.05  -0.14  -0.00    -0.06   0.14   0.00    -0.28  -0.02   0.03
   6   6    -0.05  -0.03   0.01     0.07   0.06  -0.01     0.32  -0.01  -0.03
   7   6     0.04   0.25  -0.01    -0.01  -0.33   0.01     0.32  -0.27  -0.02
   8   6    -0.04   0.01   0.00     0.00  -0.01   0.00    -0.31   0.08   0.03
   9   6     0.04  -0.22   0.00    -0.04   0.25  -0.00     0.00  -0.13   0.00
  10   6     0.05   0.11  -0.01    -0.01  -0.15   0.01     0.29  -0.03  -0.03
  11   6    -0.07   0.06   0.00     0.05  -0.05  -0.00    -0.28   0.04   0.03
  12   6    -0.04  -0.27   0.01     0.01   0.32  -0.01    -0.32   0.24   0.02
  13   6    -0.02  -0.06   0.00     0.03   0.06  -0.01     0.32  -0.06  -0.03
  14   8    -0.06   0.03   0.00     0.06  -0.03  -0.00     0.01   0.04  -0.00
  15   6    -0.04  -0.05   0.00     0.03   0.04  -0.00    -0.00  -0.03   0.00
  16   6     0.01   0.01   0.00     0.00   0.01   0.00     0.00  -0.01   0.01
  17   8    -0.01  -0.02  -0.00    -0.01  -0.01  -0.00     0.00   0.01  -0.00
  18   8     0.00  -0.00   0.00     0.00   0.00   0.00    -0.00   0.00  -0.00
  19   1     0.25   0.18  -0.27     0.21   0.15  -0.22    -0.01  -0.03   0.02
  20   1     0.00   0.13  -0.36    -0.00   0.11  -0.29    -0.00  -0.01   0.01
  21   1     0.11  -0.04  -0.38     0.10  -0.04  -0.33    -0.00   0.00   0.03
  22   1    -0.02   0.00   0.01    -0.02   0.05   0.01    -0.05  -0.05   0.01
  23   1    -0.10  -0.03   0.01     0.11   0.03  -0.01    -0.04  -0.04   0.01
  24   1     0.15   0.04  -0.02    -0.16  -0.04   0.02     0.08   0.06  -0.01
  25   1     0.03   0.02  -0.00    -0.04  -0.00   0.00     0.02   0.06  -0.00
  26   1     0.14   0.05  -0.01    -0.16  -0.05   0.02     0.02   0.04  -0.00
  27   1    -0.14  -0.05   0.02     0.18   0.06  -0.02    -0.12  -0.06   0.01
  28   1     0.07   0.04  -0.04    -0.05  -0.03   0.03     0.00   0.03  -0.03
  29   1     0.08   0.04   0.02    -0.06  -0.03  -0.02     0.01   0.03   0.02
  30   1     0.06   0.09  -0.01    -0.06  -0.08   0.01     0.01   0.01  -0.00
  31   1     0.00   0.00  -0.00     0.00  -0.00   0.00     0.00   0.00  -0.00
                     64                     65                     66
                        a                      a                      a 
 Frequencies --  1457.7289              1461.2027              1471.1702
 Red. masses --     8.9812                 1.5442                 2.1396
 Frc consts  --     0.0000                 0.0000                 0.0000
 IR Inten    --    93.3338                 7.3098                 7.7950
 Raman Activ --     0.0000                 0.0000                 0.0000
 Depolar     --     0.0000                 0.0000                 0.0000
 Atom AN      X      Y      Z        X      Y      Z        X      Y      Z
   1   6    -0.03   0.03   0.00    -0.00   0.00   0.00     0.01  -0.02  -0.00
   2   6     0.09  -0.02  -0.02     0.00  -0.00  -0.00    -0.02   0.00   0.00
   3   1    -0.01  -0.00   0.00    -0.00  -0.00   0.00     0.00   0.00   0.00
   4   6    -0.33   0.01   0.04    -0.00  -0.00   0.00     0.09   0.00  -0.01
   5   6     0.09  -0.20  -0.00     0.00  -0.00   0.00    -0.04   0.06   0.00
   6   6     0.26   0.16  -0.03     0.00   0.00  -0.00    -0.06  -0.05   0.01
   7   6    -0.30  -0.10   0.03    -0.00  -0.00  -0.00     0.12   0.01  -0.01
   8   6    -0.12  -0.14   0.02    -0.00  -0.00   0.00    -0.01   0.05  -0.00
   9   6     0.33   0.03  -0.03     0.00   0.00   0.00    -0.07  -0.06   0.01
  10   6    -0.15   0.17   0.01    -0.00   0.00  -0.00     0.05  -0.05  -0.00
  11   6    -0.13  -0.14   0.02    -0.00  -0.00  -0.00     0.04   0.05  -0.01
  12   6     0.25   0.08  -0.03     0.00   0.00   0.00    -0.07  -0.02   0.01
  13   6     0.13   0.13  -0.02     0.00   0.00  -0.00    -0.04  -0.03   0.01
  14   8    -0.08   0.02   0.01     0.00   0.00   0.03     0.00   0.06  -0.00
  15   6    -0.05   0.05   0.00     0.02   0.01   0.22    -0.11   0.16   0.01
  16   6     0.00  -0.01   0.02    -0.00  -0.00   0.00    -0.00   0.00  -0.01
  17   8     0.00   0.00  -0.00     0.00   0.00   0.00    -0.00  -0.00   0.00
  18   8     0.00   0.00  -0.01     0.00   0.00  -0.00    -0.00  -0.00   0.00
  19   1     0.07  -0.11  -0.00     0.00  -0.00  -0.00    -0.04   0.07   0.00
  20   1    -0.02  -0.03  -0.06    -0.00  -0.00  -0.00     0.01   0.02   0.05
  21   1     0.05   0.00   0.07     0.00   0.00   0.00    -0.03  -0.00  -0.04
  22   1    -0.18   0.17   0.01    -0.00   0.00   0.00     0.04  -0.04  -0.00
  23   1    -0.18  -0.01   0.02    -0.00  -0.00   0.00     0.05   0.00  -0.00
  24   1     0.08  -0.02  -0.01     0.00  -0.00  -0.00    -0.00   0.02  -0.00
  25   1     0.14  -0.15  -0.01     0.00  -0.00   0.02    -0.09   0.10   0.00
  26   1     0.14  -0.00  -0.01     0.00  -0.00  -0.00    -0.04   0.00   0.00
  27   1    -0.09   0.02   0.01    -0.00   0.00   0.00     0.02  -0.00  -0.00
  28   1     0.08  -0.14   0.10    -0.45   0.13  -0.05     0.16  -0.49   0.35
  29   1     0.05  -0.14  -0.10     0.43  -0.14  -0.12     0.10  -0.51  -0.35
  30   1     0.06   0.10  -0.00    -0.07  -0.02  -0.71     0.15   0.24  -0.03
  31   1    -0.00  -0.00  -0.00     0.00  -0.00  -0.00     0.00   0.00   0.00
                     67                     68                     69
                        a                      a                      a 
 Frequencies --  1479.5657              1488.5406              1504.3034
 Red. masses --     1.8817                 1.5963                10.7850
 Frc consts  --     0.0000                 0.0000                 0.0000
 IR Inten    --     0.7097                 4.4852                72.4961
 Raman Activ --     0.0000                 0.0000                 0.0000
 Depolar     --     0.0000                 0.0000                 0.0000
 Atom AN      X      Y      Z        X      Y      Z        X      Y      Z
   1   6     0.11  -0.17  -0.01     0.18   0.10   0.07     0.00  -0.01  -0.01
   2   6     0.06  -0.05  -0.02     0.05   0.02   0.03    -0.02  -0.04  -0.00
   3   1    -0.02  -0.01   0.04    -0.00   0.00  -0.03     0.08  -0.00  -0.00
   4   6    -0.08  -0.01   0.01    -0.02   0.02  -0.00     0.00   0.35  -0.01
   5   6    -0.01  -0.02   0.00    -0.00  -0.01   0.00     0.11  -0.29  -0.00
   6   6     0.06   0.02  -0.01     0.01   0.00  -0.00     0.14   0.16  -0.02
   7   6    -0.03  -0.02   0.00    -0.01  -0.01   0.00    -0.31  -0.04   0.03
   8   6    -0.03  -0.02   0.00     0.00  -0.00  -0.00     0.17  -0.12  -0.01
   9   6     0.06  -0.02  -0.01     0.00   0.00  -0.00    -0.05   0.38  -0.01
  10   6    -0.04   0.05   0.00    -0.01   0.00   0.00     0.11  -0.33   0.00
  11   6    -0.03  -0.04   0.00     0.00  -0.00  -0.00     0.19   0.20  -0.02
  12   6     0.07   0.02  -0.01     0.00   0.01   0.00    -0.31  -0.12   0.03
  13   6     0.02   0.03  -0.00     0.00  -0.00  -0.00     0.11  -0.12  -0.00
  14   8    -0.01   0.00   0.00    -0.00  -0.00   0.00     0.03  -0.05  -0.00
  15   6     0.01  -0.01  -0.00     0.00  -0.00  -0.00    -0.00   0.02  -0.00
  16   6     0.00  -0.00   0.01    -0.00   0.02  -0.01    -0.00  -0.01   0.01
  17   8     0.00   0.00  -0.00    -0.01  -0.02  -0.00     0.00   0.00  -0.00
  18   8    -0.00   0.00  -0.01     0.00   0.00   0.00    -0.00   0.00  -0.01
  19   1    -0.39   0.58   0.04     0.18   0.16  -0.20    -0.03   0.03   0.01
  20   1     0.14   0.18   0.42    -0.24  -0.59  -0.05     0.01   0.01   0.03
  21   1    -0.18  -0.03  -0.40    -0.66   0.04  -0.06    -0.00  -0.00  -0.02
  22   1    -0.04   0.03   0.00     0.01  -0.01  -0.01    -0.10   0.07   0.01
  23   1    -0.03  -0.01   0.00    -0.00  -0.00   0.00    -0.13   0.01   0.01
  24   1     0.02   0.00  -0.00    -0.00  -0.00   0.00    -0.10  -0.07   0.01
  25   1     0.04  -0.04  -0.00     0.00  -0.00  -0.00    -0.13   0.08   0.01
  26   1     0.03  -0.00  -0.00    -0.00  -0.00   0.00    -0.14   0.01   0.01
  27   1    -0.01   0.01   0.00    -0.00  -0.00  -0.00    -0.09  -0.06   0.01
  28   1    -0.01   0.03  -0.02    -0.00   0.00  -0.00     0.00  -0.01   0.01
  29   1    -0.00   0.04   0.02    -0.00   0.00   0.00     0.00  -0.02  -0.01
  30   1    -0.01  -0.01   0.00    -0.00  -0.00   0.00    -0.01  -0.02   0.00
  31   1     0.00   0.00  -0.00    -0.00  -0.00   0.00     0.00   0.00  -0.00
                     70                     71                     72
                        a                      a                      a 
 Frequencies --  1558.4122              1602.9392              1610.1651
 Red. masses --    11.6959                11.5535                11.5360
 Frc consts  --     0.0000                 0.0000                 0.0000
 IR Inten    --     3.0093               213.4818                 1.0119
 Raman Activ --     0.0000                 0.0000                 0.0000
 Depolar     --     0.0000                 0.0000                 0.0000
 Atom AN      X      Y      Z        X      Y      Z        X      Y      Z
   1   6     0.00  -0.00   0.00    -0.00  -0.00   0.00     0.01  -0.00  -0.00
   2   6     0.03   0.02  -0.00    -0.02  -0.00   0.01     0.04   0.01  -0.01
   3   1    -0.05  -0.00   0.00     0.02   0.00  -0.00    -0.03   0.00   0.01
   4   6    -0.11  -0.34   0.02     0.14   0.09  -0.02    -0.34  -0.19   0.04
   5   6    -0.24   0.27   0.02    -0.12   0.04   0.01     0.38  -0.14  -0.03
   6   6     0.18  -0.15  -0.01     0.08  -0.03  -0.01    -0.48   0.00   0.05
   7   6    -0.02   0.38  -0.01     0.24  -0.03  -0.02     0.25   0.06  -0.03
   8   6    -0.16  -0.20   0.02    -0.44  -0.15   0.05    -0.09   0.00   0.01
   9   6     0.11   0.32  -0.02     0.31   0.19  -0.03     0.01   0.01  -0.00
  10   6     0.19  -0.24  -0.01    -0.40   0.13   0.03    -0.03   0.00   0.00
  11   6    -0.13   0.13   0.01     0.51   0.00  -0.05     0.10   0.03  -0.01
  12   6     0.04  -0.38   0.01    -0.18  -0.06   0.02    -0.28  -0.02   0.03
  13   6     0.14   0.21  -0.02    -0.10  -0.08   0.01     0.45   0.17  -0.05
  14   8     0.00  -0.02   0.00    -0.01  -0.02   0.00     0.01  -0.00  -0.00
  15   6    -0.01   0.01   0.00    -0.02   0.00   0.00    -0.00   0.00   0.00
  16   6     0.00  -0.00  -0.00     0.00   0.02  -0.01    -0.01  -0.03   0.01
  17   8    -0.00   0.00   0.00    -0.00  -0.01   0.00     0.01   0.02  -0.00
  18   8     0.00  -0.00   0.00    -0.00  -0.00   0.00     0.00   0.00  -0.01
  19   1     0.00  -0.00  -0.00     0.00  -0.00  -0.00    -0.00   0.01   0.00
  20   1    -0.00  -0.00  -0.00    -0.00   0.00  -0.00     0.00  -0.00   0.01
  21   1    -0.00   0.00   0.00     0.00   0.00   0.00    -0.01  -0.00  -0.00
  22   1     0.04  -0.05  -0.00     0.02  -0.05  -0.00    -0.03   0.12  -0.00
  23   1    -0.03  -0.06   0.00     0.01  -0.02  -0.00     0.09   0.06  -0.01
  24   1     0.07  -0.02  -0.01     0.11   0.01  -0.01     0.02   0.01  -0.00
  25   1    -0.04   0.04   0.00     0.03  -0.11   0.00    -0.01  -0.00   0.00
  26   1     0.03   0.05  -0.00    -0.10  -0.06   0.01    -0.04  -0.00   0.00
  27   1    -0.07   0.03   0.01     0.02  -0.01  -0.00    -0.12   0.00   0.01
  28   1     0.01  -0.00   0.00     0.01   0.01  -0.01     0.00  -0.00  -0.00
  29   1     0.01  -0.00  -0.00     0.01   0.01   0.01     0.00  -0.00  -0.00
  30   1    -0.01  -0.01   0.00    -0.01  -0.01   0.00    -0.00  -0.00   0.00
  31   1    -0.00  -0.00   0.00     0.00   0.00  -0.00    -0.00  -0.00   0.00
                     73                     74                     75
                        a                      a                      a 
 Frequencies --  1712.9935              2944.9226              2956.1024
 Red. masses --    13.2732                 1.9592                 1.4427
 Frc consts  --     0.0000                 0.0000                 0.0000
 IR Inten    --   797.6418                45.7717                55.9988
 Raman Activ --     0.0000                 0.0000                 0.0000
 Depolar     --     0.0000                 0.0000                 0.0000
 Atom AN      X      Y      Z        X      Y      Z        X      Y      Z
   1   6     0.00   0.00  -0.00     0.00  -0.00   0.00    -0.00   0.00   0.00
   2   6    -0.01  -0.06  -0.04    -0.00   0.00  -0.00    -0.00   0.00  -0.00
   3   1    -0.04  -0.01  -0.05     0.00  -0.00   0.00     0.00  -0.00   0.00
   4   6    -0.04   0.01   0.00    -0.00  -0.00   0.00     0.00   0.00  -0.00
   5   6     0.01  -0.01  -0.00     0.00   0.00   0.00    -0.00  -0.00   0.00
   6   6    -0.01  -0.00   0.00     0.00   0.00   0.00    -0.00  -0.00   0.00
   7   6     0.00   0.00   0.00    -0.00  -0.00  -0.00     0.00  -0.00  -0.00
   8   6     0.01   0.00  -0.00     0.00  -0.00  -0.00    -0.00   0.00   0.00
   9   6    -0.01   0.00   0.00     0.00   0.00   0.00     0.00  -0.00  -0.00
  10   6     0.01  -0.00  -0.00     0.00  -0.00   0.00     0.00   0.00  -0.00
  11   6    -0.00  -0.00   0.00    -0.00  -0.00  -0.00     0.00   0.00  -0.00
  12   6    -0.01   0.00  -0.00    -0.00  -0.00  -0.00    -0.00   0.00  -0.00
  13   6     0.02   0.00  -0.00     0.00  -0.00   0.00     0.00   0.00  -0.00
  14   8     0.00  -0.00  -0.00    -0.00  -0.00  -0.01    -0.01  -0.01   0.00
  15   6    -0.00  -0.00   0.00    -0.03  -0.01  -0.29     0.02  -0.20   0.00
  16   6     0.35   0.71   0.01     0.00   0.00   0.00     0.00   0.00   0.00
  17   8    -0.26  -0.53   0.02    -0.00  -0.00   0.00    -0.00  -0.00  -0.00
  18   8    -0.02  -0.06   0.03    -0.00   0.00  -0.00    -0.00   0.00  -0.00
  19   1    -0.02  -0.01   0.02     0.00   0.00   0.00    -0.00  -0.00  -0.00
  20   1     0.01   0.01   0.01    -0.00   0.00  -0.00     0.00  -0.00  -0.00
  21   1     0.01   0.00   0.01    -0.00   0.00  -0.00     0.00   0.00  -0.00
  22   1     0.01  -0.01   0.01    -0.00  -0.00  -0.00     0.00   0.00  -0.00
  23   1     0.00   0.00  -0.00     0.00  -0.00  -0.00    -0.00   0.00  -0.00
  24   1    -0.00   0.00   0.00    -0.00   0.00  -0.00     0.00  -0.00  -0.00
  25   1    -0.00   0.00   0.00     0.00   0.00   0.00    -0.01  -0.00   0.00
  26   1    -0.00  -0.00  -0.00    -0.00   0.00   0.00     0.00  -0.00   0.00
  27   1    -0.01  -0.00   0.00    -0.00   0.00  -0.00     0.00  -0.00   0.00
  28   1    -0.00   0.00  -0.00     0.03   0.42   0.52     0.05   0.39   0.57
  29   1    -0.00   0.00   0.00     0.07  -0.39   0.55    -0.06   0.35  -0.59
  30   1    -0.00  -0.00   0.00    -0.00  -0.00  -0.05    -0.01  -0.01   0.00
  31   1     0.01   0.06  -0.05    -0.00  -0.00   0.00     0.00   0.00   0.00
                     76                     77                     78
                        a                      a                      a 
 Frequencies --  2966.6771              3034.2356              3038.5418
 Red. masses --     1.7613                 1.6981                 1.8625
 Frc consts  --     0.0000                 0.0000                 0.0000
 IR Inten    --    30.9398                20.4355                61.1089
 Raman Activ --     0.0000                 0.0000                 0.0000
 Depolar     --     0.0000                 0.0000                 0.0000
 Atom AN      X      Y      Z        X      Y      Z        X      Y      Z
   1   6     0.00  -0.01  -0.00    -0.00   0.00   0.00     0.24  -0.14  -0.00
   2   6    -0.01   0.26  -0.03    -0.00   0.00  -0.00     0.01  -0.01   0.00
   3   1     0.05  -0.96   0.11     0.00  -0.00   0.00    -0.00   0.04  -0.00
   4   6    -0.00   0.01  -0.00     0.00  -0.00  -0.00    -0.00   0.00  -0.00
   5   6    -0.00  -0.00   0.00    -0.00  -0.00   0.00     0.00   0.00  -0.00
   6   6     0.00   0.00  -0.00     0.00  -0.00  -0.00     0.00  -0.00   0.00
   7   6     0.00  -0.00   0.00    -0.00  -0.00   0.00    -0.00  -0.00   0.00
   8   6    -0.00   0.00   0.00     0.00  -0.00  -0.00     0.00  -0.00  -0.00
   9   6     0.00  -0.00  -0.00     0.00   0.00  -0.00    -0.00   0.00   0.00
  10   6    -0.00   0.00   0.00    -0.00  -0.00   0.00     0.00   0.00  -0.00
  11   6     0.00  -0.00  -0.00     0.00   0.00  -0.00    -0.00   0.00   0.00
  12   6    -0.00  -0.00  -0.00    -0.00  -0.00   0.00     0.00   0.00   0.00
  13   6     0.00  -0.00   0.00     0.00   0.00  -0.00    -0.00   0.00  -0.00
  14   8    -0.00   0.00   0.00    -0.01  -0.00   0.00     0.00  -0.00  -0.00
  15   6    -0.00   0.00   0.00    -0.20   0.15   0.01    -0.00   0.00   0.00
  16   6     0.00   0.01  -0.00     0.00   0.00   0.00     0.00  -0.00   0.00
  17   8    -0.00  -0.00   0.00    -0.00  -0.00  -0.00    -0.00  -0.00  -0.00
  18   8    -0.00  -0.00  -0.00    -0.00  -0.00  -0.00     0.00   0.00   0.00
  19   1     0.01   0.00   0.01    -0.00   0.00  -0.00    -0.03  -0.06  -0.08
  20   1    -0.03   0.01   0.00     0.00  -0.00  -0.00    -0.86   0.35   0.09
  21   1     0.00   0.05  -0.01    -0.00  -0.00   0.00     0.04   0.21  -0.01
  22   1     0.00   0.00  -0.00     0.00   0.00  -0.00    -0.01  -0.01   0.00
  23   1     0.00  -0.00   0.00    -0.00   0.00  -0.00    -0.00   0.01  -0.00
  24   1     0.00  -0.00  -0.00    -0.00   0.00  -0.00    -0.00   0.00  -0.00
  25   1     0.00   0.00  -0.00     0.01   0.00  -0.00    -0.00  -0.00   0.00
  26   1    -0.00   0.00  -0.00     0.00  -0.00   0.00     0.00  -0.00   0.00
  27   1    -0.00   0.01   0.00     0.00  -0.00   0.00     0.00  -0.01  -0.00
  28   1    -0.00  -0.00  -0.00    -0.02   0.03   0.01    -0.00   0.00   0.00
  29   1     0.00  -0.00   0.00    -0.03   0.03  -0.01    -0.00   0.00  -0.00
  30   1    -0.00   0.00   0.00     0.79  -0.56  -0.05     0.00  -0.00  -0.00
  31   1     0.00   0.00   0.01     0.00   0.00   0.00    -0.00  -0.00  -0.00
                     79                     80                     81
                        a                      a                      a 
 Frequencies --  3049.8610              3053.8797              3074.8364
 Red. masses --     1.8981                 1.3977                 1.8037
 Frc consts  --     0.0000                 0.0000                 0.0000
 IR Inten    --    31.8822                22.6558                15.3271
 Raman Activ --     0.0000                 0.0000                 0.0000
 Depolar     --     0.0000                 0.0000                 0.0000
 Atom AN      X      Y      Z        X      Y      Z        X      Y      Z
   1   6    -0.14  -0.18  -0.16     0.01   0.16  -0.09     0.00  -0.01   0.00
   2   6    -0.00  -0.01  -0.00     0.00   0.01  -0.01     0.00  -0.00   0.00
   3   1    -0.00   0.03  -0.00     0.00  -0.03   0.00    -0.00   0.01  -0.00
   4   6     0.00  -0.00   0.00    -0.00   0.00  -0.00     0.00  -0.01  -0.00
   5   6     0.00   0.00  -0.00    -0.01  -0.01   0.00    -0.09  -0.08   0.01
   6   6     0.00  -0.00   0.00    -0.00   0.00  -0.00    -0.03   0.11  -0.00
   7   6     0.00  -0.00  -0.00    -0.00   0.00  -0.00    -0.00   0.01   0.00
   8   6     0.00  -0.00   0.00     0.00  -0.00   0.00     0.00  -0.01   0.00
   9   6    -0.00   0.00   0.00    -0.00  -0.00   0.00    -0.00   0.00   0.00
  10   6     0.00   0.00  -0.00    -0.00  -0.00  -0.00    -0.00  -0.00   0.00
  11   6    -0.00   0.00   0.00    -0.00   0.00  -0.00    -0.01   0.05  -0.00
  12   6     0.00   0.00  -0.00    -0.00  -0.00   0.00    -0.00  -0.01   0.00
  13   6    -0.00   0.00   0.00     0.00  -0.00  -0.00     0.04  -0.20   0.00
  14   8     0.00  -0.00  -0.00     0.00  -0.00  -0.00     0.00  -0.00  -0.00
  15   6    -0.00  -0.00   0.00    -0.00  -0.00   0.00    -0.00  -0.00   0.00
  16   6     0.00  -0.00   0.00     0.00   0.00   0.00     0.00   0.00   0.00
  17   8     0.00   0.00  -0.00    -0.00  -0.00   0.00    -0.00   0.00  -0.00
  18   8     0.00   0.00  -0.00     0.00   0.00   0.00     0.00   0.00   0.00
  19   1     0.52   0.30   0.64     0.23   0.16   0.27    -0.00  -0.00  -0.00
  20   1    -0.02  -0.03  -0.02    -0.24   0.12   0.02    -0.00  -0.00   0.00
  21   1    -0.00   0.38  -0.04    -0.04  -0.86   0.04     0.00   0.04  -0.00
  22   1    -0.01  -0.01   0.00     0.04   0.04  -0.00     0.32   0.29  -0.03
  23   1    -0.00   0.00  -0.00     0.00  -0.02   0.00     0.09  -0.41   0.00
  24   1    -0.00   0.00  -0.00    -0.00   0.00  -0.00    -0.01   0.04  -0.00
  25   1    -0.00  -0.00   0.00     0.00   0.00  -0.00     0.02   0.02  -0.00
  26   1     0.00  -0.00  -0.00     0.00  -0.00   0.00     0.04  -0.16   0.00
  27   1     0.00  -0.01   0.00    -0.00   0.01  -0.00    -0.16   0.72  -0.01
  28   1    -0.00   0.00   0.00    -0.00   0.00   0.00     0.00   0.00   0.00
  29   1    -0.00   0.00  -0.00    -0.00   0.00  -0.00    -0.00   0.00  -0.00
  30   1     0.00  -0.00  -0.00     0.00  -0.00  -0.00     0.00  -0.00  -0.00
  31   1    -0.00  -0.00  -0.00    -0.00  -0.00  -0.00    -0.00  -0.00  -0.00
                     82                     83                     84
                        a                      a                      a 
 Frequencies --  3075.3399              3081.3722              3087.9683
 Red. masses --     1.7911                 1.8033                 1.8807
 Frc consts  --     0.0000                 0.0000                 0.0000
 IR Inten    --    74.9637                80.3507                83.9177
 Raman Activ --     0.0000                 0.0000                 0.0000
 Depolar     --     0.0000                 0.0000                 0.0000
 Atom AN      X      Y      Z        X      Y      Z        X      Y      Z
   1   6     0.00  -0.01   0.00     0.00  -0.00  -0.00    -0.00   0.01  -0.00
   2   6    -0.00   0.00   0.00     0.00  -0.00   0.00    -0.00   0.00  -0.00
   3   1     0.00  -0.00   0.00    -0.00   0.00  -0.00    -0.00  -0.00  -0.00
   4   6    -0.01   0.00   0.00     0.00  -0.00  -0.00     0.01  -0.00  -0.00
   5   6    -0.08  -0.08   0.01    -0.03  -0.02   0.00     0.16   0.14  -0.02
   6   6    -0.04   0.17  -0.00     0.00  -0.01   0.00    -0.04   0.17  -0.00
   7   6    -0.00   0.00   0.00    -0.00   0.00   0.00    -0.01   0.00   0.00
   8   6     0.00  -0.00   0.00     0.00  -0.01   0.00     0.01  -0.04   0.00
   9   6     0.00   0.00  -0.00     0.00   0.00  -0.00     0.00   0.00  -0.00
  10   6     0.00   0.00  -0.00     0.03   0.03  -0.00     0.01   0.01  -0.00
  11   6     0.00  -0.02   0.00     0.06  -0.25   0.00     0.01  -0.03   0.00
  12   6     0.00   0.00  -0.00     0.01  -0.01  -0.00     0.00  -0.00  -0.00
  13   6    -0.03   0.16  -0.00     0.01  -0.04   0.00     0.00  -0.03   0.00
  14   8    -0.00   0.00   0.00     0.00  -0.00  -0.00     0.00  -0.00  -0.00
  15   6    -0.00   0.00   0.00    -0.00   0.00   0.00    -0.00  -0.00   0.00
  16   6     0.00   0.00   0.00     0.00   0.00   0.00    -0.00   0.00   0.00
  17   8    -0.00   0.00  -0.00    -0.00  -0.00  -0.00     0.00  -0.00  -0.00
  18   8    -0.00  -0.00  -0.00     0.00   0.00   0.00     0.00   0.00   0.00
  19   1    -0.01  -0.01  -0.01     0.00  -0.00   0.00     0.01   0.01   0.01
  20   1     0.00  -0.00  -0.00    -0.00   0.00   0.00    -0.00   0.00   0.00
  21   1     0.00   0.03  -0.00     0.00   0.01  -0.00    -0.00  -0.03   0.00
  22   1     0.31   0.29  -0.03     0.10   0.09  -0.01    -0.54  -0.49   0.06
  23   1     0.14  -0.61   0.00    -0.01   0.04  -0.00     0.13  -0.57   0.00
  24   1    -0.00   0.01  -0.00    -0.01   0.03  -0.00    -0.03   0.14  -0.00
  25   1    -0.01  -0.01   0.00    -0.15  -0.14   0.02    -0.03  -0.03   0.00
  26   1    -0.01   0.06  -0.00    -0.20   0.90  -0.01    -0.02   0.09  -0.00
  27   1     0.12  -0.58   0.01    -0.04   0.15  -0.00    -0.02   0.11  -0.00
  28   1    -0.00  -0.00  -0.00    -0.00  -0.00  -0.00     0.00   0.00   0.00
  29   1    -0.00  -0.00   0.00     0.00  -0.00   0.00    -0.00   0.00  -0.00
  30   1     0.00  -0.00  -0.00     0.00  -0.00  -0.00     0.00  -0.00  -0.00
  31   1     0.00   0.00   0.00    -0.00  -0.00  -0.00    -0.00  -0.00  -0.00
                     85                     86                     87
                        a                      a                      a 
 Frequencies --  3096.2096              3110.3876              3335.3714
 Red. masses --     1.8206                 1.8494                 1.8505
 Frc consts  --     0.0000                 0.0000                 0.0000
 IR Inten    --    77.4435                62.5212               181.5516
 Raman Activ --     0.0000                 0.0000                 0.0000
 Depolar     --     0.0000                 0.0000                 0.0000
 Atom AN      X      Y      Z        X      Y      Z        X      Y      Z
   1   6     0.00   0.00  -0.00     0.00  -0.00  -0.00     0.00   0.00  -0.00
   2   6    -0.00  -0.00  -0.00    -0.00  -0.00  -0.00     0.00  -0.00   0.00
   3   1    -0.00   0.00  -0.00    -0.00   0.00  -0.00    -0.00   0.01  -0.00
   4   6     0.00  -0.00  -0.00     0.00  -0.00  -0.00    -0.00   0.00   0.00
   5   6     0.02   0.02  -0.00     0.00   0.00  -0.00     0.00   0.00   0.00
   6   6    -0.01   0.03  -0.00    -0.00   0.01  -0.00    -0.00   0.00  -0.00
   7   6     0.00   0.01  -0.00     0.00   0.00  -0.00    -0.00   0.00   0.00
   8   6    -0.06   0.26  -0.00    -0.00   0.02  -0.00     0.00  -0.00   0.00
   9   6    -0.01   0.00   0.00    -0.01   0.00   0.00     0.00   0.00  -0.00
  10   6     0.02   0.02  -0.00    -0.19  -0.18   0.02     0.00  -0.00   0.00
  11   6     0.00  -0.00   0.00     0.02  -0.07   0.00     0.00  -0.00  -0.00
  12   6    -0.00  -0.00   0.00     0.00   0.00  -0.00     0.00  -0.00  -0.00
  13   6     0.00  -0.01   0.00     0.00  -0.01   0.00     0.00  -0.00   0.00
  14   8     0.00   0.00  -0.00     0.00  -0.00   0.00    -0.00   0.00   0.00
  15   6    -0.00   0.00   0.00     0.00  -0.00   0.00     0.00   0.00  -0.00
  16   6     0.00   0.00   0.00     0.00   0.00   0.00    -0.00   0.01  -0.01
  17   8    -0.00  -0.00  -0.00    -0.00  -0.00  -0.00    -0.00  -0.00   0.00
  18   8    -0.00   0.00  -0.00    -0.00   0.00  -0.00    -0.11  -0.11  -0.18
  19   1     0.00   0.00   0.00     0.00   0.00   0.00     0.00   0.00   0.00
  20   1    -0.00   0.00   0.00    -0.00   0.00   0.00    -0.00   0.00   0.00
  21   1    -0.00  -0.00   0.00     0.00  -0.00  -0.00    -0.00  -0.00  -0.00
  22   1    -0.06  -0.05   0.01    -0.01  -0.01   0.00    -0.00  -0.00  -0.00
  23   1     0.02  -0.11   0.00     0.00  -0.02   0.00    -0.00   0.00   0.00
  24   1     0.22  -0.92   0.01     0.02  -0.08   0.00    -0.00   0.00   0.00
  25   1    -0.07  -0.06   0.01     0.68   0.64  -0.08    -0.00  -0.00  -0.00
  26   1    -0.00   0.02  -0.00    -0.04   0.20  -0.00    -0.00   0.00  -0.00
  27   1    -0.01   0.04  -0.00    -0.00   0.02  -0.00    -0.00   0.00  -0.00
  28   1    -0.00  -0.00  -0.00    -0.00   0.01   0.01    -0.00   0.00  -0.00
  29   1    -0.00  -0.00   0.00    -0.00   0.01  -0.01    -0.00  -0.00   0.00
  30   1     0.00  -0.00  -0.00    -0.00   0.00   0.00    -0.00   0.00   0.00
  31   1    -0.00  -0.00  -0.00     0.00  -0.00  -0.00     0.44   0.42   0.76
