31
 energy: -49.344150156974 gnorm: 0.038764845709 xtb: 6.7.1 (edcfbbe)
C           -3.66453054085044        0.17820300880184        1.88896296641388
C           -3.06677935505616        0.59129923514115        0.54572227957725
H           -3.10118279055006        1.68119523993063        0.44194329512132
C           -1.61838620625762        0.15802202649431        0.39533237947423
C           -1.29257514429635       -1.22322723453794        0.40217431800665
C            0.00782519741961       -1.64435885447128        0.28145196068924
C            1.06612525394730       -0.70765462366409        0.14913308208257
C            2.41196264275398       -1.10703687539693        0.02692008354985
C            3.41333773513274       -0.16369194747185       -0.10135939565230
C            3.10315054055829        1.21673544654088       -0.11267010471895
C            1.79317710557521        1.62094542432656        0.00618362148295
C            0.74142213131298        0.68669142821972        0.13934625009200
C           -0.61154143243147        1.08587388625955        0.26073295735274
O            4.69122780309705       -0.64833698816180       -0.21553443379214
C            5.75998532501216        0.30385990037253       -0.33789344183008
C           -3.86558231299056        0.02270757855799       -0.60833115555591
O           -4.67775915242404       -0.88041167021167       -0.53162249955129
O           -3.55840523697771        0.62794152738566       -1.77848460918357
H           -3.08566092101003        0.62970986066203        2.69882139520930
H           -4.70139768463074        0.51667521103727        1.97114157756344
H           -3.64595940835953       -0.90756370092289        2.01412543380054
H           -2.08780239814875       -1.95722546866377        0.50184681809644
H            0.24370620928041       -2.70470307020154        0.28519378516014
H            2.66673022759852       -2.16271204904901        0.03328977557431
H            3.88428940263275        1.95975458783219       -0.21471358309545
H            1.55542856574010        2.68084982654870       -0.00254139821402
H           -0.84574513795251        2.14743036258308        0.24874027276710
H            5.81395409934581        0.95189756347582        0.54392413513115
H            5.64698514611883        0.91015971313277       -1.24338406892372
H            6.67250432197157       -0.28910449320504       -0.40918179645979
H           -4.07751509797728        0.20772645221978       -2.48618127985730
31
 energy: -49.346053408431 gnorm: 0.017213552578 xtb: 6.7.1 (edcfbbe)
C           -3.65350159803654        0.17977732592003        1.89123201282123
C           -3.05979326093422        0.59323771944801        0.54688105566392
H           -3.09883573062487        1.68198736510786        0.44064976664170
C           -1.61480604839816        0.15678558837603        0.39753295289290
C           -1.28923676944532       -1.21709058598792        0.40082913142892
C            0.00676429893837       -1.63372530156681        0.28055078344131
C            1.06175268904816       -0.70083924737952        0.14897803372665
C            2.40603657834926       -1.09395117267685        0.02660248898558
C            3.40811928225537       -0.15522441872904       -0.10139485142517
C            3.08855473226484        1.21749818450815       -0.11115544857521
C            1.78453718459553        1.61700325126958        0.00697977035748
C            0.73753597478912        0.68442896455695        0.13960966216337
C           -0.61119560313876        1.08007462676073        0.26201082028249
O            4.68470527173002       -0.63707710817733       -0.21457890221715
C            5.75497937171778        0.29621655534740       -0.33721851959978
C           -3.84783787752334        0.01377941995287       -0.60649420111216
O           -4.65396045849035       -0.88528273913648       -0.53146900180123
O           -3.55867941330835        0.61734040578579       -1.76618298361296
H           -3.07945192240909        0.62526701550906        2.70122325147870
H           -4.68726734694916        0.51326738253411        1.96369417581144
H           -3.63974535147085       -0.90198104555938        2.00454082576132
H           -2.08364974072453       -1.94604110286099        0.49245201372079
H            0.24313709961973       -2.68897118437443        0.28328389349832
H            2.66375077227102       -2.14331052834786        0.03259218039607
H            3.86421875404007        1.95961726209875       -0.21155285032244
H            1.54626189406264        2.67170591486157       -0.00122140532283
H           -0.84217245241705        2.13693306809185        0.24910283185763
H            5.81171951515927        0.94136166219934        0.54293540272933
H            5.64528396524891        0.89851654718022       -1.24233497925836
H            6.65644932707308       -0.30900065130900       -0.40689154350387
H           -4.07268424970851        0.20934813016193       -2.48809774659743
31
 energy: -49.346454869820 gnorm: 0.006802548589 xtb: 6.7.1 (edcfbbe)
C           -3.64651334955740        0.17912454950765        1.89337535569869
C           -3.05675836351905        0.59724509409107        0.54833537219671
H           -3.09923633636435        1.68516175263188        0.44175094213190
C           -1.61441433518521        0.15975174134285        0.39733352903667
C           -1.29031622208334       -1.21185877190970        0.39636419162226
C            0.00420386242399       -1.62685361381756        0.27718051708725
C            1.05721719911133       -0.69465447835877        0.14854298276760
C            2.40040863045603       -1.08552707578250        0.02642970103299
C            3.40397303591976       -0.14994747841885       -0.10097519746515
C            3.08054886344284        1.22055326231129       -0.10985554444510
C            1.77919119567998        1.61962304772948        0.00770520622895
C            0.73425822819434        0.68687756151332        0.13972285012259
C           -0.61228764890972        1.08196641724341        0.26300677131230
O            4.67738444359729       -0.63309105920805       -0.21330537770185
C            5.74842748596298        0.28704971272179       -0.33653583308810
C           -3.84363641546505        0.01195404542096       -0.60243808262975
O           -4.63057083017934       -0.90356404266288       -0.52827369607835
O           -3.55737506737466        0.60678576398180       -1.75509959969597
H           -3.07038188797109        0.61925227501885        2.70117417080477
H           -4.67833292108348        0.51197990986513        1.96540165354230
H           -3.63380510299394       -0.90173688331164        1.99646637485167
H           -2.08520128896303       -1.93779334887977        0.48479753397036
H            0.24155389475154       -2.67983120969789        0.27839000537358
H            2.66007932239270       -2.13215334960663        0.03163556764765
H            3.85503046870099        1.96212570703006       -0.20924850318138
H            1.53988330155844        2.67189477062614       -0.00002276057043
H           -0.84052985029545        2.13711177034556        0.25171315492407
H            5.81296015081009        0.93358410200435        0.54117828554904
H            5.64655433410950        0.88949396092006       -1.24166649572401
H            6.64265194953290       -0.32732317921173       -0.40502440181315
H           -4.05397785911546        0.20445035012494       -2.49497005319758
31
 energy: -49.346569226153 gnorm: 0.003164806629 xtb: 6.7.1 (edcfbbe)
C           -3.64414254871570        0.17946328447203        1.89536400343262
C           -3.05721141371992        0.59947174026776        0.54897437553468
H           -3.10316491289570        1.68681687896479        0.44002464449295
C           -1.61546245105718        0.16377494038168        0.39812871907756
C           -1.29266194289286       -1.20826845747635        0.39432422880798
C            0.00172260405557       -1.62344466907488        0.27467267690837
C            1.05405821936234       -0.69045611323182        0.14802344790116
C            2.39671288310313       -1.08170977215247        0.02607973495479
C            3.40150509656353       -0.14735357309189       -0.10049472582963
C            3.07853203942961        1.22382660839339       -0.10900556753492
C            1.77750924365907        1.62421491303452        0.00862875310307
C            0.73229310118093        0.69115961315129        0.14045139008388
C           -0.61394718361908        1.08692417398456        0.26458264728565
O            4.67246219715038       -0.63332209278901       -0.21225791923026
C            5.74577799816068        0.27969658287515       -0.33626299342599
C           -3.83437449791976        0.00125976232214       -0.60293135690354
O           -4.61130383988858       -0.92445859365327       -0.52532113656124
O           -3.56093951441194        0.60330092203556       -1.75049026842209
H           -3.06490800745748        0.61649877921580        2.70225504364093
H           -4.67554501497053        0.51246060574194        1.97081818879667
H           -3.63087271387600       -0.90183373774866        1.99371966039630
H           -2.08880853993477       -1.93321652828304        0.47919256535668
H            0.23964608410938       -2.67626203403683        0.27328334540607
H            2.65697091287618       -2.12827151464703        0.03075012369192
H            3.85405700847939        1.96492322148894       -0.20815479037976
H            1.53764173641098        2.67626046920451        0.00116006048609
H           -0.84144067199475        2.14218906784946        0.25476071231645
H            5.81617103206262        0.92863054868117        0.53988146155011
H            5.64947112106324        0.88339090215236       -1.24180432614103
H            6.63714178622047       -0.33925113686543       -0.40412542489907
H           -4.04590092294910        0.20523651239825       -2.50113865358586
31
 energy: -49.346642357166 gnorm: 0.004985316365 xtb: 6.7.1 (edcfbbe)
C           -3.64282673897002        0.17965201865529        1.89757835886595
C           -3.06004461590468        0.60159868399613        0.54961274702410
H           -3.11164072112542        1.68812514470124        0.43821743149902
C           -1.61734924732322        0.16995616952092        0.39850173238256
C           -1.29602204190353       -1.20317817128360        0.39081632331185
C           -0.00170201877273       -1.61927448776255        0.27042978657329
C            1.05061344975485       -0.68534590812953        0.14685441614937
C            2.39267835931694       -1.07819086347619        0.02521406369945
C            3.39902656473996       -0.14493769127339       -0.09992736070821
C            3.07845607177659        1.22761290665954       -0.10777103095846
C            1.77733292550949        1.63006418617145        0.01032888709179
C            0.73055029468279        0.69742366288784        0.14152192917268
C           -0.61591386044811        1.09430296102548        0.26687052318278
O            4.66757569495624       -0.63506823259408       -0.21106437222297
C            5.74483660369180        0.27125159158520       -0.33615192893867
C           -3.83043281557354       -0.00724319197066       -0.60269983663205
O           -4.58389491830028       -0.95472688445568       -0.52231257678340
O           -3.56840361256447        0.60164910206165       -1.74694131381705
H           -3.05790348360566        0.61286315175031        2.70307524085154
H           -4.67333082384993        0.51493707249473        1.98007345729869
H           -3.63052658887111       -0.90244537455095        1.99223293253772
H           -2.09373971343709       -1.92736703364519        0.47293059442390
H            0.23650057280623       -2.67246862609443        0.26576350830979
H            2.65263198747540       -2.12546320996965        0.02888304994676
H            3.85596784775407        1.96772037911874       -0.20668655559037
H            1.53752754919819        2.68257265224401        0.00366171380993
H           -0.84335429284697        2.15009955112519        0.25972882056009
H            5.82074809119917        0.92266680076013        0.53869043448866
H            5.65348943305056        0.87605354278255       -1.24242500607088
H            6.63394581893552       -0.35184116859790       -0.40343581615528
H           -4.03380688376686        0.20065256982803       -2.50848153299205
31
 energy: -49.346675874994 gnorm: 0.004421559363 xtb: 6.7.1 (edcfbbe)
C           -3.64321114540475        0.18062535663466        1.89823063290118
C           -3.06237025979705        0.60206244081801        0.54945121171685
H           -3.11793269780547        1.68800723564484        0.43501222104728
C           -1.61821600403281        0.17370421759355        0.39900508354797
C           -1.29757184521705       -1.19995338874486        0.38906908916160
C           -0.00348434494946       -1.61666209326832        0.26777073760275
C            1.04914549130481       -0.68239986231883        0.14605230148599
C            2.39079771655758       -1.07666847749082        0.02417445077900
C            3.39804076989575       -0.14400306013596       -0.09974094623493
C            3.07959063782705        1.22923597863983       -0.10660819262508
C            1.77835287831747        1.63287747021909        0.01227331366666
C            0.73009382544857        0.70123370627361        0.14282871183900
C           -0.61672659126044        1.09860680267668        0.26883014350689
O            4.66579143022895       -0.63675205664100       -0.21063570717618
C            5.74558436199022        0.26736681321936       -0.33628817859426
C           -3.82652676059296       -0.01523623097484       -0.60326525139117
O           -4.56471701732919       -0.97448359630327       -0.52161565613169
O           -3.57678428224948        0.60295334456600       -1.74586685554389
H           -3.05416687951567        0.61149934513047        2.70263498934991
H           -4.67259654570274        0.51908672027970        1.98560557575091
H           -3.63345162280695       -0.90182943373216        1.99262487245159
H           -2.09610470420739       -1.92381311848414        0.46978720742121
H            0.23452952828527       -2.67015625699762        0.26064671277921
H            2.64973026642051       -2.12453771046434        0.02678879694951
H            3.85836783517956        1.96844935969028       -0.20531942199081
H            1.53935962808569        2.68595371655400        0.00658026523070
H           -0.84479255333743        2.15465945044286        0.26350971885145
H            5.82314907611608        0.91922337362605        0.53835489456288
H            5.65546256103630        0.87203718945151       -1.24304385354974
H            6.63373679175770       -0.35743611264693       -0.40336329177029
H           -4.03209065665847        0.19800018030720       -2.51039495528396
31
 energy: -49.346713846261 gnorm: 0.003305117918 xtb: 6.7.1 (edcfbbe)
C           -3.64379310939820        0.18332475455438        1.89852620161723
C           -3.06527880518615        0.60271273606282        0.54865556044481
H           -3.12593213840137        1.68775125547373        0.42928915453244
C           -1.61901097385873        0.17823209558621        0.39956596728688
C           -1.29905036315358       -1.19574552656231        0.38685086609979
C           -0.00550157576817       -1.61304503665949        0.26414613967983
C            1.04761510300763       -0.67875898424615        0.14479348999683
C            2.38861899099712       -1.07488298148758        0.02207265389403
C            3.39702283243565       -0.14315803805257       -0.09970554159636
C            3.08111235205680        1.23049671902811       -0.10419668125778
C            1.78000322752473        1.63543905649023        0.01613589225580
C            0.72981063047232        0.70560254681666        0.14517055777901
C           -0.61733135170487        1.10338340457843        0.27192293934393
O            4.66421380637678       -0.63897490436099       -0.21071856891347
C            5.74684238106500        0.26348924057868       -0.33675985876717
C           -3.82223296081515       -0.02535132148810       -0.60346596540352
O           -4.53485830189482       -1.00321083224913       -0.52266482850669
O           -3.59139778091978        0.60635779924138       -1.74413309490065
H           -3.04862199591016        0.60979826715500        2.70137882769643
H           -4.67068275312125        0.52841910548778        1.99185676223397
H           -3.64042831082527       -0.89944198489882        1.99259647077029
H           -2.09833812477454       -1.91910134910986        0.46596427929936
H            0.23205313458436       -2.66670122875738        0.25367300655256
H            2.64562827016760       -2.12332429793099        0.02256771501828
H            3.86117924685367        1.96847113557611       -0.20221504478963
H            1.54283505654951        2.68922205817894        0.01255994466884
H           -0.84622036316750        2.15951116566276        0.26923834760727
H            5.82531329215898        0.91470965577003        0.53811709303877
H            5.65701537405699        0.86747271979056       -1.24386627494375
H            6.63356223932469       -0.36337961700323       -0.40381765845143
H           -4.03315814114807        0.19233369033943       -2.51044973197533
31
 energy: -49.346746401302 gnorm: 0.002731772702 xtb: 6.7.1 (edcfbbe)
C           -3.64430775239053        0.18760672650549        1.89822507425872
C           -3.06688686113920        0.60355084217061        0.54722563748379
H           -3.13055288530887        1.68769230009399        0.42251750821006
C           -1.61929647092616        0.18083110826823        0.39988295432985
C           -1.29973314129663       -1.19315478850294        0.38529507184975
C           -0.00665874129946       -1.61063950521565        0.26140210437794
C            1.04678582461776       -0.67655637646624        0.14383772360510
C            2.38722218227769       -1.07389684331386        0.01969390651544
C            3.39646183956578       -0.14294878580170       -0.09988095075716
C            3.08202679321389        1.23070075177422       -0.10103111870977
C            1.78124796112111        1.63642343795054        0.02087357457472
C            0.72982056706133        0.70799692101465        0.14785663175189
C           -0.61739810557501        1.10590485422970        0.27486559879120
O            4.66347319859197       -0.64049829924289       -0.21177588991396
C            5.74758199411469        0.26168743830298       -0.33755641626258
C           -3.81795197941088       -0.03371146271354       -0.60344384568615
O           -4.50589291930783       -1.02836270282714       -0.52551293372311
O           -3.60694082388129        0.61035193803221       -1.74239329437975
H           -3.04331926776226        0.60862090422693        2.69975138976518
H           -4.66805419005032        0.54086654002649        1.99570868457289
H           -3.64929751089139       -0.89529561554054        1.99143786565325
H           -2.09931933525752       -1.91610890814423        0.46326062956466
H            0.23046867727703       -2.66422908574881        0.24834380267085
H            2.64243149741463       -2.12260452951992        0.01751145933752
H            3.86268739848178        1.96793192100875       -0.19779122638867
H            1.54599957054511        2.69067120187179        0.01994644496023
H           -0.84664117665332        2.16193336473677        0.27434947726322
H            5.82608089312649        0.91140928393139        0.53798400687429
H            5.65716874232460        0.86533701926894       -1.24440316200651
H            6.63312057807039       -0.36653210632693       -0.40510541301695
H           -4.03933766906939        0.18667375951534       -2.50798667525538
31
 energy: -49.346781954335 gnorm: 0.002971200783 xtb: 6.7.1 (edcfbbe)
C           -3.64478052424621        0.19449581149440        1.89718667791526
C           -3.06729858683846        0.60501286751848        0.54464085018634
H           -3.13206075294277        1.68812218182644        0.41336542665687
C           -1.61919312111041        0.18183115298972        0.39995069646803
C           -1.29993372413360       -1.19200517641889        0.38418763756846
C           -0.00720676928423       -1.60940610675832        0.25926164373027
C            1.04642168374741       -0.67563831498797        0.14318853872754
C            2.38634293573942       -1.07361981260326        0.01680498531749
C            3.39622358303750       -0.14328398367532       -0.10015892888419
C            3.08242097338334        1.23017184688140       -0.09624726984223
C            1.78214467558733        1.63636164705373        0.02750567963627
C            0.73009029929249        0.70873775601650        0.15138550704404
C           -0.61698811786377        1.10666888057042        0.27809845135086
O            4.66308578836717       -0.64140019666425       -0.21419907778232
C            5.74759915544028        0.26118105267651       -0.33891201952577
C           -3.81274463996130       -0.04170141599208       -0.60341996226154
O           -4.47107315816243       -1.05600899463139       -0.53025823693156
O           -3.62730291691799        0.61558966157825       -1.74022732177260
H           -3.03674400786970        0.60763245531359        2.69723328458774
H           -4.66401842003721        0.55932728122938        1.99817580094225
H           -3.66168024406185       -0.88841244020772        1.98851172786689
H           -2.09955281028919       -1.91463531290395        0.46105733685418
H            0.22952582762397       -2.66280612705073        0.24404730478062
H            2.63996140656569       -2.12240373510455        0.01085465238603
H            3.86319708452905        1.96719746874513       -0.19075858933173
H            1.54876124291951        2.69085552650454        0.03028873473510
H           -0.84596042516891        2.16254207189223        0.27959442444120
H            5.82604706362948        0.90859050242587        0.53785061475296
H            5.65617927539153        0.86563582252929       -1.24463984082972
H            6.63219420138771       -0.36782796552240       -0.40787497661677
H           -4.05266809016965        0.18084689883962       -2.50340513185940
31
 energy: -49.346812807169 gnorm: 0.002977617936 xtb: 6.7.1 (edcfbbe)
C           -3.64536278736882        0.20233670184107        1.89514756112600
C           -3.06611456860952        0.60618318293609        0.54099803846593
H           -3.12899489603512        1.68848249247911        0.40371810214871
C           -1.61849040565632        0.18014062866686        0.39963656240672
C           -1.29926381966460       -1.19348228450113        0.38429509317445
C           -0.00649301648105       -1.61055290489229        0.25902922571828
C            1.04710831382669       -0.67697934810634        0.14347390282530
C            2.38685504747389       -1.07460898226283        0.01463313054188
C            3.39678118493914       -0.14421878892258       -0.10029740973441
C            3.08253732899788        1.22905641675345       -0.09096346424505
C            1.78262879995137        1.63510025110835        0.03429587205459
C            0.73087657453123        0.70703879522937        0.15486582332437
C           -0.61600437031140        1.10485143724190        0.28045450331885
O            4.66355315571461       -0.64118690422596       -0.21757360573659
C            5.74703502070783        0.26254677281760       -0.34054908348864
C           -3.80825791629824       -0.04703493597483       -0.60402611847993
O           -4.44169861979780       -1.07663119874135       -0.53519179053710
O           -3.64850653472443        0.62085923106389       -1.73868432938205
H           -3.03074490759630        0.60738096548967        2.69385056192154
H           -4.65972709999282        0.57960728308419        1.99807787068673
H           -3.67489319096946       -0.88035046258319        1.98466833870508
H           -2.09863980228652       -1.91611268068729        0.46066885226812
H            0.23004862590590       -2.66381684916145        0.24312426215458
H            2.63994282792629       -2.12331219150248        0.00493077169207
H            3.86294010928720        1.96664847613456       -0.18272316053112
H            1.54995587061379        2.68950747475177        0.04079687055371
H           -0.84424992444781        2.16066095960609        0.28288326538500
H            5.82559891148592        0.90737249884752        0.53792400376171
H            5.65429412874840        0.86944445978698       -1.24432741031217
H            6.63168164829225       -0.36587366948901       -0.41201715973636
H           -4.07340680057798        0.17859447677689       -2.49803045973964
31
 energy: -49.346830277339 gnorm: 0.004346745521 xtb: 6.7.1 (edcfbbe)
C           -3.64576089326974        0.21183337410545        1.89194486757538
C           -3.06463532693945        0.60766249327018        0.53562981000803
H           -3.12575518692142        1.68904480105270        0.39137072669510
C           -1.61754694626450        0.17838257459251        0.39877990632588
C           -1.29848787525221       -1.19515784622924        0.38452745272757
C           -0.00551592852062       -1.61210700064775        0.25951298040829
C            1.04806598753836       -0.67863240703633        0.14452921133029
C            2.38770519891874       -1.07570111193686        0.01301575321051
C            3.39766126439033       -0.14510114394073       -0.09988636607135
C            3.08307990878020        1.22825302295711       -0.08422626785495
C            1.78347397904989        1.63417566801991        0.04252363770185
C            0.73206605301823        0.70518845851358        0.15911065828574
C           -0.61468718825944        1.10313409673004        0.28277950660274
O            4.66387554031064       -0.64082421828924       -0.22152861260683
C            5.74637811908998        0.26306545695435       -0.34249067835023
C           -3.80298002996048       -0.05485253764934       -0.60554268225873
O           -4.40169890636678       -1.10787931493070       -0.54021947575592
O           -3.68021185132606        0.62934285286483       -1.73591123567440
H           -3.02234350332865        0.60676856193906        2.68870044199472
H           -4.65384442290426        0.60483812555561        1.99813893328495
H           -3.69092260552769       -0.87048891592925        1.97935088640956
H           -2.09784608294630       -1.91775002643038        0.46024792583988
H            0.23086094697642       -2.66538512502510        0.24328282022432
H            2.64084481427401       -2.12435024529155       -0.00090679714329
H            3.86334691873475        1.96649756293887       -0.17257846885383
H            1.55070178193046        2.68836263002911        0.05331231582585
H           -0.84203189299981        2.15901537511954        0.28594986224767
H            5.82665083255937        0.90495497719697        0.53819252312382
H            5.65264765684824        0.87417984913351       -1.24354381078491
H            6.63122425408933       -0.36468973471160       -0.41787925805827
H           -4.10332572813736        0.17987105063944       -2.49309794609886
31
 energy: -49.346849733839 gnorm: 0.003640186326 xtb: 6.7.1 (edcfbbe)
C           -3.64646930580095        0.21868745739780        1.88715039184007
C           -3.06084339388800        0.60661192618693        0.52964201139371
H           -3.11517133519745        1.68794196396087        0.38230915906453
C           -1.61541462724281        0.17153179885752        0.39706752554402
C           -1.29546261622935       -1.20165516191450        0.38740096437230
C           -0.00160805726395       -1.61791129898152        0.26433689357023
C            1.05160673020550       -0.68427358354456        0.14750018497814
C            2.39194506869579       -1.07904525863326        0.01430987049428
C            3.40049449892216       -0.14682061149726       -0.09896236591858
C            3.08382117557214        1.22641990117667       -0.07948651653355
C            1.78398267526795        1.63070883681809        0.04734577561608
C            0.73439626804941        0.69911068570753        0.16146398218957
C           -0.61242776789598        1.09650735370589        0.28190165811524
O            4.66698942029813       -0.63850700512831       -0.22528309493234
C            5.74611885584782        0.26794547407226       -0.34409210425543
C           -3.80380171797435       -0.05389615577284       -0.60808108607753
O           -4.39407308518185       -1.10838538008825       -0.54337079847949
O           -3.70260203832982        0.63465188954746       -1.73561667278914
H           -3.01894095806738        0.60772441529482        2.68301470853654
H           -4.64987771199759        0.62301644119255        1.99221898363717
H           -3.70287808214518       -0.86277690142602        1.97498485280592
H           -2.09410442053846       -1.92497384584833        0.46439505185084
H            0.23508335934168       -2.67128851048800        0.25128314472408
H            2.64716058602788       -2.12730147672689       -0.00149962628609
H            3.86303469690999        1.96630944788217       -0.16523816076303
H            1.54880992993897        2.68417700598533        0.06031998131676
H           -0.83907876423334        2.15249827991680        0.28294813342241
H            5.82722479284212        0.90683953662427        0.53920826631185
H            5.64988737282909        0.88436354249618       -1.24182199206272
H            6.63323864326565       -0.35625765636224       -0.42448599250493
H           -4.14005130444369        0.18969819315356       -2.48777450887028
31
 energy: -49.346864603181 gnorm: 0.002001683464 xtb: 6.7.1 (edcfbbe)