      -----------------------------------------------------------      
     |                   =====================                   |     
     |                           x T B                           |     
     |                   =====================                   |     
     |                         S. Grimme                         |     
     |          Mulliken Center for Theoretical Chemistry        |     
     |                    University of Bonn                     |     
      -----------------------------------------------------------      

   * xtb version 6.7.1 (edcfbbe) compiled by 'albert@albert-system' on 2024-07-22

   xtb is free software: you can redistribute it and/or modify it under
   the terms of the GNU Lesser General Public License as published by
   the Free Software Foundation, either version 3 of the License, or
   (at your option) any later version.
   
   xtb is distributed in the hope that it will be useful,
   but WITHOUT ANY WARRANTY; without even the implied warranty of
   MERCHANTABILITY or FITNESS FOR A PARTICULAR PURPOSE.  See the
   GNU Lesser General Public License for more details.
   
   Cite this work as:
   * C. Bannwarth, E. Caldeweyher, S. Ehlert, A. Hansen, P. Pracht,
     J. Seibert, S. Spicher, S. Grimme, WIREs Comput. Mol. Sci., 2020, 11,
     e01493. DOI: 10.1002/wcms.1493
   
   for GFN2-xTB:
   * C. Bannwarth, S. Ehlert and S. Grimme., J. Chem. Theory Comput., 2019,
     15, 1652-1671. DOI: 10.1021/acs.jctc.8b01176
   for GFN1-xTB:
   * S. Grimme, C. Bannwarth, P. Shushkov, J. Chem. Theory Comput., 2017,
     13, 1989-2009. DOI: 10.1021/acs.jctc.7b00118
   for GFN0-xTB:
   * P. Pracht, E. Caldeweyher, S. Ehlert, S. Grimme, ChemRxiv, 2019, preprint.
     DOI: 10.26434/chemrxiv.8326202.v1
   for GFN-FF:
   * S. Spicher and S. Grimme, Angew. Chem. Int. Ed., 2020, 59, 15665-15673.
     DOI: 10.1002/anie.202004239
   
   for ALPB and GBSA implicit solvation:
   * S. Ehlert, M. Stahn, S. Spicher, S. Grimme, J. Chem. Theory Comput.,
     2021, 17, 4250-4261. DOI: 10.1021/acs.jctc.1c00471
   
   for ddCOSMO and CPCM-X implicit solvation:
   * M. Stahn, S. Ehlert, S. Grimme, J. Phys. Chem. A,
     2023, XX, XXXX-XXXX. DOI: 10.1021/acs.jpca.3c04382
   
   for DFT-D4:
   * E. Caldeweyher, C. Bannwarth and S. Grimme, J. Chem. Phys., 2017,
     147, 034112. DOI: 10.1063/1.4993215
   * E. Caldeweyher, S. Ehlert, A. Hansen, H. Neugebauer, S. Spicher,
     C. Bannwarth and S. Grimme, J. Chem. Phys., 2019, 150, 154122.
     DOI: 10.1063/1.5090222
   * E. Caldeweyher, J.-M. Mewes, S. Ehlert and S. Grimme, Phys. Chem. Chem. Phys.
     2020, 22, 8499-8512. DOI: 10.1039/D0CP00502A
   
   for sTDA-xTB:
   * S. Grimme and C. Bannwarth, J. Chem. Phys., 2016, 145, 054103.
     DOI: 10.1063/1.4959605
   
   in the mass-spec context:
   * V. Asgeirsson, C. Bauer and S. Grimme, Chem. Sci., 2017, 8, 4879.
     DOI: 10.1039/c7sc00601b
   * J. Koopman and S. Grimme, ACS Omega 2019, 4, 12, 15120-15133.
     DOI: 10.1021/acsomega.9b02011
   
   for metadynamics refer to:
   * S. Grimme, J. Chem. Theory Comput., 2019, 155, 2847-2862
     DOI: 10.1021/acs.jctc.9b00143
   
   for SPH calculations refer to:
   * S. Spicher and S. Grimme, J. Chem. Theory Comput., 2021, 17, 1701-1714
     DOI: 10.1021/acs.jctc.0c01306
   
   for ONIOM refer to:
   * C. Plett, A. Katbashev, S. Ehlert, S. Grimme, M. Bursch,
     Phys. Chem. Chem. Phys., 2023, 25, 17860-17868. DOI: 10.1039/D3CP02178E
   
   for DIPRO refer to:
   * J. Kohn, N. Gildemeister, S. Grimme, D. Fazzi, A. Hansen,
     J. Chem. Phys., 2023, just accepted.
   
   for PTB refer to:
   * S. Grimme, M. Mueller, A. Hansen, J. Chem. Phys., 2023, 158, 124111.
     DOI: 10.1063/5.0137838
   
   with help from (in alphabetical order)
   P. Atkinson, C. Bannwarth, F. Bohle, G. Brandenburg, E. Caldeweyher
   M. Checinski, S. Dohm, S. Ehlert, S. Ehrlich, I. Gerasimov, C. Hölzer
   A. Katbashev, J. Kohn, J. Koopman, C. Lavigne, S. Lehtola, F. März, M. Müller,
   F. Musil, H. Neugebauer, J. Pisarek, C. Plett, P. Pracht, F. Pultar,
   J. Seibert, P. Shushkov, S. Spicher, M. Stahn, M. Steiner, T. Strunk,
   J. Stückrath, T. Rose, and J. Unsleber
   
 * started run on 2025/04/11 at 17:10:20.144     
   ID    Z sym.   atoms
    1    6 C      1-7, 9-15, 18, 19
    2    8 O      8, 16, 20
    3    7 N      17
    4    1 H      21-33

           -------------------------------------------------
          |                Calculation Setup                |
           -------------------------------------------------

          program call               : /srv/scratch/z5358697/.xtb/bin/xtb xtb_opt.coord --opt normal --orca -I xtb_opt-xcontrol-inp
          hostname                   : k030
          coordinate file            : xtb_opt.coord
          omp threads                :                    16

           -------------------------------------------------
          |                   Orca driver                   |
           -------------------------------------------------
orca executable           : /apps/z_install_tree/linux-rocky8-ivybridge/gcc-12.2.0/orca-6.0.0-srtngmq3qlimg2qxbl6avaaiffipurdx/bin/orca
orca input file           : xtb_opt.inp
orca input line           : 
orca parallel             : true
orca number of threads    : 16
                         * ORCA takes the control...
  ------------------------------------------------------------------------

                                 *****************
                                 * O   R   C   A *
                                 *****************

                                            #,                                       
                                            ###                                      
                                            ####                                     
                                            #####                                    
                                            ######                                   
                                           ########,                                 
                                     ,,################,,,,,                         
                               ,,#################################,,                 
                          ,,##########################################,,             
                       ,#########################################, ''#####,          
                    ,#############################################,,   '####,        
                  ,##################################################,,,,####,       
                ,###########''''           ''''###############################       
              ,#####''   ,,,,##########,,,,          '''####'''          '####       
            ,##' ,,,,###########################,,,                        '##       
           ' ,,###''''                  '''############,,,                           
         ,,##''                                '''############,,,,        ,,,,,,###''
      ,#''                                            '''#######################'''  
     '                                                          ''''####''''         
             ,#######,   #######,   ,#######,      ##                                
            ,#'     '#,  ##    ##  ,#'     '#,    #''#        ,####,   ,####,        
            ##       ##  ##   ,#'  ##            #'  '#       #'       #'  '#        
            ##       ##  #######   ##           ,######,      #####,   #    #        
            '#,     ,#'  ##    ##  '#,     ,#' ,#      #,     #,   #   #,  ,#        
             '#######'   ##     ##  '#######'  #'      '#     '####' # '####'        



                #########################################################
                #                        -***-                          #
                #          Department of theory and spectroscopy        #
                #                                                       #
                #                      Frank Neese                      #
                #                                                       #
                #     Directorship, Architecture, Infrastructure        #
                #                    SHARK, DRIVERS                     #
                #        Core code/Algorithms in most modules           #
                #                                                       #
                #        Max Planck Institute fuer Kohlenforschung      #
                #                Kaiser Wilhelm Platz 1                 #
                #                 D-45470 Muelheim/Ruhr                 #
                #                      Germany                          #
                #                                                       #
                #                  All rights reserved                  #
                #                        -***-                          #
                #########################################################


                         Program Version 6.0.0  -   RELEASE  -


 With contributions from (in alphabetic order):
   Daniel Aravena         : Magnetic Suceptibility
   Michael Atanasov       : Ab Initio Ligand Field Theory (pilot matlab implementation)
   Alexander A. Auer      : GIAO ZORA, VPT2 properties, NMR spectrum
   Ute Becker             : All parallelization in ORCA, NUMFREQ, NUMCALC
   Giovanni Bistoni       : ED, misc. LED, open-shell LED, HFLD
   Martin Brehm           : Molecular dynamics
   Dmytro Bykov           : pre 5.0 version of the SCF Hessian
   Marcos Casanova-Páez   : Triplet and SCS-CIS(D). UHF-(DLPNO)-IP/EA/STEOM-CCSD. UHF-CVS-IP/STEOM-CCSD
   Vijay G. Chilkuri      : MRCI spin determinant printing, contributions to CSF-ICE
   Pauline Colinet        : FMM embedding
   Dipayan Datta          : RHF DLPNO-CCSD density
   Achintya Kumar Dutta   : EOM-CC, STEOM-CC
   Nicolas Foglia         : Exact transition moments, OPA infrastructure, MCD improvements
   Dmitry Ganyushin       : Spin-Orbit,Spin-Spin,Magnetic field MRCI
   Miquel Garcia          : C-PCM and meta-GGA Hessian, CCSD/C-PCM, Gaussian charge scheme
   Tiago L. C. Gouveia    : GS-ROHF, GS-ROCIS
   Yang Guo               : DLPNO-NEVPT2, F12-NEVPT2, CIM, IAO-localization
   Andreas Hansen         : Spin unrestricted coupled pair/coupled cluster methods
   Ingolf Harden          : AUTO-CI MPn and infrastructure 
   Benjamin Helmich-Paris : MC-RPA, TRAH-(SCF,CASSCF), AVAS, COSX integrals, SCF dyn. polar.
   Lee Huntington         : MR-EOM, pCC
   Robert Izsak           : Overlap fitted RIJCOSX, COSX-SCS-MP3, EOM
   Riya Kayal             : Wick's Theorem for AUTO-CI, AUTO-CI UHF-CCSDT
   Emily Kempfer          : AUTO-CI, RHF CISDT and CCSDT
   Christian Kollmar      : KDIIS, OOCD, Brueckner-CCSD(T), CCSD density, CASPT2, CASPT2-K, improved NEVPT2
   Axel Koslowski         : Symmetry handling
   Simone Kossmann        : Meta GGA functionals, TD-DFT gradient, OOMP2, (MP2 Hessian; deprecated post 5.0)
   Lucas Lang             : DCDCAS
   Marvin Lechner         : AUTO-CI (C++ implementation), FIC-MRCC
   Spencer Leger          : CASSCF response
   Dagmar Lenk            : GEPOL surface, SMD, ORCA-2-JSON
   Dimitrios Liakos       : Extrapolation schemes; Compound Job, initial MDCI parallelization
   Dimitrios Manganas     : Further ROCIS development; embedding schemes. LFT, Crystal Embedding
   Dimitrios Pantazis     : SARC Basis sets
   Anastasios Papadopoulos: AUTO-CI, single reference methods and gradients
   Taras Petrenko         : pre 6.0 DFT Hessian and TD-DFT gradient, (ASA, deprecated), ECA, 1-Electron XAS/XES, NRVS
   Peter Pinski           : DLPNO-MP2, DLPNO-MP2 Gradient
   Christoph Reimann      : Effective Core Potentials
   Marius Retegan         : Local ZFS, SOC
   Christoph Riplinger    : Optimizer, TS searches, QM/MM, DLPNO-CCSD(T), (RO)-DLPNO pert. Triples
   Michael Roemelt        : Original ROCIS implementation
   Masaaki Saitow         : Open-shell DLPNO-CCSD energy and density
   Barbara Sandhoefer     : DKH picture change effects
   Kantharuban Sivalingam : CASSCF convergence/infrastructure, NEVPT2 and variants, FIC-MRCI
   Bernardo de Souza      : ESD, SOC TD-DFT
   Georgi Stoychev        : AutoAux, RI-MP2 NMR, DLPNO-MP2 response, X2C
   Van Anh Tran           : RI-MP2 g-tensors
   Willem Van den Heuvel  : Paramagnetic NMR
   Zikuan Wang            : NOTCH, Electric field optimization 
   Frank Wennmohs         : Technical directorship and infrastructure
   Hang Xu                : AUTO-CI-Response properties 


 We gratefully acknowledge several colleagues who have allowed us to
 interface, adapt or use parts of their codes:
   Stefan Grimme, W. Hujo, H. Kruse, P. Pracht,  : VdW corrections, initial TS optimization,
                  C. Bannwarth, S. Ehlert,         DFT functionals, gCP, sTDA/sTD-DF
                  L. Wittmann, M. Mueller
   Ed Valeev, F. Pavosevic, A. Kumar             : LibInt (2-el integral package), F12 methods
   Garnet Chan, S. Sharma, J. Yang, R. Olivares  : DMRG
   Ulf Ekstrom                                   : XCFun DFT Library
   Mihaly Kallay                                 : mrcc  (arbitrary order and MRCC methods)
   Frank Weinhold                                : gennbo (NPA and NBO analysis)
   Simon Mueller                                 : openCOSMO-RS
   Christopher J. Cramer and Donald G. Truhlar   : smd solvation model
   Lars Goerigk                                  : TD-DFT with DH, B97 family of functionals
   V. Asgeirsson, H. Jonsson                     : NEB implementation
   FAccTs GmbH                                   : IRC, NEB, NEB-TS, DLPNO-Multilevel, CI-OPT
                                                   MM, QMMM, 2- and 3-layer-ONIOM, Crystal-QMMM,
                                                   LR-CPCM, SF, NACMEs, symmetry and pop. for TD-DFT,
                                                   nearIR, NL-DFT gradient (VV10), updates on ESD,
                                                   ML-optimized integration grids, MBIS, APM,
                                                   GOAT, DOCKER, SOLVATOR, interface openCOSMO-RS
   S Lehtola, MJT Oliveira, MAL Marques          : LibXC Library
   Liviu Ungur et al                             : ANISO software


 Your calculation uses the libint2 library for the computation of 2-el integrals
 For citations please refer to: http://libint.valeyev.net

 Your ORCA version has been built with support for libXC version: 6.2.2
 For citations please refer to: https://libxc.gitlab.io

 This ORCA versions uses:
   CBLAS   interface :  Fast vector & matrix operations
   LAPACKE interface :  Fast linear algebra routines
   SCALAPACK package :  Parallel linear algebra routines
   Shared memory     :  Shared parallel matrices
   BLAS/LAPACK       :  OpenBLAS 0.3.27  USE64BITINT DYNAMIC_ARCH NO_AFFINITY SkylakeX SINGLE_THREADED
        Core in use  :  SkylakeX
   Copyright (c) 2011-2014, The OpenBLAS Project




***************************************
The coordinates will be read from file: xtb_opt.xyz
***************************************


Your calculation utilizes the geometrical counterpoise correction gCP
Please cite in your paper:
H.Kruse, S. Grimme J.Chem.Phys., 136, (2012), 154101 
   

Your calculation utilizes the atom-pairwise dispersion correction
based on EEQ partial charges (D4)


Your calculation utilizes the SMD solvation module
Please cite in your paper:
A.V. Marenich, C.J. Cramer, D.G. Truhlar J. Phys. Chem. B, 113, (2009), 6378 

================================================================================

----- Orbital basis set information -----
Your calculation utilizes the basis: def2-mTZVPP
   Stefan Grimme, Andreas Hansen, Sebastian Ehlert, and Jan-Michael Mewes 
   J. Chem. Phys. 154, 064103 (2021). DOI: 10.1063/5.0040021

----- AuxJ basis set information -----
Your calculation utilizes the auxiliary basis: def2/J
   F. Weigend, Phys. Chem. Chem. Phys. 8, 1057 (2006).

================================================================================
                                        WARNINGS
                       Please study these warnings very carefully!
================================================================================

WARNING: Old DensityContainer found on disk!
         Will remove this file - 
         If you want to keep old densities, please start your calculation with a different basename. 

Using LibXC functional ID 497 : Re-regularized SCAN exchange by Furness et al
[ 1]  J. W. Furness, A. D. Kaplan, J. Ning, J. P. Perdew, and J. Sun.,  J. Phys. Chem. Lett. 11, 8208-8215 (2020)
[ 2]  J. W. Furness, A. D. Kaplan, J. Ning, J. P. Perdew, and J. Sun.,  J. Phys. Chem. Lett. 11, 9248-9248 (2020)
Using LibXC functional ID 498 : Re-regularized SCAN correlation by Furness et al
[ 1]  J. W. Furness, A. D. Kaplan, J. Ning, J. P. Perdew, and J. Sun.,  J. Phys. Chem. Lett. 11, 8208-8215 (2020)
[ 2]  J. W. Furness, A. D. Kaplan, J. Ning, J. P. Perdew, and J. Sun.,  J. Phys. Chem. Lett. 11, 9248-9248 (2020)
Using LibXC functional ID 497 : Re-regularized SCAN exchange by Furness et al
[ 1]  J. W. Furness, A. D. Kaplan, J. Ning, J. P. Perdew, and J. Sun.,  J. Phys. Chem. Lett. 11, 8208-8215 (2020)
[ 2]  J. W. Furness, A. D. Kaplan, J. Ning, J. P. Perdew, and J. Sun.,  J. Phys. Chem. Lett. 11, 9248-9248 (2020)
Using LibXC functional ID 498 : Re-regularized SCAN correlation by Furness et al
[ 1]  J. W. Furness, A. D. Kaplan, J. Ning, J. P. Perdew, and J. Sun.,  J. Phys. Chem. Lett. 11, 8208-8215 (2020)
[ 2]  J. W. Furness, A. D. Kaplan, J. Ning, J. P. Perdew, and J. Sun.,  J. Phys. Chem. Lett. 11, 9248-9248 (2020)

================================================================================
                                       INPUT FILE
================================================================================
NAME = xtb_opt.inp
|  1> ! r2scan-3c def2/J RI DEFGRID2 scfconv7 ENGRAD tightSCF miniprint
|  2> %cpcm
|  3>     smd true
|  4>     smdsolvent "water"
|  5> end
|  6> * xyzfile 0 1 xtb_opt.xyz
|  7> 
|  8>                          ****END OF INPUT****
================================================================================

                     *******************************
                     * Energy+Gradient Calculation *
                     *******************************

---------------------------------
CARTESIAN COORDINATES (ANGSTROEM)
---------------------------------
  C     -4.632894   -0.970963    0.274680
  C     -3.950697   -2.175774    0.097690
  C     -2.572725   -2.182174   -0.072300
  C     -1.855513   -0.982695   -0.068847
  C     -2.543917    0.228190    0.112039
  C     -3.931525    0.225586    0.283081
  C     -1.807562    1.503904    0.123707
  O     -2.398117    2.575289    0.296687
  C     -0.337973    1.461658   -0.077542
  C      0.338946    2.669435   -0.071096
  C      1.724947    2.687252   -0.256032
  C      2.430712    1.522708   -0.442217
  C      1.777616    0.261186   -0.461736
  C      0.351064    0.231356   -0.271456
  C     -0.383964   -1.018227   -0.262986
  O      0.169068   -2.131207   -0.415536
  N      2.471359   -0.877748   -0.678761
  C      3.918332   -1.019373   -0.748901
  C      4.557364   -1.292062    0.607606
  O      4.452623   -0.183231    1.512259
  H     -5.709858   -0.969685    0.405756
  H     -4.498375   -3.112500    0.091925
  H     -2.042238   -3.117078   -0.210143
  H     -4.449234    1.168207    0.420707
  H     -0.210163    3.590925    0.077445
  H      2.256660    3.633307   -0.250165
  H      3.503347    1.571736   -0.573017
  H      1.915647   -1.726765   -0.614966
  H      4.373335   -0.141044   -1.212748
  H      4.134392   -1.874738   -1.398516
  H      5.626883   -1.469071    0.455877
  H      4.117610   -2.193937    1.054088
  H      3.532652   -0.121981    1.800938

----------------------------
CARTESIAN COORDINATES (A.U.)
----------------------------
  NO LB      ZA    FRAG     MASS         X           Y           Z
   0 C     6.0000    0    12.011   -8.754900   -1.834854    0.519070
   1 C     6.0000    0    12.011   -7.465735   -4.111617    0.184608
   2 C     6.0000    0    12.011   -4.861745   -4.123711   -0.136627
   3 C     6.0000    0    12.011   -3.506411   -1.857024   -0.130102
   4 C     6.0000    0    12.011   -4.807307    0.431217    0.211723
   5 C     6.0000    0    12.011   -7.429505    0.426296    0.534946
   6 C     6.0000    0    12.011   -3.415797    2.841966    0.233771
   7 O     8.0000    0    15.999   -4.531784    4.866592    0.560657
   8 C     6.0000    0    12.011   -0.638677    2.762134   -0.146533
   9 C     6.0000    0    12.011    0.640515    5.044501   -0.134352
  10 C     6.0000    0    12.011    3.259677    5.078171   -0.483830
  11 C     6.0000    0    12.011    4.593381    2.877500   -0.835670
  12 C     6.0000    0    12.011    3.359207    0.493569   -0.872555
  13 C     6.0000    0    12.011    0.663415    0.437200   -0.512978
  14 C     6.0000    0    12.011   -0.725587   -1.924171   -0.496971
  15 O     8.0000    0    15.999    0.319493   -4.027397   -0.785250
  16 N     7.0000    0    14.007    4.670191   -1.658703   -1.282672
  17 C     6.0000    0    12.011    7.404575   -1.926335   -1.415218
  18 C     6.0000    0    12.011    8.612170   -2.441643    1.148208
  19 O     8.0000    0    15.999    8.414239   -0.346257    2.857756
  20 H     1.0000    0     1.008  -10.790068   -1.832439    0.766767
  21 H     1.0000    0     1.008   -8.500696   -5.881772    0.173713
  22 H     1.0000    0     1.008   -3.859270   -5.890425   -0.397113
  23 H     1.0000    0     1.008   -8.407834    2.207591    0.795021
  24 H     1.0000    0     1.008   -0.397151    6.785865    0.146351
  25 H     1.0000    0     1.008    4.264470    6.865956   -0.472744
  26 H     1.0000    0     1.008    6.620367    2.970150   -1.082844
  27 H     1.0000    0     1.008    3.620048   -3.263113   -1.162118
  28 H     1.0000    0     1.008    8.264405   -0.266535   -2.291762
  29 H     1.0000    0     1.008    7.812868   -3.542740   -2.642812
  30 H     1.0000    0     1.008   10.633269   -2.776142    0.861483
  31 H     1.0000    0     1.008    7.781156   -4.145941    1.991937
  32 H     1.0000    0     1.008    6.675745   -0.230510    3.403280

------------------------------------------------------------------------------
                   ___                                                        
                  /   \      - P O W E R E D   B Y -                         
                 /     \                                                     
                 |  |  |   _    _      __       _____    __    __             
                 |  |  |  | |  | |    /  \     |  _  \  |  |  /  |          
                  \  \/   | |  | |   /    \    | | | |  |  | /  /          
                 / \  \   | |__| |  /  /\  \   | |_| |  |  |/  /          
                |  |  |   |  __  | /  /__\  \  |    /   |      \           
                |  |  |   | |  | | |   __   |  |    \   |  |\   \          
                \     /   | |  | | |  |  |  |  | |\  \  |  | \   \       
                 \___/    |_|  |_| |__|  |__|  |_| \__\ |__|  \__/        
                                                                              
                      - O R C A' S   B I G   F R I E N D -                    
                                      &                                       
                       - I N T E G R A L  F E E D E R -                       
                                                                              
 v1 FN, 2020, v2 2021, v3 2022-2024                                           
------------------------------------------------------------------------------


----------------------
SHARK INTEGRAL PACKAGE
----------------------

Number of atoms                             ...     33
Number of basis functions                   ...    465
Number of shells                            ...    223
Maximum angular momentum                    ...      2
Integral batch strategy                     ... SHARK/LIBINT Hybrid
RI-J (if used) integral strategy            ... SPLIT-RIJ (Revised 2003 algorithm where possible)
Printlevel                                  ...      1
Contraction scheme used                     ... SEGMENTED contraction
Prescreening option                         ... SCHWARTZ
   Thresh                                   ... 3.000e-11
   Tcut                                     ... 1.000e-12
   Tpresel                                  ... 1.000e-12 
Coulomb Range Separation                    ... NOT USED
Exchange Range Separation                   ... NOT USED
Multipole approximations                    ... NOT USED
Finite Nucleus Model                        ... NOT USED
CABS basis                                  ... NOT available
Auxiliary Coulomb fitting basis             ... AVAILABLE
   # of basis functions in Aux-J            ...   1123
   # of shells in Aux-J                     ...    365
   Maximum angular momentum in Aux-J        ...      4
Auxiliary J/K fitting basis                 ... NOT available
Auxiliary Correlation fitting basis         ... NOT available
Auxiliary 'external' fitting basis          ... NOT available

Checking pre-screening integrals            ... done (  0.0 sec) Dimension = 223
Check shell pair data                       ... done (  0.0 sec)
Shell pair information
Shell pair cut-off parameter TPreSel        ...   1.0e-12
Total number of shell pairs                 ...     24976
Shell pairs after pre-screening             ...     18526
Total number of primitive shell pairs       ...     92714
Primitive shell pairs kept                  ...     43987
          la=0 lb=0:   5575 shell pairs
          la=1 lb=0:   7045 shell pairs
          la=1 lb=1:   2205 shell pairs
          la=2 lb=0:   2128 shell pairs
          la=2 lb=1:   1355 shell pairs
          la=2 lb=2:    218 shell pairs

Calculating one electron integrals          ... done (  0.1 sec)
Calculating RI/J V-Matrix + Cholesky decomp.... done (  0.2 sec)
Calculating Nuclear repulsion               ... done (  0.0 sec) ENN=   1466.539673280259 Eh

Diagonalization of the overlap matrix:
Smallest eigenvalue                        ... 6.265e-06
Time for diagonalization                   ...    0.028 sec
Threshold for overlap eigenvalues          ... 1.000e-07
Number of eigenvalues below threshold      ... 0
Time for construction of square roots      ...    0.040 sec
Total time needed                          ...    0.114 sec

-------------------
DFT GRID GENERATION
-------------------

General Integration Accuracy     IntAcc      ... 4.388
Radial Grid Type                 RadialGrid  ... OptM3 with GC (2021)
Angular Grid (max. ang.)         AngularGrid ... 4 (Lebedev-302)
Angular grid pruning method      GridPruning ... 4 (adaptive)
Weight generation scheme         WeightScheme... mBecke (2022)
Basis function cutoff            BFCut       ... 1.0000e-11
Integration weight cutoff        WCut        ... 1.0000e-14
Partially contracted basis set               ... off
Rotationally invariant grid construction     ... off
Angular grids for H and He will be reduced by one unit
Diffuse basis detected: some atoms will have their outermost
                        angular grid increased by 1.

Total number of grid points                  ...   161846
Total number of batches                      ...     2545
Average number of points per batch           ...       63
Average number of grid points per atom       ...     4904
Initializing property integral containers    ... done (  0.1 sec)

SHARK setup successfully completed in   3.4 seconds

Maximum memory used throughout the entire STARTUP-calculation: 84.7 MB
Occupation numbers will be reassigned to an Aufbau configuration
             **** ENERGY FILE WAS UPDATED (xtb_opt.en.tmp) ****
Finished Guess after   0.7 sec
Maximum memory used throughout the entire GUESS-calculation: 45.5 MB
--------------------
CPCM SOLVATION MODEL
--------------------
CPCM parameters:
  Epsilon                                         ...      78.3550
  Refrac                                          ...       1.3328
  Rsolv                                           ...       1.3000
  Surface type                                    ... GAUSSIAN VDW
  Discretization scheme                           ... Constant charge density
    Threshold for H atoms                         ...       5.0000 (charges/Ang^2)
    Threshold for non-H atoms                     ...       5.0000 (charges/Ang^2)
  Epsilon function type                           ...         CPCM
Solvent:                                          ... WATER
SMD-CDS solvent descriptors:
  Soln                                            ...       1.3328
  Soln25                                          ...       1.3323
  Sola                                            ...       0.0000
  Solb                                            ...       0.0000
  Solg                                            ...       0.0000
  Solc                                            ...       0.0000
  Solh                                            ...       0.0000
Radii:
  Scheme                                          ... Element-dependent radii
  Radius for C  used is    3.4960 Bohr (=   1.8500 Ang.)
  Radius for O  used is    2.8724 Bohr (=   1.5200 Ang.)
  Radius for N  used is    3.5716 Bohr (=   1.8900 Ang.)
  Radius for H  used is    2.2677 Bohr (=   1.2000 Ang.)
Calculating surface                               ...        done! (  0.0s)
Cavity surface points                             ...         2460
Cavity Volume                                     ...    1729.0641
Cavity Surface-area                               ...     970.9412
Calculating surface distance matrix               ...        done! (  0.1s)
Performing Cholesky decomposition & store         ...        done! (  0.4s)
Overall time for CPCM initialization              ...                 0.5s

----------------------------------------D-I-I-S--------------------------------------------
Iteration    Energy (Eh)           Delta-E    RMSDP     MaxDP     DIISErr   Damp  Time(sec)
-------------------------------------------------------------------------------------------
               ***  Starting incremental Fock matrix formation  ***
                              *** Initializing SOSCF ***
---------------------------------------S-O-S-C-F--------------------------------------
Iteration    Energy (Eh)           Delta-E    RMSDP     MaxDP     MaxGrad    Time(sec)
--------------------------------------------------------------------------------------
    1    -897.8174428835804974     0.00e+00  1.53e-05  1.05e-03  3.11e-05    15.6
               *** Restarting incremental Fock matrix formation ***
    2    -897.8174427926578574     9.09e-08  3.09e-05  2.11e-03  7.86e-05    15.8
    3    -897.8174419389247305     8.54e-07  2.36e-05  1.63e-03  2.04e-04    10.1
    4    -897.8174430171566200    -1.08e-06  2.02e-05  1.14e-03  1.16e-05    11.5
                  *** Gradient check signals convergence ***

               *****************************************************
               *                     SUCCESS                       *
               *           SCF CONVERGED AFTER   4 CYCLES          *
               *****************************************************


SMD CDS free energy correction energy :                 5.56746     Kcal/mol
Total Energy after SMD CDS correction =              -897.808570714 Eh
             **** ENERGY FILE WAS UPDATED (xtb_opt.en.tmp) ****

----------------
TOTAL SCF ENERGY
----------------

Total Energy       :       -897.80857071359094 Eh          -24430.61324 eV

Components:
Nuclear Repulsion  :       1466.53967328025919 Eh           39906.57332 eV
Electronic Energy  :      -2364.32044287365989 Eh          -64336.43005 eV
One Electron Energy:      -4133.49410984740643 Eh         -112478.09300 eV
Two Electron Energy:       1769.17366697374655 Eh           48141.66295 eV
CPCM Dielectric    :         -0.03667342375613 Eh              -0.99793 eV
SMD CDS (Gcds)     :          0.00887230356566 Eh               0.24143 eV

Virial components:
Potential Energy   :      -1791.71554237156533 Eh          -48755.05857 eV
Kinetic Energy     :        893.90697165797428 Eh           24324.44533 eV
Virial Ratio       :          2.00436465894027

DFT components:
N(Alpha)           :       69.999907581719 electrons
N(Beta)            :       69.999907581719 electrons
N(Total)           :      139.999815163439 electrons
E(X)               :     -119.475779786228 Eh       
E(C)               :       -4.614089074612 Eh       
E(XC)              :     -124.089868860840 Eh       

CPCM Solvation Model Properties:
Surface-charge          :         -0.05744665014075
Corrected charge        :          0.00000000000000
Outlying charge corr.   :          0.00019371815402 Eh               0.00527 eV
Free-energy (cav+disp)  :          0.00887230356566 Eh               0.24143 eV

---------------
SCF CONVERGENCE
---------------

  Last Energy change         ...    1.0782e-06  Tolerance :   1.0000e-07
  Last MAX-Density change    ...    1.1402e-03  Tolerance :   1.0000e-07
  Last RMS-Density change    ...    2.0186e-05  Tolerance :   5.0000e-09
  Last DIIS Error            ...    2.1645e-04  Tolerance :   1.0000e-07
  Last Orbital Gradient      ...    1.1572e-05  Tolerance :   1.0000e-04
  Last Orbital Rotation      ...    1.5294e-05  Tolerance :   1.0000e-04


----------------
ORBITAL ENERGIES
----------------

  NO   OCC          E(Eh)            E(eV) 
   0   2.0000     -18.957088      -515.8486 
   1   2.0000     -18.949188      -515.6336 
   2   2.0000     -18.946021      -515.5474 
   3   2.0000     -14.188373      -386.0853 
   4   2.0000     -10.134151      -275.7643 
   5   2.0000     -10.129641      -275.6415 
   6   2.0000     -10.105420      -274.9824 
   7   2.0000     -10.078157      -274.2406 
   8   2.0000     -10.066559      -273.9250 
   9   2.0000     -10.063481      -273.8412 
  10   2.0000     -10.063146      -273.8321 
  11   2.0000     -10.061340      -273.7830 
  12   2.0000     -10.059627      -273.7364 
  13   2.0000     -10.052580      -273.5446 
  14   2.0000     -10.052214      -273.5346 
  15   2.0000     -10.051853      -273.5248 
  16   2.0000     -10.050833      -273.4971 
  17   2.0000     -10.050740      -273.4945 
  18   2.0000     -10.048152      -273.4241 
  19   2.0000     -10.044590      -273.3272 
  20   2.0000      -1.012797       -27.5596 
  21   2.0000      -1.006942       -27.4003 
  22   2.0000      -0.987211       -26.8634 
  23   2.0000      -0.918626       -24.9971 
  24   2.0000      -0.848706       -23.0945 
  25   2.0000      -0.830668       -22.6036 
  26   2.0000      -0.770610       -20.9694 
  27   2.0000      -0.741926       -20.1888 
  28   2.0000      -0.736114       -20.0307 
  29   2.0000      -0.728967       -19.8362 
  30   2.0000      -0.694107       -18.8876 
  31   2.0000      -0.649964       -17.6864 
  32   2.0000      -0.627836       -17.0843 
  33   2.0000      -0.610160       -16.6033 
  34   2.0000      -0.595520       -16.2049 
  35   2.0000      -0.566151       -15.4058 
  36   2.0000      -0.550585       -14.9822 
  37   2.0000      -0.519048       -14.1240 
  38   2.0000      -0.511489       -13.9183 
  39   2.0000      -0.490972       -13.3600 
  40   2.0000      -0.474337       -12.9074 
  41   2.0000      -0.463200       -12.6043 
  42   2.0000      -0.458687       -12.4815 
  43   2.0000      -0.443947       -12.0804 
  44   2.0000      -0.433364       -11.7924 
  45   2.0000      -0.431657       -11.7460 
  46   2.0000      -0.422809       -11.5052 
  47   2.0000      -0.416234       -11.3263 
  48   2.0000      -0.410846       -11.1797 
  49   2.0000      -0.407176       -11.0798 
  50   2.0000      -0.398336       -10.8393 
  51   2.0000      -0.390333       -10.6215 
  52   2.0000      -0.380785       -10.3617 
  53   2.0000      -0.375061       -10.2059 
  54   2.0000      -0.362746        -9.8708 
  55   2.0000      -0.357478        -9.7275 
  56   2.0000      -0.345979        -9.4146 
  57   2.0000      -0.345234        -9.3943 
  58   2.0000      -0.336828        -9.1655 
  59   2.0000      -0.329492        -8.9659 
  60   2.0000      -0.322753        -8.7826 
  61   2.0000      -0.309340        -8.4176 
  62   2.0000      -0.295352        -8.0369 
  63   2.0000      -0.263726        -7.1763 
  64   2.0000      -0.254376        -6.9219 
  65   2.0000      -0.252045        -6.8585 
  66   2.0000      -0.249261        -6.7827 
  67   2.0000      -0.243758        -6.6330 
  68   2.0000      -0.231752        -6.3063 
  69   2.0000      -0.194821        -5.3013 
  70   0.0000      -0.133951        -3.6450 
  71   0.0000      -0.082022        -2.2319 
  72   0.0000      -0.050509        -1.3744 
  73   0.0000      -0.030202        -0.8219 
  74   0.0000       0.021694         0.5903 
  75   0.0000       0.027409         0.7458 
  76   0.0000       0.055996         1.5237 
  77   0.0000       0.080694         2.1958 
  78   0.0000       0.086138         2.3439 
  79   0.0000       0.099729         2.7138 
  80   0.0000       0.104299         2.8381 
*Only the first 10 virtual orbitals were printed.
Total SCF time: 0 days 0 hours 0 min 54 sec 
Finished LeanSCF after  55.3 sec

Maximum memory used throughout the entire LEANSCF-calculation: 85.2 MB


-------------------------------------------------------------------------------
                          DFT DISPERSION CORRECTION                            
                                                                               
                                DFTD4 V3.4.0                                   
-------------------------------------------------------------------------------
-------------------------   ----------------
Dispersion correction           -0.015756446
-------------------------   ----------------

------------------   -----------------
gCP correction             0.015972160
------------------   -----------------

-------------------------   --------------------
FINAL SINGLE POINT ENERGY      -897.808354999514
-------------------------   --------------------

------------------------------------------------------------------------------
                         ORCA SCF GRADIENT CALCULATION
------------------------------------------------------------------------------

Nuc. rep. gradient        (SHARK) ... done (  0.0 sec)
HCore & Overlap gradient  (SHARK) ... done (  2.0 sec)
Split-RIJ-J gradient      (SHARK) ... done ( 11.8 sec)
XC gradient                       ... done ( 27.6 sec)
CPCM gradient                     ... done (  5.4 sec)
SMD gradient                      ... done (  0.0 sec)
Dispersion correction             ... done (  0.0 sec)

-------------------
DISPERSION GRADIENT
-------------------

   1   C   :   -0.000124826   -0.000035027    0.000013261
   2   C   :   -0.000101144   -0.000090707    0.000006232
   3   C   :   -0.000062449   -0.000131420   -0.000001915
   4   C   :   -0.000069303   -0.000084973    0.000000635
   5   C   :   -0.000105585    0.000019063    0.000015600
   6   C   :   -0.000137973    0.000025049    0.000020134
   7   C   :   -0.000075806    0.000115876    0.000019472
   8   O   :   -0.000071204    0.000126707    0.000021566
   9   C   :   -0.000016022    0.000122389    0.000002122
  10   C   :    0.000011599    0.000167997    0.000003546
  11   C   :    0.000050506    0.000168681   -0.000013431
  12   C   :    0.000083041    0.000113119   -0.000033863
  13   C   :    0.000071479    0.000013436   -0.000042746
  14   C   :    0.000008303    0.000012953   -0.000025506
  15   C   :   -0.000012370   -0.000108929   -0.000021053
  16   O   :    0.000006605   -0.000147912   -0.000027129
  17   N   :    0.000079161   -0.000090090   -0.000054588
  18   C   :    0.000122176   -0.000057455   -0.000033280
  19   C   :    0.000100079   -0.000062151    0.000034012
  20   O   :    0.000070423   -0.000019305    0.000094090
  21   H   :   -0.000046575   -0.000005803    0.000005532
  22   H   :   -0.000028418   -0.000037175    0.000000948
  23   H   :   -0.000004536   -0.000058363   -0.000003657
  24   H   :   -0.000045739    0.000030194    0.000008472
  25   H   :   -0.000005301    0.000057114    0.000005481
  26   H   :    0.000020467    0.000055698   -0.000002157
  27   H   :    0.000037752    0.000038015   -0.000013107
  28   H   :    0.000020783   -0.000040060   -0.000019378
  29   H   :    0.000042505   -0.000015692   -0.000020404
  30   H   :    0.000034700   -0.000031034   -0.000024218
  31   H   :    0.000031396   -0.000013672    0.000014309
  32   H   :    0.000040206   -0.000024401    0.000025052
  33   H   :    0.000076072   -0.000012122    0.000045971

Difference to translation invariance:
           :    0.0000000000    0.0000000000    0.0000000000

Difference to rotation invariance:
           :   -0.0000000000   -0.0000000000   -0.0000000000

Norm of the Dispersion gradient    ...    0.0006221318
RMS gradient                       ...    0.0000625266
MAX gradient                       ...    0.0001686805
gCP correction                   ... done

------------------
CARTESIAN GRADIENT
------------------

   1   C   :    0.000007306   -0.000005707   -0.000018432
   2   C   :   -0.000006174   -0.000003177   -0.000005519
   3   C   :    0.000005625   -0.000011819    0.000019029
   4   C   :   -0.000007322   -0.000006405    0.000068512
   5   C   :    0.000024899   -0.000092340    0.000034003
   6   C   :   -0.000020095    0.000030159   -0.000017540
   7   C   :   -0.000124826    0.000190753    0.000015028
   8   O   :    0.000020986   -0.000034899    0.000017892
   9   C   :    0.000104297   -0.000065269    0.000037173
  10   C   :    0.000012617    0.000029352    0.000018583
  11   C   :   -0.000038470    0.000008283    0.000002464
  12   C   :   -0.000005883   -0.000024909   -0.000027108
  13   C   :   -0.000043617    0.000131949   -0.000017673
  14   C   :   -0.000010313   -0.000030084    0.000040094
  15   C   :    0.000002052    0.000005478   -0.000174713
  16   O   :   -0.000000267   -0.000005900    0.000123447
  17   N   :   -0.000039448   -0.000055485   -0.000053163
  18   C   :    0.000223742    0.000036501    0.000046360
  19   C   :   -0.000029000   -0.000184499   -0.000095708
  20   O   :    0.000093966    0.000102103   -0.000008322
  21   H   :   -0.000025952    0.000008836   -0.000011497
  22   H   :   -0.000003460    0.000005273   -0.000009584
  23   H   :   -0.000002946   -0.000005069    0.000013386
  24   H   :   -0.000003216    0.000006402   -0.000002712
  25   H   :   -0.000000644   -0.000016548    0.000015963
  26   H   :    0.000002124    0.000005830   -0.000029588
  27   H   :   -0.000017320    0.000024635   -0.000051320
  28   H   :    0.000057285   -0.000010052    0.000056296
  29   H   :   -0.000056151   -0.000070008    0.000091785
  30   H   :    0.000007100    0.000036357   -0.000033888
  31   H   :   -0.000078201   -0.000053056   -0.000016745
  32   H   :   -0.000020469    0.000078654   -0.000050587
  33   H   :   -0.000028225   -0.000025339    0.000024081

Difference to translation invariance:
           :    0.0000000000    0.0000000000    0.0000000000

Difference to rotation invariance:
           :   -0.0000184383    0.0009319793   -0.0005637165

Norm of the Cartesian gradient     ...    0.0005808742
RMS gradient                       ...    0.0000583800
MAX gradient                       ...    0.0002237419

-------
TIMINGS
-------

Total SCF gradient time     ....       51.242 sec

Densities                   ....       0.005 sec  (  0.0%)
One electron gradient       ....       2.028 sec  (  4.0%)
RI-J Coulomb gradient       ....      11.788 sec  ( 23.0%)
XC gradient                 ....      27.621 sec  ( 53.9%)
CPCM gradient               ....       5.379 sec  ( 10.5%)
   A-Matrix (El+Nuc)        ....       0.214 sec  (  0.4%)
   Potential                ....       5.165 sec  ( 10.1%)
SMD gradient                ....       0.016 sec  (  0.0%)

Maximum memory used throughout the entire SCFGRAD-calculation: 72.4 MB

------------------------------------------------------------------------------
                              ORCA PROPERTY CALCULATIONS
------------------------------------------------------------------------------

GBWName                                 ... xtb_opt.gbw
Number of atoms                         ...     33
Number of basis functions               ...    465
Max core memory                         ...   1024 MB

Electric properties:
Dipole moment                           ... YES
Quadrupole moment                       ...  NO
Static polarizability (Dipole/Dipole)   ...  NO
Static polarizability (Dipole/Quad.)    ...  NO
Static polarizability (Quad./Quad.)     ...  NO
Static polarizability (Velocity)        ...  NO

Atomic electric properties:
Dipole moment                           ...  NO
Quadrupole moment                       ...  NO
Static polarizability                   ...  NO

Choice of electric origin               ... Center of mass
Position of electric origin             ...    -0.001748     0.006298    -0.014084

General magnetic properties:
Magnetizability                         ...  NO

EPR properties:
g-Tensor (aka g-matrix)                 ...  NO
Zero-Field splitting spin-orbit         ...  NO
Zero-field splitting spin-spin          ...  NO
Hyperfine couplings                     ...  NO (   0 nuclei)
Quadrupole couplings                    ...  NO (   0 nuclei)
Contact density                         ...  NO (   0 nuclei)

NMR properties:
Chemical shifts                         ...  NO (   0 nuclei)
Spin-rotation constants                 ...  NO (   0 nuclei)
Spin-spin couplings                     ...  NO (   0 nuclei,    0 pairs)

Choice of magnetic origin               ... GIAO
Position of magnetic origin             ...     0.000000     0.000000     0.000000

Properties with geometric perturbations:
SCF Hessian                             ...  NO
IR spectrum                             ...  NO
VCD spectrum                            ...  NO
X-ray spectroscopy properties:
SCF XES/XAS/RIXS spectra                ...  NO


-------------
DIPOLE MOMENT
-------------

Method             : SCF
Type of density    : Electron Density
Multiplicity       :   1
Irrep              :   0
Energy             :  -897.8085707135909388 Eh
Relativity type    : 
Basis              : AO
                                X                 Y                 Z
Electronic contribution:    -10.754179262       3.220219986      -0.601657695
Nuclear contribution   :     11.832550438      -4.509969401       0.152400677
                        -----------------------------------------
Total Dipole Moment    :      1.078371176      -1.289749415      -0.449257019
                        -----------------------------------------
Magnitude (a.u.)       :      1.740163732
Magnitude (Debye)      :      4.423144694



--------------------
Rotational spectrum 
--------------------
 
Rotational constants in cm-1:             0.021953             0.007579             0.005941 
Rotational constants in MHz :           658.132005           227.200920           178.107687 

Dipole components along the rotational axes: 
x,y,z [a.u.] :     1.033082    -1.333968    -0.425958 
x,y,z [Debye]:     2.625885    -3.390678    -1.082699 

 

Dipole moment calculation done in   0.0 sec 

Maximum memory used throughout the entire PROP-calculation: 42.6 MB

--------------------------------
SUGGESTED CITATIONS FOR THIS RUN
--------------------------------

Below you find a list of papers that are relevant to this ORCA run
We neither can nor want to force you to cite these papers, but we appreciate if you do
You receive ORCA, which is the product of decades of hard work by many enthusiastic individuals, for free
The only thing we kindly ask in return is that you cite our papers,
We deeply appreciate it, if you show your appreciation for ORCA by not just citing the generic ORCA reference.

Please note that relegating all ORCA citations to the supporting information does *not* help us.
SI sections are not indexed - citations you put there will not count into any citation statistics
But we need these citations in order to attract the funding resources that allow us to do what we are doing

Therefore, if you are a happy ORCA user, please consider citing a few of the papers listed below in the main body of your paper

In addition to the list printed below, the program has created the file xtb_opt.bibtex that contains the list in bibtex format
You can import this file easily into all common literature databanks and citation aid programs


List of essential papers. We consider these as the minimum necessary citations

  1. Neese,F.
     Software update: the ORCA program system, version 5.0
     WIRES Comput. Molec. Sci., 2022 12(1)e1606
     doi.org/10.1002/wcms.1606
  2. Grimme,S.; Hansen,A.; Ehlert,S.; Mewes,J.
     r2SCAN-3c: A 'Swiss army knife' composite electronic-structure method
     J. Chem. Phys., 2021 154 064103
     doi.org/10.1063/5.0040021

List of papers to cite with high priority. The work reported in these papers was absolutely
necessary for this run to complete.
Our perspective: the developers of density functionals and basis sets usually get cited in chemistry papers
Good! But without the algorithms to do something with them, the functionals or basis sets would not do anything.
Hence, in our opinion, the algorithm design and method developments papers are equally worthy of getting cited

  1. Neese,F.
     An improvement of the resolution of the identity approximation for the formation of the Coulomb matrix
     J. Comp. Chem., 2003 24(14)1740-1747
     doi.org/10.1002/jcc.10318
  2. Garcia-Rates,M.; Neese,F.
     Effect of the Solute Cavity on the Solvation Energy and its Derivatives within the Framework of the Gaussian Charge Scheme
     J. Comput. Chem., 2020 41 922-939
     doi.org/10.1002/jcc.26139
  3. Neese,F.
     The SHARK Integral Generation and Digestion System
     J. Comp. Chem., 2022  1-16
     doi.org/10.1002/jcc.26942
  4. Lehtola,S.; Steigemann,C.; Oliveira,M.; Marques,M.
     Recent developments in Libxc - A comprehensive library of functionals for density functional theory
     Software X, 2018 7 
     doi.org/10.1016/j.softx.2017.11.002
  5. Caldeweyher,E.; Bannwarth,C.; Grimme,S.
     Extension of the D3 dispersion coefficient model
     J. Chem. Phys., 2017 147 034112-XXXX
     doi.org/10.1063/1.4993215
  6. Caldeweyher,E.; Ehlert,S.; Hansen,A.; Neugebauer,H.; Spicher,S.; Bannwarth,C.; Grimme,S.
     A generally applicable atomic-charge dependent London dispersion correction
     J. Chem. Phys., 2019 150 154122-XXXX
     doi.org/10.1063/1.5090222
  7. Caldeweyher,E.; Mewes,J.; Ehlert,S.; Grimme,S.
     Extension and evaluation of the D4 London-dispersion model for periodic systems
     Phys. Chem. Chem. Phys., 2020 22(16)8499-8512
     doi.org/10.1039/D0CP00502A

List of suggested additional citations. These are papers that are important in the 'surrounding' of 
of this run, or papers that preceded the highly important papers. If you like your results we are grateful for a citation.

  1. Neese,F.
     The ORCA program system
     WIRES Comput. Molec. Sci., 2012 2(1)73-78
     doi.org/10.1002/wcms.81
  2. Neese,F.
     Software update: the ORCA program system, version 4.0
     WIRES Comput. Molec. Sci., 2018 8(1)1-6
     doi.org/10.1002/wcms.1327
  3. Neese,F.; Wennmohs,F.; Becker,U.; Riplinger,C.
     The ORCA quantum chemistry program package
     J. Chem. Phys., 2020 152 Art. No. L224108
     doi.org/10.1063/5.0004608

List of optional additional citations

  1. Neese,F.
     Approximate second-order SCF convergence for spin unrestricted wavefunctions
     Chem. Phys. Lett., 2000 325(1-3)93-98
     doi.org/10.1016/s0009-2614(00)00662-x

Timings for individual modules:

Sum of individual times          ...      111.272 sec (=   1.855 min)
Startup calculation              ...        3.496 sec (=   0.058 min)   3.1 %
SCF iterations                   ...       56.139 sec (=   0.936 min)  50.5 %
Property calculations            ...        0.217 sec (=   0.004 min)   0.2 %
SCF Gradient evaluation          ...       51.419 sec (=   0.857 min)  46.2 %
                             ****ORCA TERMINATED NORMALLY****
TOTAL RUN TIME: 0 days 0 hours 1 minutes 52 seconds 183 msec
  ------------------------------------------------------------------------
          * successful ORCA run, taking over control again...

         :::::::::::::::::::::::::::::::::::::::::::::::::::::
         ::                  ORCA SUMMARY                   ::
         :::::::::::::::::::::::::::::::::::::::::::::::::::::
         :: total energy            -897.808354999514 Eh    ::
         :: gradient norm              0.000580874150 Eh/a0 ::
         :: HOMO-LUMO gap              0.000000000000 eV    ::
         :::::::::::::::::::::::::::::::::::::::::::::::::::::

      ----------------------------------------------------------- 
     |                       L-ANC optimizer                     |
      ----------------------------------------------------------- 
          low memory version by Sebastian Ehlert

          ...................................................
          :                      SETUP                      :
          :.................................................:
          :   energy convergence        0.5000000E-05 Eh    :
          :   grad. convergence         0.1000000E-02 Eh/a0 :
          :   optimization log               true           :
          :   writing optlog all                1     steps :
          :   Hessian reset                     8     steps :
          :   maximium step len.        1.0000000     a0    :
          :   LBFGS images                      8           :
          ...................................................
 * calculating model hessian...
Using Lindh-Hessian (1995)
 Shifting diagonal of input Hessian by   1.000000000000000E-002
 Lowest  eigenvalues of input Hessian
    0.000000    0.000000    0.000000    0.000000    0.000000    0.000000
    0.010679    0.011299    0.012270    0.012887    0.013428    0.016685
    0.018137    0.019776    0.021820    0.024538    0.025894    0.029645
 Highest eigenvalues
    1.922384    1.941334    2.018355    2.057871    2.085078    2.193297
 

........................................................................
.............................. CYCLE    1 ..............................
........................................................................
                         * ORCA takes the control...
  ------------------------------------------------------------------------

                                 *****************
                                 * O   R   C   A *
                                 *****************

                                            #,                                       
                                            ###                                      
                                            ####                                     
                                            #####                                    
                                            ######                                   
                                           ########,                                 
                                     ,,################,,,,,                         
                               ,,#################################,,                 
                          ,,##########################################,,             
                       ,#########################################, ''#####,          
                    ,#############################################,,   '####,        
                  ,##################################################,,,,####,       
                ,###########''''           ''''###############################       
              ,#####''   ,,,,##########,,,,          '''####'''          '####       
            ,##' ,,,,###########################,,,                        '##       
           ' ,,###''''                  '''############,,,                           
         ,,##''                                '''############,,,,        ,,,,,,###''
      ,#''                                            '''#######################'''  
     '                                                          ''''####''''         
             ,#######,   #######,   ,#######,      ##                                
            ,#'     '#,  ##    ##  ,#'     '#,    #''#        ,####,   ,####,        
            ##       ##  ##   ,#'  ##            #'  '#       #'       #'  '#        
            ##       ##  #######   ##           ,######,      #####,   #    #        
            '#,     ,#'  ##    ##  '#,     ,#' ,#      #,     #,   #   #,  ,#        
             '#######'   ##     ##  '#######'  #'      '#     '####' # '####'        



                #########################################################
                #                        -***-                          #
                #          Department of theory and spectroscopy        #
                #                                                       #
                #                      Frank Neese                      #
                #                                                       #
                #     Directorship, Architecture, Infrastructure        #
                #                    SHARK, DRIVERS                     #
                #        Core code/Algorithms in most modules           #
                #                                                       #
                #        Max Planck Institute fuer Kohlenforschung      #
                #                Kaiser Wilhelm Platz 1                 #
                #                 D-45470 Muelheim/Ruhr                 #
                #                      Germany                          #
                #                                                       #
                #                  All rights reserved                  #
                #                        -***-                          #
                #########################################################


                         Program Version 6.0.0  -   RELEASE  -


 With contributions from (in alphabetic order):
   Daniel Aravena         : Magnetic Suceptibility
   Michael Atanasov       : Ab Initio Ligand Field Theory (pilot matlab implementation)
   Alexander A. Auer      : GIAO ZORA, VPT2 properties, NMR spectrum
   Ute Becker             : All parallelization in ORCA, NUMFREQ, NUMCALC
   Giovanni Bistoni       : ED, misc. LED, open-shell LED, HFLD
   Martin Brehm           : Molecular dynamics
   Dmytro Bykov           : pre 5.0 version of the SCF Hessian
   Marcos Casanova-Páez   : Triplet and SCS-CIS(D). UHF-(DLPNO)-IP/EA/STEOM-CCSD. UHF-CVS-IP/STEOM-CCSD
   Vijay G. Chilkuri      : MRCI spin determinant printing, contributions to CSF-ICE
   Pauline Colinet        : FMM embedding
   Dipayan Datta          : RHF DLPNO-CCSD density
   Achintya Kumar Dutta   : EOM-CC, STEOM-CC
   Nicolas Foglia         : Exact transition moments, OPA infrastructure, MCD improvements
   Dmitry Ganyushin       : Spin-Orbit,Spin-Spin,Magnetic field MRCI
   Miquel Garcia          : C-PCM and meta-GGA Hessian, CCSD/C-PCM, Gaussian charge scheme
   Tiago L. C. Gouveia    : GS-ROHF, GS-ROCIS
   Yang Guo               : DLPNO-NEVPT2, F12-NEVPT2, CIM, IAO-localization
   Andreas Hansen         : Spin unrestricted coupled pair/coupled cluster methods
   Ingolf Harden          : AUTO-CI MPn and infrastructure 
   Benjamin Helmich-Paris : MC-RPA, TRAH-(SCF,CASSCF), AVAS, COSX integrals, SCF dyn. polar.
   Lee Huntington         : MR-EOM, pCC
   Robert Izsak           : Overlap fitted RIJCOSX, COSX-SCS-MP3, EOM
   Riya Kayal             : Wick's Theorem for AUTO-CI, AUTO-CI UHF-CCSDT
   Emily Kempfer          : AUTO-CI, RHF CISDT and CCSDT
   Christian Kollmar      : KDIIS, OOCD, Brueckner-CCSD(T), CCSD density, CASPT2, CASPT2-K, improved NEVPT2
   Axel Koslowski         : Symmetry handling
   Simone Kossmann        : Meta GGA functionals, TD-DFT gradient, OOMP2, (MP2 Hessian; deprecated post 5.0)
   Lucas Lang             : DCDCAS
   Marvin Lechner         : AUTO-CI (C++ implementation), FIC-MRCC
   Spencer Leger          : CASSCF response
   Dagmar Lenk            : GEPOL surface, SMD, ORCA-2-JSON
   Dimitrios Liakos       : Extrapolation schemes; Compound Job, initial MDCI parallelization
   Dimitrios Manganas     : Further ROCIS development; embedding schemes. LFT, Crystal Embedding
   Dimitrios Pantazis     : SARC Basis sets
   Anastasios Papadopoulos: AUTO-CI, single reference methods and gradients
   Taras Petrenko         : pre 6.0 DFT Hessian and TD-DFT gradient, (ASA, deprecated), ECA, 1-Electron XAS/XES, NRVS
   Peter Pinski           : DLPNO-MP2, DLPNO-MP2 Gradient
   Christoph Reimann      : Effective Core Potentials
   Marius Retegan         : Local ZFS, SOC
   Christoph Riplinger    : Optimizer, TS searches, QM/MM, DLPNO-CCSD(T), (RO)-DLPNO pert. Triples
   Michael Roemelt        : Original ROCIS implementation
   Masaaki Saitow         : Open-shell DLPNO-CCSD energy and density
   Barbara Sandhoefer     : DKH picture change effects
   Kantharuban Sivalingam : CASSCF convergence/infrastructure, NEVPT2 and variants, FIC-MRCI
   Bernardo de Souza      : ESD, SOC TD-DFT
   Georgi Stoychev        : AutoAux, RI-MP2 NMR, DLPNO-MP2 response, X2C
   Van Anh Tran           : RI-MP2 g-tensors
   Willem Van den Heuvel  : Paramagnetic NMR
   Zikuan Wang            : NOTCH, Electric field optimization 
   Frank Wennmohs         : Technical directorship and infrastructure
   Hang Xu                : AUTO-CI-Response properties 


 We gratefully acknowledge several colleagues who have allowed us to
 interface, adapt or use parts of their codes:
   Stefan Grimme, W. Hujo, H. Kruse, P. Pracht,  : VdW corrections, initial TS optimization,
                  C. Bannwarth, S. Ehlert,         DFT functionals, gCP, sTDA/sTD-DF
                  L. Wittmann, M. Mueller
   Ed Valeev, F. Pavosevic, A. Kumar             : LibInt (2-el integral package), F12 methods
   Garnet Chan, S. Sharma, J. Yang, R. Olivares  : DMRG
   Ulf Ekstrom                                   : XCFun DFT Library
   Mihaly Kallay                                 : mrcc  (arbitrary order and MRCC methods)
   Frank Weinhold                                : gennbo (NPA and NBO analysis)
   Simon Mueller                                 : openCOSMO-RS
   Christopher J. Cramer and Donald G. Truhlar   : smd solvation model
   Lars Goerigk                                  : TD-DFT with DH, B97 family of functionals
   V. Asgeirsson, H. Jonsson                     : NEB implementation
   FAccTs GmbH                                   : IRC, NEB, NEB-TS, DLPNO-Multilevel, CI-OPT
                                                   MM, QMMM, 2- and 3-layer-ONIOM, Crystal-QMMM,
                                                   LR-CPCM, SF, NACMEs, symmetry and pop. for TD-DFT,
                                                   nearIR, NL-DFT gradient (VV10), updates on ESD,
                                                   ML-optimized integration grids, MBIS, APM,
                                                   GOAT, DOCKER, SOLVATOR, interface openCOSMO-RS
   S Lehtola, MJT Oliveira, MAL Marques          : LibXC Library
   Liviu Ungur et al                             : ANISO software


 Your calculation uses the libint2 library for the computation of 2-el integrals
 For citations please refer to: http://libint.valeyev.net

 Your ORCA version has been built with support for libXC version: 6.2.2
 For citations please refer to: https://libxc.gitlab.io

 This ORCA versions uses:
   CBLAS   interface :  Fast vector & matrix operations
   LAPACKE interface :  Fast linear algebra routines
   SCALAPACK package :  Parallel linear algebra routines
   Shared memory     :  Shared parallel matrices
   BLAS/LAPACK       :  OpenBLAS 0.3.27  USE64BITINT DYNAMIC_ARCH NO_AFFINITY SkylakeX SINGLE_THREADED
        Core in use  :  SkylakeX
   Copyright (c) 2011-2014, The OpenBLAS Project




***************************************
The coordinates will be read from file: xtb_opt.xyz
***************************************


Your calculation utilizes the geometrical counterpoise correction gCP
Please cite in your paper:
H.Kruse, S. Grimme J.Chem.Phys., 136, (2012), 154101 
   

Your calculation utilizes the atom-pairwise dispersion correction
based on EEQ partial charges (D4)


Your calculation utilizes the SMD solvation module
Please cite in your paper:
A.V. Marenich, C.J. Cramer, D.G. Truhlar J. Phys. Chem. B, 113, (2009), 6378 

================================================================================

----- Orbital basis set information -----
Your calculation utilizes the basis: def2-mTZVPP
   Stefan Grimme, Andreas Hansen, Sebastian Ehlert, and Jan-Michael Mewes 
   J. Chem. Phys. 154, 064103 (2021). DOI: 10.1063/5.0040021

----- AuxJ basis set information -----
Your calculation utilizes the auxiliary basis: def2/J
   F. Weigend, Phys. Chem. Chem. Phys. 8, 1057 (2006).

================================================================================
                                        WARNINGS
                       Please study these warnings very carefully!
================================================================================

WARNING: Old DensityContainer found on disk!
         Will remove this file - 
         If you want to keep old densities, please start your calculation with a different basename. 

Using LibXC functional ID 497 : Re-regularized SCAN exchange by Furness et al
[ 1]  J. W. Furness, A. D. Kaplan, J. Ning, J. P. Perdew, and J. Sun.,  J. Phys. Chem. Lett. 11, 8208-8215 (2020)
[ 2]  J. W. Furness, A. D. Kaplan, J. Ning, J. P. Perdew, and J. Sun.,  J. Phys. Chem. Lett. 11, 9248-9248 (2020)
Using LibXC functional ID 498 : Re-regularized SCAN correlation by Furness et al
[ 1]  J. W. Furness, A. D. Kaplan, J. Ning, J. P. Perdew, and J. Sun.,  J. Phys. Chem. Lett. 11, 8208-8215 (2020)
[ 2]  J. W. Furness, A. D. Kaplan, J. Ning, J. P. Perdew, and J. Sun.,  J. Phys. Chem. Lett. 11, 9248-9248 (2020)
Using LibXC functional ID 497 : Re-regularized SCAN exchange by Furness et al
[ 1]  J. W. Furness, A. D. Kaplan, J. Ning, J. P. Perdew, and J. Sun.,  J. Phys. Chem. Lett. 11, 8208-8215 (2020)
[ 2]  J. W. Furness, A. D. Kaplan, J. Ning, J. P. Perdew, and J. Sun.,  J. Phys. Chem. Lett. 11, 9248-9248 (2020)
Using LibXC functional ID 498 : Re-regularized SCAN correlation by Furness et al
[ 1]  J. W. Furness, A. D. Kaplan, J. Ning, J. P. Perdew, and J. Sun.,  J. Phys. Chem. Lett. 11, 8208-8215 (2020)
[ 2]  J. W. Furness, A. D. Kaplan, J. Ning, J. P. Perdew, and J. Sun.,  J. Phys. Chem. Lett. 11, 9248-9248 (2020)

================================================================================
                                       INPUT FILE
================================================================================
NAME = xtb_opt.inp
|  1> ! r2scan-3c def2/J RI DEFGRID2 scfconv7 ENGRAD tightSCF miniprint
|  2> %cpcm
|  3>     smd true
|  4>     smdsolvent "water"
|  5> end
|  6> * xyzfile 0 1 xtb_opt.xyz
|  7> 
|  8>                          ****END OF INPUT****
================================================================================

                     *******************************
                     * Energy+Gradient Calculation *
                     *******************************

---------------------------------
CARTESIAN COORDINATES (ANGSTROEM)
---------------------------------
  C     -4.632712   -0.970945    0.275755
  C     -3.950654   -2.175716    0.098060
  C     -2.572843   -2.182034   -0.073101
  C     -1.855646   -0.982571   -0.069807
  C     -2.543927    0.228296    0.111470
  C     -3.931375    0.225613    0.283604
  C     -1.807381    1.503772    0.122931
  O     -2.397898    2.575220    0.295894
  C     -0.337969    1.461723   -0.078532
  C      0.339163    2.669372   -0.071868
  C      1.725377    2.686879   -0.255511
  C      2.431054    1.522188   -0.441105
  C      1.777605    0.260835   -0.461577
  C      0.351006    0.231338   -0.271978
  C     -0.384057   -1.018215   -0.263228
  O      0.168604   -2.131064   -0.418124
  N      2.471053   -0.878119   -0.678633
  C      3.917888   -1.019704   -0.748950
  C      4.557611   -1.290999    0.607777
  O      4.451044   -0.182599    1.512564
  H     -5.709537   -0.969728    0.407651
  H     -4.498279   -3.112480    0.092847
  H     -2.042359   -3.116915   -0.211070
  H     -4.449010    1.168207    0.421631
  H     -0.209818    3.591013    0.076381
  H      2.257293    3.632806   -0.248725
  H      3.503897    1.570854   -0.570446
  H      1.914939   -1.726964   -0.615998
  H      4.372761   -0.141678   -1.214003
  H      4.133945   -1.875745   -1.397705
  H      5.627574   -1.466143    0.456149
  H      4.119552   -2.193769    1.054496
  H      3.530904   -0.122240    1.800670

----------------------------
CARTESIAN COORDINATES (A.U.)
----------------------------
  NO LB      ZA    FRAG     MASS         X           Y           Z
   0 C     6.0000    0    12.011   -8.754556   -1.834820    0.521102
   1 C     6.0000    0    12.011   -7.465655   -4.111507    0.185306
   2 C     6.0000    0    12.011   -4.861969   -4.123446   -0.138141
   3 C     6.0000    0    12.011   -3.506662   -1.856791   -0.131917
   4 C     6.0000    0    12.011   -4.807326    0.431416    0.210647
   5 C     6.0000    0    12.011   -7.429222    0.426347    0.535933
   6 C     6.0000    0    12.011   -3.415454    2.841718    0.232305
   7 O     8.0000    0    15.999   -4.531371    4.866460    0.559160
   8 C     6.0000    0    12.011   -0.638668    2.762256   -0.148404
   9 C     6.0000    0    12.011    0.640925    5.044381   -0.135811
  10 C     6.0000    0    12.011    3.260490    5.077465   -0.482845
  11 C     6.0000    0    12.011    4.594027    2.876519   -0.833567
  12 C     6.0000    0    12.011    3.359187    0.492908   -0.872255
  13 C     6.0000    0    12.011    0.663305    0.437166   -0.513964
  14 C     6.0000    0    12.011   -0.725762   -1.924148   -0.497430
  15 O     8.0000    0    15.999    0.318615   -4.027127   -0.790140
  16 N     7.0000    0    14.007    4.669613   -1.659405   -1.282430
  17 C     6.0000    0    12.011    7.403735   -1.926961   -1.415311
  18 C     6.0000    0    12.011    8.612636   -2.439635    1.148533
  19 O     8.0000    0    15.999    8.411254   -0.345062    2.858333
  20 H     1.0000    0     1.008  -10.789461   -1.832520    0.770349
  21 H     1.0000    0     1.008   -8.500516   -5.881734    0.175455
  22 H     1.0000    0     1.008   -3.859499   -5.890116   -0.398864
  23 H     1.0000    0     1.008   -8.407411    2.207591    0.796767
  24 H     1.0000    0     1.008   -0.396498    6.786031    0.144338
  25 H     1.0000    0     1.008    4.265666    6.865008   -0.470022
  26 H     1.0000    0     1.008    6.621405    2.968484   -1.077986
  27 H     1.0000    0     1.008    3.618710   -3.263489   -1.164068
  28 H     1.0000    0     1.008    8.263320   -0.267733   -2.294134
  29 H     1.0000    0     1.008    7.812023   -3.544645   -2.641280
  30 H     1.0000    0     1.008   10.634574   -2.770608    0.861997
  31 H     1.0000    0     1.008    7.784825   -4.145623    1.992709
  32 H     1.0000    0     1.008    6.672442   -0.231001    3.402774

------------------------------------------------------------------------------
                   ___                                                        
                  /   \      - P O W E R E D   B Y -                         
                 /     \                                                     
                 |  |  |   _    _      __       _____    __    __             
                 |  |  |  | |  | |    /  \     |  _  \  |  |  /  |          
                  \  \/   | |  | |   /    \    | | | |  |  | /  /          
                 / \  \   | |__| |  /  /\  \   | |_| |  |  |/  /          
                |  |  |   |  __  | /  /__\  \  |    /   |      \           
                |  |  |   | |  | | |   __   |  |    \   |  |\   \          
                \     /   | |  | | |  |  |  |  | |\  \  |  | \   \       
                 \___/    |_|  |_| |__|  |__|  |_| \__\ |__|  \__/        
                                                                              
                      - O R C A' S   B I G   F R I E N D -                    
                                      &                                       
                       - I N T E G R A L  F E E D E R -                       
                                                                              
 v1 FN, 2020, v2 2021, v3 2022-2024                                           
------------------------------------------------------------------------------


----------------------
SHARK INTEGRAL PACKAGE
----------------------

Number of atoms                             ...     33
Number of basis functions                   ...    465
Number of shells                            ...    223
Maximum angular momentum                    ...      2
Integral batch strategy                     ... SHARK/LIBINT Hybrid
RI-J (if used) integral strategy            ... SPLIT-RIJ (Revised 2003 algorithm where possible)
Printlevel                                  ...      1
Contraction scheme used                     ... SEGMENTED contraction
Prescreening option                         ... SCHWARTZ
   Thresh                                   ... 3.000e-11
   Tcut                                     ... 1.000e-12
   Tpresel                                  ... 1.000e-12 
Coulomb Range Separation                    ... NOT USED
Exchange Range Separation                   ... NOT USED
Multipole approximations                    ... NOT USED
Finite Nucleus Model                        ... NOT USED
CABS basis                                  ... NOT available
Auxiliary Coulomb fitting basis             ... AVAILABLE
   # of basis functions in Aux-J            ...   1123
   # of shells in Aux-J                     ...    365
   Maximum angular momentum in Aux-J        ...      4
Auxiliary J/K fitting basis                 ... NOT available
Auxiliary Correlation fitting basis         ... NOT available
Auxiliary 'external' fitting basis          ... NOT available

Checking pre-screening integrals            ... done (  0.0 sec) Dimension = 223
Check shell pair data                       ... done (  0.0 sec)
Shell pair information
Shell pair cut-off parameter TPreSel        ...   1.0e-12
Total number of shell pairs                 ...     24976
Shell pairs after pre-screening             ...     18527
Total number of primitive shell pairs       ...     92714
Primitive shell pairs kept                  ...     43989
          la=0 lb=0:   5576 shell pairs
          la=1 lb=0:   7045 shell pairs
          la=1 lb=1:   2205 shell pairs
          la=2 lb=0:   2128 shell pairs
          la=2 lb=1:   1355 shell pairs
          la=2 lb=2:    218 shell pairs

Calculating one electron integrals          ... done (  0.1 sec)
Calculating RI/J V-Matrix + Cholesky decomp.... done (  0.2 sec)
Calculating Nuclear repulsion               ... done (  0.0 sec) ENN=   1466.596994317769 Eh

Diagonalization of the overlap matrix:
Smallest eigenvalue                        ... 6.261e-06
Time for diagonalization                   ...    0.025 sec
Threshold for overlap eigenvalues          ... 1.000e-07
Number of eigenvalues below threshold      ... 0
Time for construction of square roots      ...    0.030 sec
Total time needed                          ...    0.084 sec

-------------------
DFT GRID GENERATION
-------------------

General Integration Accuracy     IntAcc      ... 4.388
Radial Grid Type                 RadialGrid  ... OptM3 with GC (2021)
Angular Grid (max. ang.)         AngularGrid ... 4 (Lebedev-302)
Angular grid pruning method      GridPruning ... 4 (adaptive)
Weight generation scheme         WeightScheme... mBecke (2022)
Basis function cutoff            BFCut       ... 1.0000e-11
Integration weight cutoff        WCut        ... 1.0000e-14
Partially contracted basis set               ... off
Rotationally invariant grid construction     ... off
Angular grids for H and He will be reduced by one unit
Diffuse basis detected: some atoms will have their outermost
                        angular grid increased by 1.

Total number of grid points                  ...   161844
Total number of batches                      ...     2545
Average number of points per batch           ...       63
Average number of grid points per atom       ...     4904
Initializing property integral containers    ... done (  0.1 sec)

SHARK setup successfully completed in   3.9 seconds

Maximum memory used throughout the entire STARTUP-calculation: 84.7 MB
Occupation numbers will be reassigned to an Aufbau configuration
             **** ENERGY FILE WAS UPDATED (xtb_opt.en.tmp) ****
Finished Guess after   1.0 sec
Maximum memory used throughout the entire GUESS-calculation: 45.5 MB
--------------------
CPCM SOLVATION MODEL
--------------------
CPCM parameters:
  Epsilon                                         ...      78.3550
  Refrac                                          ...       1.3328
  Rsolv                                           ...       1.3000
  Surface type                                    ... GAUSSIAN VDW
  Discretization scheme                           ... Constant charge density
    Threshold for H atoms                         ...       5.0000 (charges/Ang^2)
    Threshold for non-H atoms                     ...       5.0000 (charges/Ang^2)
  Epsilon function type                           ...         CPCM
Solvent:                                          ... WATER
SMD-CDS solvent descriptors:
  Soln                                            ...       1.3328
  Soln25                                          ...       1.3323
  Sola                                            ...       0.0000
  Solb                                            ...       0.0000
  Solg                                            ...       0.0000
  Solc                                            ...       0.0000
  Solh                                            ...       0.0000
Radii:
  Scheme                                          ... Element-dependent radii
  Radius for C  used is    3.4960 Bohr (=   1.8500 Ang.)
  Radius for O  used is    2.8724 Bohr (=   1.5200 Ang.)
  Radius for N  used is    3.5716 Bohr (=   1.8900 Ang.)
  Radius for H  used is    2.2677 Bohr (=   1.2000 Ang.)
Calculating surface                               ...        done! (  0.0s)
Cavity surface points                             ...         2458
Cavity Volume                                     ...    1729.0744
Cavity Surface-area                               ...     970.8599
Calculating surface distance matrix               ...        done! (  0.0s)
Performing Cholesky decomposition & store         ...        done! (  0.3s)
Overall time for CPCM initialization              ...                 0.3s

----------------------------------------D-I-I-S--------------------------------------------
Iteration    Energy (Eh)           Delta-E    RMSDP     MaxDP     DIISErr   Damp  Time(sec)
[...]
                          DFT DISPERSION CORRECTION                            
                                                                               
                                DFTD4 V3.4.0                                   
-------------------------------------------------------------------------------
-------------------------   ----------------
Dispersion correction           -0.015757378
-------------------------   ----------------

------------------   -----------------
gCP correction             0.015973362
------------------   -----------------

-------------------------   --------------------
FINAL SINGLE POINT ENERGY      -897.808357346048
-------------------------   --------------------

------------------------------------------------------------------------------
                         ORCA SCF GRADIENT CALCULATION
------------------------------------------------------------------------------

Nuc. rep. gradient        (SHARK) ... done (  0.0 sec)
HCore & Overlap gradient  (SHARK) ... done (  2.1 sec)
Split-RIJ-J gradient      (SHARK) ... done ( 10.8 sec)
XC gradient                       ... done ( 26.5 sec)
CPCM gradient                     ... done (  5.1 sec)
SMD gradient                      ... done (  0.0 sec)
Dispersion correction             ... done (  0.0 sec)

-------------------
DISPERSION GRADIENT
-------------------

   1   C   :   -0.000124820   -0.000035028    0.000013345
   2   C   :   -0.000101144   -0.000090709    0.000006281
   3   C   :   -0.000062469   -0.000131416   -0.000001947
   4   C   :   -0.000069330   -0.000084958    0.000000566
   5   C   :   -0.000105597    0.000019076    0.000015573
   6   C   :   -0.000137963    0.000025052    0.000020196
   7   C   :   -0.000075816    0.000115884    0.000019413
   8   O   :   -0.000071205    0.000126719    0.000021530
   9   C   :   -0.000016038    0.000122408    0.000002041
  10   C   :    0.000011592    0.000168018    0.000003496
  11   C   :    0.000050513    0.000168705   -0.000013383
  12   C   :    0.000083087    0.000113074   -0.000033731
  13   C   :    0.000071509    0.000013396   -0.000042701
  14   C   :    0.000008297    0.000012954   -0.000025553
  15   C   :   -0.000012386   -0.000108930   -0.000021085
  16   O   :    0.000006619   -0.000147900   -0.000027300
  17   N   :    0.000079152   -0.000090112   -0.000054576
  18   C   :    0.000122197   -0.000057461   -0.000033272
  19   C   :    0.000100096   -0.000062148    0.000034007
  20   O   :    0.000070401   -0.000019308    0.000094108
  21   H   :   -0.000046570   -0.000005805    0.000005573
  22   H   :   -0.000028417   -0.000037176    0.000000971
  23   H   :   -0.000004543   -0.000058365   -0.000003675
  24   H   :   -0.000045735    0.000030194    0.000008501
  25   H   :   -0.000005300    0.000057120    0.000005456
  26   H   :    0.000020470    0.000055714   -0.000002130
  27   H   :    0.000037776    0.000037974   -0.000013009
  28   H   :    0.000020768   -0.000040080   -0.000019395
  29   H   :    0.000042496   -0.000015709   -0.000020442
  30   H   :    0.000034704   -0.000031047   -0.000024206
  31   H   :    0.000031405   -0.000013666    0.000014319
  32   H   :    0.000040180   -0.000024365    0.000025043
  33   H   :    0.000076072   -0.000012104    0.000045987

Difference to translation invariance:
           :    0.0000000000    0.0000000000    0.0000000000

Difference to rotation invariance:
           :    0.0000000000   -0.0000000000    0.0000000000

Norm of the Dispersion gradient    ...    0.0006221611
RMS gradient                       ...    0.0000625295
MAX gradient                       ...    0.0001687045
gCP correction                   ... done

------------------
CARTESIAN GRADIENT
------------------

   1   C   :   -0.000005965   -0.000003069    0.000001648
   2   C   :   -0.000002621    0.000004118    0.000009106
   3   C   :    0.000000911    0.000007962   -0.000021603
   4   C   :   -0.000021621    0.000027138   -0.000052772
   5   C   :   -0.000009700   -0.000022358   -0.000018634
   6   C   :    0.000000598    0.000001111    0.000011758
   7   C   :   -0.000039049    0.000054105    0.000039001
   8   O   :    0.000031206   -0.000049928    0.000009084
   9   C   :    0.000031874   -0.000008383   -0.000014728
  10   C   :    0.000005676    0.000001477    0.000012750
  11   C   :   -0.000009498    0.000016322   -0.000009659
  12   C   :   -0.000014439   -0.000019786   -0.000025158
  13   C   :   -0.000006598    0.000010204   -0.000016127
  14   C   :   -0.000022131    0.000020169   -0.000078103
  15   C   :    0.000064894   -0.000045451    0.000262207
  16   O   :   -0.000025593    0.000020990   -0.000036088
  17   N   :   -0.000078618    0.000017922   -0.000044495
  18   C   :    0.000040564   -0.000038444    0.000018941
  19   C   :   -0.000025053   -0.000076291   -0.000111292
  20   O   :    0.000019333    0.000046734    0.000024746
  21   H   :   -0.000002638    0.000004161   -0.000025788
  22   H   :   -0.000002556    0.000001526   -0.000000853
  23   H   :   -0.000001879    0.000000195    0.000019672
  24   H   :    0.000000432    0.000000256   -0.000003836
  25   H   :   -0.000004345   -0.000001772    0.000024461
  26   H   :   -0.000000404    0.000006385   -0.000017627
  27   H   :    0.000000194    0.000020176   -0.000033607
  28   H   :    0.000052748    0.000009369    0.000055723
  29   H   :    0.000004204    0.000018006    0.000030588
  30   H   :    0.000013209    0.000026906   -0.000041356
  31   H   :    0.000005972   -0.000054317    0.000009149
  32   H   :   -0.000039019    0.000017720    0.000013791
  33   H   :    0.000039913   -0.000013149    0.000009099

Difference to translation invariance:
           :    0.0000000000   -0.0000000000    0.0000000000

Difference to rotation invariance:
           :   -0.0000029295    0.0009356558   -0.0005499364

Norm of the Cartesian gradient     ...    0.0003970889
RMS gradient                       ...    0.0000399089
MAX gradient                       ...    0.0002622068

-------
TIMINGS
-------

Total SCF gradient time     ....       48.601 sec

Densities                   ....       0.005 sec  (  0.0%)
One electron gradient       ....       2.095 sec  (  4.3%)
RI-J Coulomb gradient       ....      10.809 sec  ( 22.2%)
XC gradient                 ....      26.490 sec  ( 54.5%)
CPCM gradient               ....       5.102 sec  ( 10.5%)
   A-Matrix (El+Nuc)        ....       0.200 sec  (  0.4%)
   Potential                ....       4.902 sec  ( 10.1%)
SMD gradient                ....       0.018 sec  (  0.0%)

Maximum memory used throughout the entire SCFGRAD-calculation: 72.6 MB

------------------------------------------------------------------------------
                              ORCA PROPERTY CALCULATIONS
------------------------------------------------------------------------------

GBWName                                 ... xtb_opt.gbw
Number of atoms                         ...     33
Number of basis functions               ...    465
Max core memory                         ...   1024 MB

Electric properties:
Dipole moment                           ... YES
Quadrupole moment                       ...  NO
Static polarizability (Dipole/Dipole)   ...  NO
Static polarizability (Dipole/Quad.)    ...  NO
Static polarizability (Quad./Quad.)     ...  NO
Static polarizability (Velocity)        ...  NO

Atomic electric properties:
Dipole moment                           ...  NO
Quadrupole moment                       ...  NO
Static polarizability                   ...  NO

Choice of electric origin               ... Center of mass
Position of electric origin             ...    -0.001897     0.006325    -0.014534

General magnetic properties:
Magnetizability                         ...  NO

EPR properties:
g-Tensor (aka g-matrix)                 ...  NO
Zero-Field splitting spin-orbit         ...  NO
Zero-field splitting spin-spin          ...  NO
Hyperfine couplings                     ...  NO (   0 nuclei)
Quadrupole couplings                    ...  NO (   0 nuclei)
Contact density                         ...  NO (   0 nuclei)

NMR properties:
Chemical shifts                         ...  NO (   0 nuclei)
Spin-rotation constants                 ...  NO (   0 nuclei)
Spin-spin couplings                     ...  NO (   0 nuclei,    0 pairs)

Choice of magnetic origin               ... GIAO
Position of magnetic origin             ...     0.000000     0.000000     0.000000

Properties with geometric perturbations:
SCF Hessian                             ...  NO
IR spectrum                             ...  NO
VCD spectrum                            ...  NO
X-ray spectroscopy properties:
SCF XES/XAS/RIXS spectra                ...  NO


-------------
DIPOLE MOMENT
-------------

Method             : SCF
Type of density    : Electron Density
Multiplicity       :   1
Irrep              :   0
Energy             :  -897.8085733294338979 Eh
Relativity type    : 
Basis              : AO
                                X                 Y                 Z
Electronic contribution:    -10.755130330       3.219755045      -0.605891714
Nuclear contribution   :     11.834618964      -4.510285345       0.159681266
                        -----------------------------------------
Total Dipole Moment    :      1.079488634      -1.290530301      -0.446210448
                        -----------------------------------------
Magnitude (a.u.)       :      1.740651582
Magnitude (Debye)      :      4.424384711



--------------------
Rotational spectrum 
--------------------
 
Rotational constants in cm-1:             0.021955             0.007579             0.005942 
Rotational constants in MHz :           658.195746           227.223712           178.131634 

Dipole components along the rotational axes: 
x,y,z [a.u.] :     1.034057    -1.334875    -0.422732 
x,y,z [Debye]:     2.628365    -3.392982    -1.074500 

 

Dipole moment calculation done in   0.0 sec 

Maximum memory used throughout the entire PROP-calculation: 42.6 MB

--------------------------------
SUGGESTED CITATIONS FOR THIS RUN
--------------------------------

Below you find a list of papers that are relevant to this ORCA run
We neither can nor want to force you to cite these papers, but we appreciate if you do
You receive ORCA, which is the product of decades of hard work by many enthusiastic individuals, for free
The only thing we kindly ask in return is that you cite our papers,
We deeply appreciate it, if you show your appreciation for ORCA by not just citing the generic ORCA reference.

Please note that relegating all ORCA citations to the supporting information does *not* help us.
SI sections are not indexed - citations you put there will not count into any citation statistics
But we need these citations in order to attract the funding resources that allow us to do what we are doing

Therefore, if you are a happy ORCA user, please consider citing a few of the papers listed below in the main body of your paper

In addition to the list printed below, the program has created the file xtb_opt.bibtex that contains the list in bibtex format
You can import this file easily into all common literature databanks and citation aid programs


List of essential papers. We consider these as the minimum necessary citations

  1. Neese,F.
     Software update: the ORCA program system, version 5.0
     WIRES Comput. Molec. Sci., 2022 12(1)e1606
     doi.org/10.1002/wcms.1606
  2. Grimme,S.; Hansen,A.; Ehlert,S.; Mewes,J.
     r2SCAN-3c: A 'Swiss army knife' composite electronic-structure method
     J. Chem. Phys., 2021 154 064103
     doi.org/10.1063/5.0040021

List of papers to cite with high priority. The work reported in these papers was absolutely
necessary for this run to complete.
Our perspective: the developers of density functionals and basis sets usually get cited in chemistry papers
Good! But without the algorithms to do something with them, the functionals or basis sets would not do anything.
Hence, in our opinion, the algorithm design and method developments papers are equally worthy of getting cited

  1. Neese,F.
     An improvement of the resolution of the identity approximation for the formation of the Coulomb matrix
     J. Comp. Chem., 2003 24(14)1740-1747
     doi.org/10.1002/jcc.10318
  2. Garcia-Rates,M.; Neese,F.
     Effect of the Solute Cavity on the Solvation Energy and its Derivatives within the Framework of the Gaussian Charge Scheme
     J. Comput. Chem., 2020 41 922-939
     doi.org/10.1002/jcc.26139
  3. Neese,F.
     The SHARK Integral Generation and Digestion System
     J. Comp. Chem., 2022  1-16
     doi.org/10.1002/jcc.26942
  4. Lehtola,S.; Steigemann,C.; Oliveira,M.; Marques,M.
     Recent developments in Libxc - A comprehensive library of functionals for density functional theory
     Software X, 2018 7 
     doi.org/10.1016/j.softx.2017.11.002
  5. Caldeweyher,E.; Bannwarth,C.; Grimme,S.
     Extension of the D3 dispersion coefficient model
     J. Chem. Phys., 2017 147 034112-XXXX
     doi.org/10.1063/1.4993215
  6. Caldeweyher,E.; Ehlert,S.; Hansen,A.; Neugebauer,H.; Spicher,S.; Bannwarth,C.; Grimme,S.
     A generally applicable atomic-charge dependent London dispersion correction
     J. Chem. Phys., 2019 150 154122-XXXX
     doi.org/10.1063/1.5090222
  7. Caldeweyher,E.; Mewes,J.; Ehlert,S.; Grimme,S.
     Extension and evaluation of the D4 London-dispersion model for periodic systems
     Phys. Chem. Chem. Phys., 2020 22(16)8499-8512
     doi.org/10.1039/D0CP00502A

List of suggested additional citations. These are papers that are important in the 'surrounding' of 
of this run, or papers that preceded the highly important papers. If you like your results we are grateful for a citation.

  1. Neese,F.
     The ORCA program system
     WIRES Comput. Molec. Sci., 2012 2(1)73-78
     doi.org/10.1002/wcms.81
  2. Neese,F.
     Software update: the ORCA program system, version 4.0
     WIRES Comput. Molec. Sci., 2018 8(1)1-6
     doi.org/10.1002/wcms.1327
  3. Neese,F.; Wennmohs,F.; Becker,U.; Riplinger,C.
     The ORCA quantum chemistry program package
     J. Chem. Phys., 2020 152 Art. No. L224108
     doi.org/10.1063/5.0004608

List of optional additional citations

  1. Neese,F.
     Approximate second-order SCF convergence for spin unrestricted wavefunctions
     Chem. Phys. Lett., 2000 325(1-3)93-98
     doi.org/10.1016/s0009-2614(00)00662-x

Timings for individual modules:

Sum of individual times          ...       88.220 sec (=   1.470 min)
Startup calculation              ...        4.035 sec (=   0.067 min)   4.6 %
SCF iterations                   ...       35.193 sec (=   0.587 min)  39.9 %
Property calculations            ...        0.172 sec (=   0.003 min)   0.2 %
SCF Gradient evaluation          ...       48.819 sec (=   0.814 min)  55.3 %
                             ****ORCA TERMINATED NORMALLY****
TOTAL RUN TIME: 0 days 0 hours 1 minutes 29 seconds 380 msec
  ------------------------------------------------------------------------
          * successful ORCA run, taking over control again...

         :::::::::::::::::::::::::::::::::::::::::::::::::::::
         ::                  ORCA SUMMARY                   ::
         :::::::::::::::::::::::::::::::::::::::::::::::::::::
         :: total energy            -897.808357346048 Eh    ::
         :: gradient norm              0.000397088870 Eh/a0 ::
         :: HOMO-LUMO gap              0.000000000000 eV    ::
         :::::::::::::::::::::::::::::::::::::::::::::::::::::

           -------------------------------------------------
          |                Property Printout                |
           -------------------------------------------------
           -------------------------------------------------
          |                Geometry Summary                 |
           -------------------------------------------------

      molecular mass/u    :      267.2799221
   center of mass at/Å    :       -0.0009992       0.0033483      -0.0076870
  moments of inertia/u·Å² :        0.7678169E+03   0.2224114E+04   0.2837069E+04
rotational constants/cm⁻¹ :        0.2195528E-01   0.7579481E-02   0.5941918E-02

 * 29 selected distances

     #   Z          #   Z                                           value/Å
     1   6 C        2   6 C                                       1.3957977
     2   6 C        3   6 C                                       1.3884163
     3   6 C        4   6 C                                       1.3975312
     4   6 C        5   6 C                                       1.4045611
     1   6 C        6   6 C                                       1.3869703
     5   6 C        6   6 C                                       1.3980876
     7   6 C        8   8 O                                       1.2355676
     9   6 C       10   6 C                                       1.3845458
    10   6 C       11   6 C                                       1.3984351
    11   6 C       12   6 C                                       1.3743834
    12   6 C       13   6 C                                       1.4207132
     9   6 C       14   6 C                                       1.4233603
    13   6 C       17   7 N                                       1.3509996
    17   7 N       18   6 C                                       1.4554460
    18   6 C       19   6 C                                       1.5243221 (max)
    19   6 C       20   8 O                                       1.4347640
     1   6 C       21   1 H                                       1.0848738
     2   6 C       22   1 H                                       1.0851024
     3   6 C       23   1 H                                       1.0837215
     6   6 C       24   1 H                                       1.0841958
    10   6 C       25   1 H                                       1.0829502
    11   6 C       26   1 H                                       1.0852459
    12   6 C       27   1 H                                       1.0817062
    17   7 N       28   1 H                                       1.0167218
    18   6 C       29   1 H                                       1.0927548
    18   6 C       30   1 H                                       1.0956139
    19   6 C       31   1 H                                       1.0947548
    19   6 C       32   1 H                                       1.0983842
    20   8 O       33   1 H                                       0.9660774 (min)

 * 6 distinct bonds (by element types)

   Z      Z             #   av. dist./Å        max./Å        min./Å
   1 H    6 C          11     1.0881185     1.0983842     1.0817062
   6 C    6 C          12     1.4080937     1.5243221     1.3743834
   1 H    7 N           1     1.0167218     1.0167218     1.0167218
   6 C    7 N           2     1.4032228     1.4554460     1.3509996
   1 H    8 O           1     0.9660774     0.9660774     0.9660774
   6 C    8 O           2     1.3351658     1.4347640     1.2355676


optimized geometry written to: xtbopt.coord


           -------------------------------------------------
          | TOTAL ENERGY             -897.808357346048 Eh   |
          | GRADIENT NORM               0.000397088870 Eh/α |
           -------------------------------------------------

------------------------------------------------------------------------
 * finished run on 2025/04/11 at 17:15:38.486     
------------------------------------------------------------------------
 total:
 * wall-time:     0 d,  0 h,  5 min, 18.342 sec
 *  cpu-time:     0 d,  0 h,  0 min,  2.283 sec
 * ratio c/w:     0.007 speedup
 SCF:
 * wall-time:     0 d,  0 h,  1 min, 52.415 sec
 *  cpu-time:     0 d,  0 h,  0 min,  0.176 sec
 * ratio c/w:     0.002 speedup
 ANC optimizer:
 * wall-time:     0 d,  0 h,  3 min, 25.855 sec
 *  cpu-time:     0 d,  0 h,  0 min,  2.091 sec
 * ratio c/w:     0.010 speedup

