
                                 *****************
                                 * O   R   C   A *
                                 *****************

                                            #,                                       
                                            ###                                      
                                            ####                                     
                                            #####                                    
                                            ######                                   
                                           ########,                                 
                                     ,,################,,,,,                         
                               ,,#################################,,                 
                          ,,##########################################,,             
                       ,#########################################, ''#####,          
                    ,#############################################,,   '####,        
                  ,##################################################,,,,####,       
                ,###########''''           ''''###############################       
              ,#####''   ,,,,##########,,,,          '''####'''          '####       
            ,##' ,,,,###########################,,,                        '##       
           ' ,,###''''                  '''############,,,                           
         ,,##''                                '''############,,,,        ,,,,,,###''
      ,#''                                            '''#######################'''  
     '                                                          ''''####''''         
             ,#######,   #######,   ,#######,      ##                                
            ,#'     '#,  ##    ##  ,#'     '#,    #''#        ,####,   ,####,        
            ##       ##  ##   ,#'  ##            #'  '#       #'       #'  '#        
            ##       ##  #######   ##           ,######,      #####,   #    #        
            '#,     ,#'  ##    ##  '#,     ,#' ,#      #,     #,   #   #,  ,#        
             '#######'   ##     ##  '#######'  #'      '#     '####' # '####'        



                #########################################################
                #                        -***-                          #
                #          Department of theory and spectroscopy        #
                #                                                       #
                #                      Frank Neese                      #
                #                                                       #
                #     Directorship, Architecture, Infrastructure        #
                #                    SHARK, DRIVERS                     #
                #        Core code/Algorithms in most modules           #
                #                                                       #
                #        Max Planck Institute fuer Kohlenforschung      #
                #                Kaiser Wilhelm Platz 1                 #
                #                 D-45470 Muelheim/Ruhr                 #
                #                      Germany                          #
                #                                                       #
                #                  All rights reserved                  #
                #                        -***-                          #
                #########################################################


                         Program Version 6.0.0  -   RELEASE  -


 With contributions from (in alphabetic order):
   Daniel Aravena         : Magnetic Suceptibility
   Michael Atanasov       : Ab Initio Ligand Field Theory (pilot matlab implementation)
   Alexander A. Auer      : GIAO ZORA, VPT2 properties, NMR spectrum
   Ute Becker             : All parallelization in ORCA, NUMFREQ, NUMCALC
   Giovanni Bistoni       : ED, misc. LED, open-shell LED, HFLD
   Martin Brehm           : Molecular dynamics
   Dmytro Bykov           : pre 5.0 version of the SCF Hessian
   Marcos Casanova-Páez   : Triplet and SCS-CIS(D). UHF-(DLPNO)-IP/EA/STEOM-CCSD. UHF-CVS-IP/STEOM-CCSD
   Vijay G. Chilkuri      : MRCI spin determinant printing, contributions to CSF-ICE
   Pauline Colinet        : FMM embedding
   Dipayan Datta          : RHF DLPNO-CCSD density
   Achintya Kumar Dutta   : EOM-CC, STEOM-CC
   Nicolas Foglia         : Exact transition moments, OPA infrastructure, MCD improvements
   Dmitry Ganyushin       : Spin-Orbit,Spin-Spin,Magnetic field MRCI
   Miquel Garcia          : C-PCM and meta-GGA Hessian, CCSD/C-PCM, Gaussian charge scheme
   Tiago L. C. Gouveia    : GS-ROHF, GS-ROCIS
   Yang Guo               : DLPNO-NEVPT2, F12-NEVPT2, CIM, IAO-localization
   Andreas Hansen         : Spin unrestricted coupled pair/coupled cluster methods
   Ingolf Harden          : AUTO-CI MPn and infrastructure 
   Benjamin Helmich-Paris : MC-RPA, TRAH-(SCF,CASSCF), AVAS, COSX integrals, SCF dyn. polar.
   Lee Huntington         : MR-EOM, pCC
   Robert Izsak           : Overlap fitted RIJCOSX, COSX-SCS-MP3, EOM
   Riya Kayal             : Wick's Theorem for AUTO-CI, AUTO-CI UHF-CCSDT
   Emily Kempfer          : AUTO-CI, RHF CISDT and CCSDT
   Christian Kollmar      : KDIIS, OOCD, Brueckner-CCSD(T), CCSD density, CASPT2, CASPT2-K, improved NEVPT2
   Axel Koslowski         : Symmetry handling
   Simone Kossmann        : Meta GGA functionals, TD-DFT gradient, OOMP2, (MP2 Hessian; deprecated post 5.0)
   Lucas Lang             : DCDCAS
   Marvin Lechner         : AUTO-CI (C++ implementation), FIC-MRCC
   Spencer Leger          : CASSCF response
   Dagmar Lenk            : GEPOL surface, SMD, ORCA-2-JSON
   Dimitrios Liakos       : Extrapolation schemes; Compound Job, initial MDCI parallelization
   Dimitrios Manganas     : Further ROCIS development; embedding schemes. LFT, Crystal Embedding
   Dimitrios Pantazis     : SARC Basis sets
   Anastasios Papadopoulos: AUTO-CI, single reference methods and gradients
   Taras Petrenko         : pre 6.0 DFT Hessian and TD-DFT gradient, (ASA, deprecated), ECA, 1-Electron XAS/XES, NRVS
   Peter Pinski           : DLPNO-MP2, DLPNO-MP2 Gradient
   Christoph Reimann      : Effective Core Potentials
   Marius Retegan         : Local ZFS, SOC
   Christoph Riplinger    : Optimizer, TS searches, QM/MM, DLPNO-CCSD(T), (RO)-DLPNO pert. Triples
   Michael Roemelt        : Original ROCIS implementation
   Masaaki Saitow         : Open-shell DLPNO-CCSD energy and density
   Barbara Sandhoefer     : DKH picture change effects
   Kantharuban Sivalingam : CASSCF convergence/infrastructure, NEVPT2 and variants, FIC-MRCI
   Bernardo de Souza      : ESD, SOC TD-DFT
   Georgi Stoychev        : AutoAux, RI-MP2 NMR, DLPNO-MP2 response, X2C
   Van Anh Tran           : RI-MP2 g-tensors
   Willem Van den Heuvel  : Paramagnetic NMR
   Zikuan Wang            : NOTCH, Electric field optimization 
   Frank Wennmohs         : Technical directorship and infrastructure
   Hang Xu                : AUTO-CI-Response properties 


 We gratefully acknowledge several colleagues who have allowed us to
 interface, adapt or use parts of their codes:
   Stefan Grimme, W. Hujo, H. Kruse, P. Pracht,  : VdW corrections, initial TS optimization,
                  C. Bannwarth, S. Ehlert,         DFT functionals, gCP, sTDA/sTD-DF
                  L. Wittmann, M. Mueller
   Ed Valeev, F. Pavosevic, A. Kumar             : LibInt (2-el integral package), F12 methods
   Garnet Chan, S. Sharma, J. Yang, R. Olivares  : DMRG
   Ulf Ekstrom                                   : XCFun DFT Library
   Mihaly Kallay                                 : mrcc  (arbitrary order and MRCC methods)
   Frank Weinhold                                : gennbo (NPA and NBO analysis)
   Simon Mueller                                 : openCOSMO-RS
   Christopher J. Cramer and Donald G. Truhlar   : smd solvation model
   Lars Goerigk                                  : TD-DFT with DH, B97 family of functionals
   V. Asgeirsson, H. Jonsson                     : NEB implementation
   FAccTs GmbH                                   : IRC, NEB, NEB-TS, DLPNO-Multilevel, CI-OPT
                                                   MM, QMMM, 2- and 3-layer-ONIOM, Crystal-QMMM,
                                                   LR-CPCM, SF, NACMEs, symmetry and pop. for TD-DFT,
                                                   nearIR, NL-DFT gradient (VV10), updates on ESD,
                                                   ML-optimized integration grids, MBIS, APM,
                                                   GOAT, DOCKER, SOLVATOR, interface openCOSMO-RS
   S Lehtola, MJT Oliveira, MAL Marques          : LibXC Library
   Liviu Ungur et al                             : ANISO software


 Your calculation uses the libint2 library for the computation of 2-el integrals
 For citations please refer to: http://libint.valeyev.net

 Your ORCA version has been built with support for libXC version: 6.2.2
 For citations please refer to: https://libxc.gitlab.io

 This ORCA versions uses:
   CBLAS   interface :  Fast vector & matrix operations
   LAPACKE interface :  Fast linear algebra routines
   SCALAPACK package :  Parallel linear algebra routines
   Shared memory     :  Shared parallel matrices
   BLAS/LAPACK       :  OpenBLAS 0.3.27  USE64BITINT DYNAMIC_ARCH NO_AFFINITY SkylakeX SINGLE_THREADED
        Core in use  :  SkylakeX
   Copyright (c) 2011-2014, The OpenBLAS Project


Your calculation utilizes the geometrical counterpoise correction gCP
Please cite in your paper:
H.Kruse, S. Grimme J.Chem.Phys., 136, (2012), 154101 
   

Your calculation utilizes the atom-pairwise dispersion correction
based on EEQ partial charges (D4)


================================================================================

----- Orbital basis set information -----
Your calculation utilizes the basis: def2-SV(P)
   F. Weigend and R. Ahlrichs, Phys. Chem. Chem. Phys. 7, 3297 (2005).

----- AuxJ basis set information -----
Your calculation utilizes the auxiliary basis: def2/J
   F. Weigend, Phys. Chem. Chem. Phys. 8, 1057 (2006).

================================================================================
                                        WARNINGS
                       Please study these warnings very carefully!
================================================================================


================================================================================
                                       INPUT FILE
================================================================================
NAME = sp.inp
|  1> ! pbe def2-sv(p) def2/J RI DEFGRID1 loosescf d4 GCP(DFT/SV(P)) printgap
|  2> %output
|  3>     printlevel normal
|  4> end
|  5> * xyz 0 1
|  6> C -3.3172326672 -1.0859708603 0.1030629281
|  7> C -1.8733977931 -0.7183742069 0.4196972535
|  8> C -1.3541313033 0.3651704876 -0.5376797776
|  9> C 0.0636493056 0.7080813053 -0.1692261684
| 10> O 0.3856160415 1.5900978435 0.6001706591
| 11> O 0.9297685792 -0.0975704073 -0.7702216474
| 12> C 2.3269660188 0.045943566 -0.4647924695
| 13> C 2.7064945362 -0.7710769632 0.7608755161
| 14> H -3.3994139362 -1.4643821023 -0.912462192
| 15> H -3.666136012 -1.8538106733 0.7879942765
| 16> H -3.9622647748 -0.2166884752 0.2013439293
| 17> H -1.2394861179 -1.6025596338 0.3316956681
| 18> H -1.8009539746 -0.3497598024 1.4451425539
| 19> H -1.9667523007 1.2616291982 -0.4468792341
| 20> H -1.3775171418 -0.0074343766 -1.5608105914
| 21> H 2.8421026081 -0.3123939379 -1.356447734
| 22> H 2.5405283984 1.1066918323 -0.3016743772
| 23> H 3.7746352942 -0.6870383722 0.932130599
| 24> H 2.1782278193 -0.397233558 1.6351791989
| 25> H 2.4480811429 -1.8157490517 0.6102359503
| 26> *
| 27> 
| 28>                          ****END OF INPUT****
================================================================================

                       ****************************
                       * Single Point Calculation *
                       ****************************

---------------------------------
CARTESIAN COORDINATES (ANGSTROEM)
---------------------------------
  C     -3.317233   -1.085971    0.103063
  C     -1.873398   -0.718374    0.419697
  C     -1.354131    0.365170   -0.537680
  C      0.063649    0.708081   -0.169226
  O      0.385616    1.590098    0.600171
  O      0.929769   -0.097570   -0.770222
  C      2.326966    0.045944   -0.464792
  C      2.706495   -0.771077    0.760876
  H     -3.399414   -1.464382   -0.912462
  H     -3.666136   -1.853811    0.787994
  H     -3.962265   -0.216688    0.201344
  H     -1.239486   -1.602560    0.331696
  H     -1.800954   -0.349760    1.445143
  H     -1.966752    1.261629   -0.446879
  H     -1.377517   -0.007434   -1.560811
  H      2.842103   -0.312394   -1.356448
  H      2.540528    1.106692   -0.301674
  H      3.774635   -0.687038    0.932131
  H      2.178228   -0.397234    1.635179
  H      2.448081   -1.815749    0.610236

----------------------------
CARTESIAN COORDINATES (A.U.)
----------------------------
  NO LB      ZA    FRAG     MASS         X           Y           Z
   0 C     6.0000    0    12.011   -6.268661   -2.052188    0.194761
   1 C     6.0000    0    12.011   -3.540209   -1.357531    0.793113
   2 C     6.0000    0    12.011   -2.558937    0.690072   -1.016068
   3 C     6.0000    0    12.011    0.120280    1.338080   -0.319791
   4 O     8.0000    0    15.999    0.728709    3.004849    1.134158
   5 O     8.0000    0    15.999    1.757008   -0.184381   -1.455508
   6 C     6.0000    0    12.011    4.397328    0.086821   -0.878330
   7 C     6.0000    0    12.011    5.114533   -1.457124    1.437846
   8 H     1.0000    0     1.008   -6.423961   -2.767281   -1.724304
   9 H     1.0000    0     1.008   -6.927993   -3.503194    1.489093
  10 H     1.0000    0     1.008   -7.487595   -0.409482    0.380485
  11 H     1.0000    0     1.008   -2.342289   -3.028399    0.626814
  12 H     1.0000    0     1.008   -3.403310   -0.660950    2.730924
  13 H     1.0000    0     1.008   -3.716623    2.384134   -0.844479
  14 H     1.0000    0     1.008   -2.603130   -0.014049   -2.949505
  15 H     1.0000    0     1.008    5.370796   -0.590339   -2.563315
  16 H     1.0000    0     1.008    4.800903    2.091344   -0.570082
  17 H     1.0000    0     1.008    7.133027   -1.298314    1.761472
  18 H     1.0000    0     1.008    4.116254   -0.750663    3.090041
  19 H     1.0000    0     1.008    4.626203   -3.431268    1.153179

--------------------------------
INTERNAL COORDINATES (ANGSTROEM)
--------------------------------
 C      0   0   0     0.000000000000     0.00000000     0.00000000
 C      1   0   0     1.523168979227     0.00000000     0.00000000
 C      2   1   0     1.536319488937   111.16522592     0.00000000
 C      3   2   1     1.504475904095   109.06587952   179.05633743
 O      4   3   2     1.213914012956   124.80464424   268.47294814
 O      4   3   2     1.326813040294   111.45888399    87.07724455
 C      6   4   3     1.437373969595   118.53260689   183.53609074
 C      7   6   4     1.521126704643   111.10758687    86.64383973
 H      1   2   3     1.086848700878   110.48362119    59.94636609
 H      1   2   3     1.086481695410   110.11550732   179.88866034
 H      1   2   3     1.086911882388   110.53212703   299.78205779
 H      2   1   3     1.091499958832   109.77109910   239.38476271
 H      2   1   3     1.092090999027   109.84831590   120.65652211
 H      3   2   1     1.089581316362   109.77382836    59.96569144
 H      3   2   1     1.089117966253   109.68565110   298.56418427
 H      7   6   4     1.090330492579   104.63541150   206.95284274
 H      7   6   4     1.094259240982   108.55249189   324.81436813
 H      8   7   6     1.085041689106   109.34124307   176.83120575
 H      8   7   6     1.087764471544   109.99115807   296.41972362
 H      8   7   6     1.086650603051   110.20200642    56.67743544

---------------------------
INTERNAL COORDINATES (A.U.)
---------------------------
 C      0   0   0     0.000000000000     0.00000000     0.00000000
 C      1   0   0     2.878372226424     0.00000000     0.00000000
 C      2   1   0     2.903223088296   111.16522592     0.00000000
 C      3   2   1     2.843047433822   109.06587952   179.05633743
 O      4   3   2     2.293965034617   124.80464424   268.47294814
 O      4   3   2     2.507313277072   111.45888399    87.07724455
 C      6   4   3     2.716243154562   118.53260689   183.53609074
 C      7   6   4     2.874512886770   111.10758687    86.64383973
 H      1   2   3     2.053846393668   110.48362119    59.94636609
 H      1   2   3     2.053152853844   110.11550732   179.88866034
 H      1   2   3     2.053965789419   110.53212703   299.78205779
 H      2   1   3     2.062635997379   109.77109910   239.38476271
 H      2   1   3     2.063752901482   109.84831590   120.65652211
 H      3   2   1     2.059010288562   109.77382836    59.96569144
 H      3   2   1     2.058134683751   109.68565110   298.56418427
 H      7   6   4     2.060426026438   104.63541150   206.95284274
 H      7   6   4     2.067850284968   108.55249189   324.81436813
 H      8   7   6     2.050431636297   109.34124307   176.83120575
 H      8   7   6     2.055576949428   109.99115807   296.41972362
 H      8   7   6     2.053472043028   110.20200642    56.67743544

---------------------
BASIS SET INFORMATION
---------------------
There are 3 groups of distinct atoms

 Group   1 Type C   : 7s4p1d contracted to 3s2p1d pattern {511/31/1}
 Group   2 Type O   : 7s4p1d contracted to 3s2p1d pattern {511/31/1}
 Group   3 Type H   : 4s contracted to 2s pattern {31}

Atom   0C    basis set group =>   1
Atom   1C    basis set group =>   1
Atom   2C    basis set group =>   1
Atom   3C    basis set group =>   1
Atom   4O    basis set group =>   2
Atom   5O    basis set group =>   2
Atom   6C    basis set group =>   1
Atom   7C    basis set group =>   1
Atom   8H    basis set group =>   3
Atom   9H    basis set group =>   3
Atom  10H    basis set group =>   3
Atom  11H    basis set group =>   3
Atom  12H    basis set group =>   3
Atom  13H    basis set group =>   3
Atom  14H    basis set group =>   3
Atom  15H    basis set group =>   3
Atom  16H    basis set group =>   3
Atom  17H    basis set group =>   3
Atom  18H    basis set group =>   3
Atom  19H    basis set group =>   3
---------------------------------
AUXILIARY/J BASIS SET INFORMATION
---------------------------------
There are 3 groups of distinct atoms

 Group   1 Type C   : 12s5p4d2f1g contracted to 6s4p3d1f1g pattern {711111/2111/211/2/1}
 Group   2 Type O   : 12s5p4d2f1g contracted to 6s4p3d1f1g pattern {711111/2111/211/2/1}
 Group   3 Type H   : 5s2p1d contracted to 3s1p1d pattern {311/2/1}

Atom   0C    basis set group =>   1
Atom   1C    basis set group =>   1
Atom   2C    basis set group =>   1
Atom   3C    basis set group =>   1
Atom   4O    basis set group =>   2
Atom   5O    basis set group =>   2
Atom   6C    basis set group =>   1
Atom   7C    basis set group =>   1
Atom   8H    basis set group =>   3
Atom   9H    basis set group =>   3
Atom  10H    basis set group =>   3
Atom  11H    basis set group =>   3
Atom  12H    basis set group =>   3
Atom  13H    basis set group =>   3
Atom  14H    basis set group =>   3
Atom  15H    basis set group =>   3
Atom  16H    basis set group =>   3
Atom  17H    basis set group =>   3
Atom  18H    basis set group =>   3
Atom  19H    basis set group =>   3
------------------------------------------------------------------------------
                             ORCA STARTUP CALCULATIONS
                           -- RI-GTO INTEGRALS CHOSEN --
------------------------------------------------------------------------------
------------------------------------------------------------------------------
                   ___                                                        
                  /   \      - P O W E R E D   B Y -                         
                 /     \                                                     
                 |  |  |   _    _      __       _____    __    __             
                 |  |  |  | |  | |    /  \     |  _  \  |  |  /  |          
                  \  \/   | |  | |   /    \    | | | |  |  | /  /          
                 / \  \   | |__| |  /  /\  \   | |_| |  |  |/  /          
                |  |  |   |  __  | /  /__\  \  |    /   |      \           
                |  |  |   | |  | | |   __   |  |    \   |  |\   \          
                \     /   | |  | | |  |  |  |  | |\  \  |  | \   \       
                 \___/    |_|  |_| |__|  |__|  |_| \__\ |__|  \__/        
                                                                              
                      - O R C A' S   B I G   F R I E N D -                    
                                      &                                       
                       - I N T E G R A L  F E E D E R -                       
                                                                              
 v1 FN, 2020, v2 2021, v3 2022-2024                                           
------------------------------------------------------------------------------


----------------------
SHARK INTEGRAL PACKAGE
----------------------

Number of atoms                             ...     20
Number of basis functions                   ...    136
Number of shells                            ...     72
Maximum angular momentum                    ...      2
Integral batch strategy                     ... SHARK/LIBINT Hybrid
RI-J (if used) integral strategy            ... SPLIT-RIJ (Revised 2003 algorithm where possible)
Printlevel                                  ...      1
Contraction scheme used                     ... SEGMENTED contraction
Prescreening option                         ... SCHWARTZ
   Thresh                                   ... 1.000e-09
   Tcut                                     ... 1.000e-10
   Tpresel                                  ... 1.000e-10 
Coulomb Range Separation                    ... NOT USED
Exchange Range Separation                   ... NOT USED
Multipole approximations                    ... NOT USED
Finite Nucleus Model                        ... NOT USED
CABS basis                                  ... NOT available
Auxiliary Coulomb fitting basis             ... AVAILABLE
   # of basis functions in Aux-J            ...    524
   # of shells in Aux-J                     ...    180
   Maximum angular momentum in Aux-J        ...      4
Auxiliary J/K fitting basis                 ... NOT available
Auxiliary Correlation fitting basis         ... NOT available
Auxiliary 'external' fitting basis          ... NOT available

Checking pre-screening integrals            ... done (  0.0 sec) Dimension = 72
Check shell pair data                       ... done (  0.0 sec)
Shell pair information
Shell pair cut-off parameter TPreSel        ...   1.0e-10
Total number of shell pairs                 ...      2628
Shell pairs after pre-screening             ...      2404
Total number of primitive shell pairs       ...     10580
Primitive shell pairs kept                  ...      6678
          la=0 lb=0:   1058 shell pairs
          la=1 lb=0:    726 shell pairs
          la=1 lb=1:    133 shell pairs
          la=2 lb=0:    335 shell pairs
          la=2 lb=1:    121 shell pairs
          la=2 lb=2:     31 shell pairs

Calculating one electron integrals          ... done (  0.0 sec)
Calculating RI/J V-Matrix + Cholesky decomp.... done (  0.1 sec)
Calculating Nuclear repulsion               ... done (  0.0 sec) ENN=    391.276511650983 Eh

Diagonalization of the overlap matrix:
Smallest eigenvalue                        ... 1.521e-03
Time for diagonalization                   ...    0.003 sec
Threshold for overlap eigenvalues          ... 1.000e-07
Number of eigenvalues below threshold      ... 0
Time for construction of square roots      ...    0.014 sec
Total time needed                          ...    0.029 sec

-------------------
DFT GRID GENERATION
-------------------

General Integration Accuracy     IntAcc      ... 4.159
Radial Grid Type                 RadialGrid  ... OptM3 with GC (2021)
Angular Grid (max. ang.)         AngularGrid ... 3 (Lebedev-194)
Angular grid pruning method      GridPruning ... 4 (adaptive)
Weight generation scheme         WeightScheme... mBecke (2022)
Basis function cutoff            BFCut       ... 1.0000e-10
Integration weight cutoff        WCut        ... 1.0000e-14
Partially contracted basis set               ... off
Rotationally invariant grid construction     ... off
Angular grids for H and He will be reduced by one unit

Total number of grid points                  ...    43026
Total number of batches                      ...      685
Average number of points per batch           ...       62
Average number of grid points per atom       ...     2151
Initializing property integral containers    ... done (  0.0 sec)

SHARK setup successfully completed in   0.7 seconds

Maximum memory used throughout the entire STARTUP-calculation: 21.1 MB
-------------------------------------------------------------------------------
                                 ORCA GUESS
                   Start orbitals & Density for SCF / CASSCF
-------------------------------------------------------------------------------

------------
SCF SETTINGS
------------
Hamiltonian:
 Density Functional     Method          .... DFT(GTOs)
 Exchange Functional    Exchange        .... PBE
   PBE kappa parameter   XKappa         ....  0.804000
   PBE mue parameter    XMuePBE         ....  0.219520
 Correlation Functional Correlation     .... PBE
   PBE beta parameter  CBetaPBE         ....  0.066725
 LDA part of GGA corr.  LDAOpt          .... PW91-LDA
 Gradients option       PostSCFGGA      .... off
   NL short-range parameter             ....  6.400000
 RI-approximation to the Coulomb term is turned on
   Number of AuxJ basis functions       .... 524


General Settings:
 Integral files         IntName         .... sp
 Hartree-Fock type      HFTyp           .... RHF
 Total Charge           Charge          ....    0
 Multiplicity           Mult            ....    1
 Number of Electrons    NEL             ....   64
 Basis Dimension        Dim             ....  136
 Nuclear Repulsion      ENuc            ....    391.2765116510 Eh

Convergence Acceleration:
 AO-DIIS                CNVDIIS         .... on
   Start iteration      DIISMaxIt       ....    12
   Startup error        DIISStart       ....  0.200000
   # of expansion vecs  DIISMaxEq       ....     5
   Bias factor          DIISBfac        ....   1.050
   Max. coefficient     DIISMaxC        ....  10.000
 MO-DIIS                CNVKDIIS        .... off
 Trust-Rad. Augm. Hess. CNVTRAH         .... auto
   Auto Start mean grad. ratio tolernc. ....  1.125000
   Auto Start start iteration           ....    50
   Auto Start num. interpolation iter.  ....    10
   Max. Number of Micro iterations      ....    24
   Max. Number of Macro iterations      .... Maxiter - #DIIS iter
   Number of Davidson start vectors     ....     2
   Converg. threshold    (grad. norm)   ....   1.000e-04
   Grad. Scal. Fac. for Micro threshold ....   0.100
   Minimum threshold for Micro iter.    ....   1.000e-02
   NR start threshold (gradient norm)   ....   1.000e-04
   Initial trust radius                 ....   0.400
   Minimum AH scaling param. (alpha)    ....   1.000
   Maximum AH scaling param. (alpha)    .... 1000.000
   Quad. conv. algorithm                .... NR
   White noise on init. David. guess    .... on
   Maximum white noise                  ....   0.010
   Pseudo random numbers                .... off
   Inactive MOs                         .... canonical
   Orbital update algorithm             .... Taylor
   Preconditioner                       .... Diag
   Full preconditioner red. dimension   ....   250
 SOSCF                  CNVSOSCF        .... on
   Start iteration      SOSCFMaxIt      ....   150
   Startup grad/error   SOSCFStart      ....  0.003300
   Hessian update       SOSCFHessUp     .... L-BFGS
 Level Shifting         CNVShift        .... on
   Level shift para.    LevelShift      ....    0.2500
   Turn off err/grad.   ShiftErr        ....    0.0010
 Zerner damping         CNVZerner       .... off
 Static damping         CNVDamp         .... on
   Fraction old density DampFac         ....    0.7000
   Max. Damping (<1)    DampMax         ....    0.9800
   Min. Damping (>=0)   DampMin         ....    0.0000
   Turn off err/grad.   DampErr         ....    0.1000

SCF Procedure:
 Maximum # iterations   MaxIter         ....   125
 SCF integral mode      SCFMode         .... Direct
   Integral package                     .... SHARK and LIBINT hybrid scheme
 Reset frequency        DirectResetFreq ....    20
 Integral Threshold     Thresh          ....  1.000e-09 Eh
 Primitive CutOff       TCut            ....  1.000e-10 Eh

Convergence Tolerance:
 Convergence Check Mode ConvCheckMode   .... Total+1el-Energy
 Convergence forced     ConvForced      .... 0
 Energy Change          TolE            ....  1.000e-05 Eh
 1-El. energy change                    ....  1.000e-02 Eh
 Orbital Gradient       TolG            ....  1.000e-04
 Orbital Rotation angle TolX            ....  1.000e-04
 DIIS Error             TolErr          ....  5.000e-04

------------------------------
INITIAL GUESS: MODEL POTENTIAL
------------------------------
Loading Hartree-Fock densities                     ... done
Calculating cut-offs                               ... done
Initializing the effective Hamiltonian             ... done
Setting up the integral package (SHARK)            ... done
Starting the Coulomb interaction                   ... done (   0.1 sec)
Making the grid                                    ... done (   0.2 sec)
Mapping shells                                     ... done
Starting the XC term evaluation                    ... done (   0.2 sec)
  promolecular density results
     # of electrons  =     63.992116762
     EX              =    -50.541975812
     EC              =     -2.105730354
     EX+EC           =    -52.647706166
Transforming the Hamiltonian                       ... done (   0.0 sec)
Diagonalizing the Hamiltonian                      ... done (   0.0 sec)
Back transforming the eigenvectors                 ... done (   0.0 sec)
Now organizing SCF variables                       ... done
                      ------------------
                      INITIAL GUESS DONE (   0.6 sec)
                      ------------------
             **** ENERGY FILE WAS UPDATED (sp.en.tmp) ****
Finished Guess after   0.7 sec
Maximum memory used throughout the entire GUESS-calculation: 16.1 MB

-------------------------------------------------------------------------------------------
                                      ORCA LEAN-SCF
                              memory conserving SCF solver
-------------------------------------------------------------------------------------------

----------------------------------------D-I-I-S--------------------------------------------
Iteration    Energy (Eh)           Delta-E    RMSDP     MaxDP     DIISErr   Damp  Time(sec)
-------------------------------------------------------------------------------------------
               ***  Starting incremental Fock matrix formation  ***
    1    -385.2858222993543791     0.00e+00  4.78e-03  9.24e-02  2.40e-01  0.700   0.8
    2    -385.4104701573896250    -1.25e-01  2.99e-03  4.79e-02  7.56e-02  0.700   0.8
                               ***Turning on AO-DIIS***
    3    -385.4488638274776235    -3.84e-02  1.23e-03  1.39e-02  2.24e-02  0.700   0.8
    4    -385.4738456204181034    -2.50e-02  1.75e-03  2.30e-02  1.69e-02  0.000   0.8
    5    -385.5318169719473076    -5.80e-02  5.48e-04  6.22e-03  8.77e-03  0.000   0.8
                              *** Initializing SOSCF ***
---------------------------------------S-O-S-C-F--------------------------------------
Iteration    Energy (Eh)           Delta-E    RMSDP     MaxDP     MaxGrad    Time(sec)
--------------------------------------------------------------------------------------
    6    -385.5325557161474421    -7.39e-04  2.04e-04  2.42e-03  3.18e-03     0.8
               *** Restarting incremental Fock matrix formation ***
    7    -385.5326122877214061    -5.66e-05  1.58e-04  2.61e-03  6.60e-04     0.8
    8    -385.5325919695658854     2.03e-05  8.39e-05  1.99e-03  1.97e-03     0.7
    9    -385.5326188903412117    -2.69e-05  6.55e-05  1.16e-03  2.94e-04     0.8
   10    -385.5326155957630476     3.29e-06  3.69e-05  7.17e-04  3.75e-04     0.7
                 **** Energy Check signals convergence ****

               *****************************************************
               *                     SUCCESS                       *
               *           SCF CONVERGED AFTER  10 CYCLES          *
               *****************************************************

             **** ENERGY FILE WAS UPDATED (sp.en.tmp) ****

----------------
TOTAL SCF ENERGY
----------------

Total Energy       :       -385.53261559576305 Eh          -10490.87582 eV

Components:
Nuclear Repulsion  :        391.27651165098331 Eh           10647.17517 eV
Electronic Energy  :       -776.80912724674636 Eh          -21138.05099 eV
One Electron Energy:      -1298.94624329465751 Eh          -35346.12424 eV
Two Electron Energy:        522.13711604791115 Eh           14208.07325 eV

Virial components:
Potential Energy   :       -767.93909045870259 Eh          -20896.68502 eV
Kinetic Energy     :        382.40647486293949 Eh           10405.80920 eV
Virial Ratio       :          2.00817491579855

DFT components:
N(Alpha)           :       31.999806278698 electrons
N(Beta)            :       31.999806278698 electrons
N(Total)           :       63.999612557397 electrons
E(X)               :      -51.601635622612 Eh       
E(C)               :       -2.122409166885 Eh       
E(XC)              :      -53.724044789497 Eh       

---------------
SCF CONVERGENCE
---------------

  Last Energy change         ...   -3.2946e-06  Tolerance :   1.0000e-05
  Last MAX-Density change    ...    7.1720e-04  Tolerance :   1.0000e-03
  Last RMS-Density change    ...    3.6923e-05  Tolerance :   1.0000e-04
  Last DIIS Error            ...    3.1802e-03  Tolerance :   5.0000e-04
  Last Orbital Gradient      ...    3.7480e-04  Tolerance :   1.0000e-04
  Last Orbital Rotation      ...    3.2097e-04  Tolerance :   1.0000e-04


----------------
ORBITAL ENERGIES
----------------

  NO   OCC          E(Eh)            E(eV) 
   0   2.0000     -18.796036      -511.4661 
   1   2.0000     -18.729073      -509.6440 
   2   2.0000     -10.002870      -272.1919 
   3   2.0000      -9.945347      -270.6266 
   4   2.0000      -9.896238      -269.2903 
   5   2.0000      -9.895580      -269.2724 
   6   2.0000      -9.886541      -269.0265 
   7   2.0000      -9.880837      -268.8712 
   8   2.0000      -1.002553       -27.2809 
   9   2.0000      -0.906190       -24.6587 
  10   2.0000      -0.729600       -19.8534 
  11   2.0000      -0.696572       -18.9547 
  12   2.0000      -0.639569       -17.4036 
  13   2.0000      -0.587544       -15.9879 
  14   2.0000      -0.535909       -14.5828 
  15   2.0000      -0.494442       -13.4544 
  16   2.0000      -0.451569       -12.2878 
  17   2.0000      -0.433615       -11.7993 
  18   2.0000      -0.421128       -11.4595 
  19   2.0000      -0.403224       -10.9723 
  20   2.0000      -0.388196       -10.5634 
  21   2.0000      -0.375828       -10.2268 
  22   2.0000      -0.355958        -9.6861 
  23   2.0000      -0.346167        -9.4197 
  24   2.0000      -0.344340        -9.3700 
  25   2.0000      -0.331211        -9.0127 
  26   2.0000      -0.313842        -8.5401 
  27   2.0000      -0.300026        -8.1641 
  28   2.0000      -0.298223        -8.1151 
  29   2.0000      -0.288359        -7.8466 
  30   2.0000      -0.253510        -6.8983 
  31   2.0000      -0.213833        -5.8187 
  32   0.0000      -0.017444        -0.4747 
  33   0.0000       0.038015         1.0344 
  34   0.0000       0.052533         1.4295 
  35   0.0000       0.075296         2.0489 
  36   0.0000       0.076851         2.0912 
  37   0.0000       0.088725         2.4143 
  38   0.0000       0.092348         2.5129 
  39   0.0000       0.094282         2.5655 
  40   0.0000       0.104243         2.8366 
  41   0.0000       0.120959         3.2915 
  42   0.0000       0.123595         3.3632 
*Only the first 10 virtual orbitals were printed.

                    ********************************
                    * MULLIKEN POPULATION ANALYSIS *
                    ********************************

-----------------------
MULLIKEN ATOMIC CHARGES
-----------------------
   0 C :   -0.241728
   1 C :   -0.243119
   2 C :   -0.113861
   3 C :    0.113218
   4 O :   -0.213813
   5 O :   -0.242925
   6 C :   -0.011564
   7 C :   -0.303865
   8 H :    0.099207
   9 H :    0.106998
  10 H :    0.101435
  11 H :    0.097508
  12 H :    0.103330
  13 H :    0.098224
  14 H :    0.093538
  15 H :    0.100572
  16 H :    0.107574
  17 H :    0.111776
  18 H :    0.125292
  19 H :    0.112203
Sum of atomic charges:   -0.0000000

--------------------------------
MULLIKEN REDUCED ORBITAL CHARGES
--------------------------------
  0 C s       :     3.067090  s :     3.067090
      pz      :     1.061040  p :     3.145287
      px      :     1.022140
      py      :     1.062106
      dz2     :     0.006906  d :     0.029352
      dxz     :     0.003857
      dyz     :     0.005874
      dx2y2   :     0.004014
      dxy     :     0.008702

  1 C s       :     3.103685  s :     3.103685
      pz      :     1.047994  p :     3.101994
      px      :     1.030400
      py      :     1.023600
      dz2     :     0.010481  d :     0.037440
      dxz     :     0.004672
      dyz     :     0.005609
      dx2y2   :     0.005984
      dxy     :     0.010693

  2 C s       :     3.006493  s :     3.006493
      pz      :     1.040226  p :     3.074210
      px      :     1.010555
      py      :     1.023430
      dz2     :     0.010155  d :     0.033157
      dxz     :     0.003468
      dyz     :     0.005005
      dx2y2   :     0.006459
      dxy     :     0.008070

  3 C s       :     3.046627  s :     3.046627
      pz      :     0.865993  p :     2.709244
      px      :     0.970894
      py      :     0.872357
      dz2     :     0.023459  d :     0.130911
      dxz     :     0.027055
      dyz     :     0.019613
      dx2y2   :     0.026992
      dxy     :     0.033793

  4 O s       :     3.748754  s :     3.748754
      pz      :     1.364307  p :     4.447591
      px      :     1.706810
      py      :     1.376474
      dz2     :     0.004083  d :     0.017468
      dxz     :     0.002072
      dyz     :     0.005354
      dx2y2   :     0.003228
      dxy     :     0.002731

  5 O s       :     3.730536  s :     3.730536
      pz      :     1.660025  p :     4.496294
      px      :     1.225336
      py      :     1.610934
      dz2     :     0.002359  d :     0.016095
      dxz     :     0.003769
      dyz     :     0.002599
      dx2y2   :     0.003499
      dxy     :     0.003869

  6 C s       :     3.072186  s :     3.072186
      pz      :     1.047255  p :     2.880441
      px      :     0.751916
      py      :     1.081270
      dz2     :     0.011293  d :     0.058937
      dxz     :     0.014781
      dyz     :     0.005647
      dx2y2   :     0.017841
      dxy     :     0.009375

  7 C s       :     3.101098  s :     3.101098
      pz      :     1.051248  p :     3.174848
      px      :     1.059039
      py      :     1.064561
      dz2     :     0.007699  d :     0.027918
      dxz     :     0.004465
      dyz     :     0.004818
      dx2y2   :     0.008885
      dxy     :     0.002052

  8 H s       :     0.900793  s :     0.900793

  9 H s       :     0.893002  s :     0.893002

 10 H s       :     0.898565  s :     0.898565

 11 H s       :     0.902492  s :     0.902492

 12 H s       :     0.896670  s :     0.896670

 13 H s       :     0.901776  s :     0.901776

 14 H s       :     0.906462  s :     0.906462

 15 H s       :     0.899428  s :     0.899428

 16 H s       :     0.892426  s :     0.892426

 17 H s       :     0.888224  s :     0.888224

 18 H s       :     0.874708  s :     0.874708

 19 H s       :     0.887797  s :     0.887797


------------------------
MULLIKEN OVERLAP CHARGES
------------------------
B(  0-C ,  1-C ) :   0.9103 B(  0-C ,  2-C ) :  -0.1152 B(  0-C ,  8-H ) :   0.7556 
B(  0-C ,  9-H ) :   0.7353 B(  0-C , 10-H ) :   0.7575 B(  0-C , 12-H ) :  -0.0511 
B(  1-C ,  2-C ) :   0.8887 B(  1-C ,  3-C ) :  -0.0508 B(  1-C , 11-H ) :   0.7157 
B(  1-C , 12-H ) :   0.7216 B(  2-C ,  3-C ) :   0.6171 B(  2-C ,  4-O ) :  -0.1735 
B(  2-C ,  5-O ) :  -0.2469 B(  2-C , 11-H ) :  -0.0677 B(  2-C , 12-H ) :  -0.0768 
B(  2-C , 13-H ) :   0.6322 B(  2-C , 14-H ) :   0.5882 B(  3-C ,  4-O ) :   1.3430 
B(  3-C ,  5-O ) :   0.7090 B(  4-O ,  5-O ) :  -0.1748 B(  4-O , 16-H ) :   0.0541 
B(  5-O ,  6-C ) :   0.5211 B(  5-O ,  7-C ) :  -0.0765 B(  5-O , 15-H ) :  -0.0556 
B(  5-O , 16-H ) :  -0.0646 B(  6-C ,  7-C ) :   0.9349 B(  6-C , 15-H ) :   0.7369 
B(  6-C , 16-H ) :   0.7094 B(  7-C , 15-H ) :  -0.0582 B(  7-C , 16-H ) :  -0.0597 
B(  7-C , 17-H ) :   0.7114 B(  7-C , 18-H ) :   0.7404 B(  7-C , 19-H ) :   0.7405 
B(  8-H , 10-H ) :  -0.0527 B( 11-H , 12-H ) :  -0.0673 B( 15-H , 16-H ) :  -0.0627 
B( 18-H , 19-H ) :  -0.0531 


                     *******************************
                     * LOEWDIN POPULATION ANALYSIS *
                     *******************************

----------------------
LOEWDIN ATOMIC CHARGES
----------------------
   0 C :   -0.338845
   1 C :   -0.225434
   2 C :   -0.241501
   3 C :    0.037426
   4 O :   -0.174896
   5 O :   -0.069242
   6 C :   -0.113193
   7 C :   -0.356304
   8 H :    0.118384
   9 H :    0.121830
  10 H :    0.119403
  11 H :    0.118193
  12 H :    0.121926
  13 H :    0.133509
  14 H :    0.129543
  15 H :    0.116431
  16 H :    0.119384
  17 H :    0.129969
  18 H :    0.130026
  19 H :    0.123392

-------------------------------
LOEWDIN REDUCED ORBITAL CHARGES
-------------------------------
  0 C s       :     2.945087  s :     2.945087
      pz      :     1.123284  p :     3.322738
      px      :     1.078441
      py      :     1.121013
      dz2     :     0.017145  d :     0.071019
      dxz     :     0.008401
      dyz     :     0.014277
      dx2y2   :     0.010819
      dxy     :     0.020377

  1 C s       :     2.908506  s :     2.908506
      pz      :     1.087900  p :     3.227951
      px      :     1.067851
      py      :     1.072200
      dz2     :     0.024329  d :     0.088977
      dxz     :     0.010124
      dyz     :     0.014773
      dx2y2   :     0.015118
      dxy     :     0.024634

  2 C s       :     2.918810  s :     2.918810
      pz      :     1.092662  p :     3.239380
      px      :     1.054967
      py      :     1.091751
      dz2     :     0.024083  d :     0.083311
      dxz     :     0.008837
      dyz     :     0.013320
      dx2y2   :     0.016545
      dxy     :     0.020527

  3 C s       :     2.847024  s :     2.847024
      pz      :     0.905580  p :     2.817822
      px      :     0.990645
      py      :     0.921597
      dz2     :     0.046807  d :     0.297728
      dxz     :     0.061740
      dyz     :     0.049831
      dx2y2   :     0.060878
      dxy     :     0.078473

  4 O s       :     3.551845  s :     3.551845
      pz      :     1.424176  p :     4.592222
      px      :     1.719242
      py      :     1.448804
      dz2     :     0.005294  d :     0.030829
      dxz     :     0.003657
      dyz     :     0.011644
      dx2y2   :     0.005485
      dxy     :     0.004749

  5 O s       :     3.449466  s :     3.449466
      pz      :     1.661412  p :     4.587008
      px      :     1.288574
      py      :     1.637022
      dz2     :     0.003932  d :     0.032768
      dxz     :     0.007768
      dyz     :     0.004322
      dx2y2   :     0.007745
      dxy     :     0.009000

  6 C s       :     2.924479  s :     2.924479
      pz      :     1.099187  p :     3.057254
      px      :     0.827212
      py      :     1.130856
      dz2     :     0.025154  d :     0.131460
      dxz     :     0.032635
      dyz     :     0.014563
      dx2y2   :     0.039314
      dxy     :     0.019794

  7 C s       :     2.952020  s :     2.952020
      pz      :     1.100192  p :     3.335552
      px      :     1.121175
      py      :     1.114185
      dz2     :     0.017957  d :     0.068732
      dxz     :     0.011222
      dyz     :     0.013127
      dx2y2   :     0.021431
      dxy     :     0.004994

  8 H s       :     0.881616  s :     0.881616

  9 H s       :     0.878170  s :     0.878170

 10 H s       :     0.880597  s :     0.880597

 11 H s       :     0.881807  s :     0.881807

 12 H s       :     0.878074  s :     0.878074

 13 H s       :     0.866491  s :     0.866491

 14 H s       :     0.870457  s :     0.870457

 15 H s       :     0.883569  s :     0.883569

 16 H s       :     0.880616  s :     0.880616

 17 H s       :     0.870031  s :     0.870031

 18 H s       :     0.869974  s :     0.869974

 19 H s       :     0.876608  s :     0.876608


---------------------------------
LOEWDIN BOND ORDERS (THRESH 0.050000)
---------------------------------
B(  0-C ,  1-C ) :   1.1309 B(  0-C ,  2-C ) :   0.0562 B(  0-C ,  8-H ) :   0.9406 
B(  0-C ,  9-H ) :   0.9372 B(  0-C , 10-H ) :   0.9404 B(  1-C ,  2-C ) :   1.0704 
B(  1-C ,  3-C ) :   0.0707 B(  1-C , 11-H ) :   0.9075 B(  1-C , 12-H ) :   0.9066 
B(  2-C ,  3-C ) :   1.0598 B(  2-C ,  4-O ) :   0.0944 B(  2-C ,  5-O ) :   0.0719 
B(  2-C , 13-H ) :   0.8936 B(  2-C , 14-H ) :   0.8934 B(  3-C ,  4-O ) :   2.2005 
B(  3-C ,  5-O ) :   1.3974 B(  3-C ,  6-C ) :   0.0753 B(  4-O ,  5-O ) :   0.2074 
B(  5-O ,  6-C ) :   1.0754 B(  5-O ,  7-C ) :   0.0539 B(  6-C ,  7-C ) :   1.1497 
B(  6-C , 15-H ) :   0.9206 B(  6-C , 16-H ) :   0.9066 B(  7-C , 17-H ) :   0.9303 
B(  7-C , 18-H ) :   0.9353 B(  7-C , 19-H ) :   0.9388 

------------------------------------------
LOEWDIN REDUCED ORBITAL POPULATIONS PER MO
-------------------------------------------
THRESHOLD FOR PRINTING IS 0.1%%
                      0         1         2         3         4         5   
                 -18.79604 -18.72907 -10.00287  -9.94535  -9.89624  -9.89558
                   2.00000   2.00000   2.00000   2.00000   2.00000   2.00000
                  --------  --------  --------  --------  --------  --------
 1 C  s               0.0       0.0       0.0       0.0      99.4       0.2
 2 C  s               0.0       0.0       0.0       0.0       0.3      99.4
 3 C  s               0.0       0.0      99.3       0.0       0.0       0.0
 3 C  px              0.0       0.0       0.0       0.0       0.0       0.1
 4 O  s               0.0      99.9       0.0       0.0       0.0       0.0
 4 O  pz              0.0       0.0       0.1       0.0       0.0       0.0
 4 O  py              0.0       0.0       0.2       0.0       0.0       0.0
 5 O  s              99.9       0.0       0.0       0.0       0.0       0.0
 6 C  s               0.0       0.0       0.0      99.7       0.0       0.0

                      6         7         8         9        10        11   
                  -9.88654  -9.88084  -1.00255  -0.90619  -0.72960  -0.69657
                   2.00000   2.00000   2.00000   2.00000   2.00000   2.00000
                  --------  --------  --------  --------  --------  --------
 0 C  s               0.0      99.7       0.0       0.0       7.7       6.3
 0 C  px              0.0       0.0       0.0       0.0       1.9       0.7
 0 C  py              0.0       0.0       0.0       0.0       0.2       0.1
 1 C  s               0.0       0.0       0.1       0.0      18.8       7.4
 1 C  pz              0.0       0.0       0.0       0.0       1.0       0.1
 1 C  px              0.0       0.1       0.1       0.0       0.0       0.6
 1 C  py              0.0       0.0       0.0       0.0       0.6       0.0
 2 C  s               0.0       0.0       1.0       0.3      19.4       1.0
 2 C  pz              0.0       0.0       0.1       0.2       0.6       0.4
 2 C  px              0.0       0.0       1.8       0.2       0.0       1.5
 2 C  py              0.0       0.0       0.0       0.2       1.0       0.4
 3 C  s               0.0       0.0      18.4       5.4       3.1       1.2
 3 C  pz              0.0       0.0       0.1       9.8       1.3       1.1
 3 C  px              0.0       0.0       4.8       0.2       5.3       0.5
 3 C  py              0.0       0.0       0.4      14.1       2.2       0.9
 3 C  dxz             0.0       0.0       0.1       0.4       0.0       0.1
 3 C  dyz             0.0       0.0       0.8       0.5       0.0       0.0
 3 C  dx2y2           0.0       0.0       0.0       0.3       0.1       0.0
 3 C  dxy             0.0       0.0       0.2       0.7       0.0       0.1
 4 O  s               0.0       0.0      10.7      42.3       1.3       0.2
 4 O  pz              0.0       0.0       1.1       1.8       0.1       0.0
 4 O  px              0.0       0.0       0.0       0.5       0.1       0.0
 4 O  py              0.0       0.0       1.5       2.3       0.1       0.0
 5 O  s               0.0       0.0      41.8      14.8       0.0       1.2
 5 O  pz              0.0       0.0       1.4       0.1       0.0       0.0
 5 O  px              0.0       0.0       0.0       0.4       5.2       8.8
 5 O  py              0.0       0.0       1.8       0.1       0.1       0.7
 6 C  s               0.0       0.0       4.8       2.2       4.9      18.2
 6 C  pz              0.1       0.0       0.1       0.1       0.1       1.2
 6 C  px              0.0       0.0       5.5       1.4       0.1       0.8
 6 C  py              0.0       0.0       0.0       0.1       0.1       0.8
 6 C  dx2y2           0.0       0.0       0.3       0.1       0.0       0.0
 7 C  s              99.7       0.0       0.3       0.2       2.5      18.3
 7 C  pz              0.0       0.0       0.3       0.2       0.4       1.4
 7 C  px              0.0       0.0       0.2       0.1       0.0       0.1
 7 C  py              0.0       0.0       0.1       0.0       0.1       0.5
 8 H  s               0.0       0.1       0.0       0.0       1.5       1.2
 9 H  s               0.0       0.1       0.0       0.0       1.3       1.2
10 H  s               0.0       0.1       0.0       0.0       1.4       1.2
11 H  s               0.0       0.0       0.0       0.0       3.5       1.3
12 H  s               0.0       0.0       0.0       0.0       3.3       1.4
13 H  s               0.0       0.0       0.1       0.1       3.3       0.3
14 H  s               0.0       0.0       0.2       0.0       3.8       0.1
15 H  s               0.0       0.0       0.5       0.3       1.0       4.0
16 H  s               0.0       0.0       0.8       0.1       0.9       3.4
17 H  s               0.1       0.0       0.0       0.0       0.4       3.7
18 H  s               0.1       0.0       0.1       0.0       0.4       3.4
19 H  s               0.1       0.0       0.1       0.0       0.4       3.6

                     12        13        14        15        16        17   
                  -0.63957  -0.58754  -0.53591  -0.49444  -0.45157  -0.43362
                   2.00000   2.00000   2.00000   2.00000   2.00000   2.00000
                  --------  --------  --------  --------  --------  --------
 0 C  s              18.7       5.1       8.5       0.0       0.3       0.1
 0 C  pz              0.1       0.0       1.1       0.2       1.2       2.3
 0 C  px              0.0       0.6       7.4       0.1       0.9       2.2
 0 C  py              0.0       0.1       0.1       0.1       1.4       1.6
 0 C  dx2y2           0.0       0.0       0.1       0.0       0.0       0.0
 1 C  s               1.9       0.6      15.3       0.4       0.0       0.1
 1 C  pz              0.4       0.1       3.2       0.6       4.1       6.3
 1 C  px              6.2       1.6       4.2       0.2       0.7       0.3
 1 C  py              2.7       1.2       0.6       0.7       1.0       7.0
 1 C  dx2y2           0.1       0.1       0.0       0.0       0.0       0.0
 2 C  s              11.5       4.4       3.3       1.0       1.5       0.0
 2 C  pz              0.2       0.1       4.5       0.2       3.7      10.3
 2 C  px              1.8       0.9       0.3       2.3      14.2       0.0
 2 C  py              0.6       0.0       5.2       0.4       0.6       7.1
 2 C  dyz             0.0       0.0       0.2       0.0       0.0       0.0
 2 C  dx2y2           0.0       0.1       0.0       0.0       0.2       0.0
 3 C  s               2.7       1.3       0.7       2.1       2.1       1.2
 3 C  pz              0.9       0.7       1.5       1.0       0.1       2.8
 3 C  px              6.3       2.6       2.5       0.8      10.6       0.8
 3 C  py              0.8       1.6       0.4       0.9       0.4       0.2
 3 C  dyz             0.0       0.0       0.0       0.0       0.0       0.2
 3 C  dx2y2           0.1       0.0       0.0       0.0       0.1       0.2
 3 C  dxy             0.0       0.1       0.0       0.0       0.0       0.1
 4 O  s               0.9       0.1       0.2       1.1       0.2       5.1
 4 O  pz              0.1       0.1       0.2       0.6       0.0       0.6
 4 O  px              0.3       0.2       0.3       0.4       5.8       1.2
 4 O  py              0.1       0.2       0.0       0.5       0.1       5.4
 5 O  s               1.1       0.0       0.2       4.2       0.5       0.6
 5 O  pz              0.1       1.3       0.5       0.9       3.0       8.2
 5 O  px              2.3      17.0       0.0       7.3       0.5       2.0
 5 O  py              0.0       1.1       0.1       9.2       6.9       0.2
 6 C  s               0.5       5.5       1.3       7.4       0.2       0.1
 6 C  pz              1.8       7.1       0.5       0.1       5.7       4.2
 6 C  px              1.9       1.3       0.4      12.5       1.7       2.5
 6 C  py              0.4       0.7       0.1       9.8       8.7       0.7
 6 C  dxz             0.0       0.0       0.0       0.1       0.0       0.0
 6 C  dyz             0.0       0.1       0.0       0.0       0.0       0.0
 6 C  dx2y2           0.1       0.1       0.0       0.4       0.0       0.0
 7 C  s               9.0      14.2       0.3       1.5       0.0       0.0
 7 C  pz              0.0       2.1       0.4       2.3       2.5       0.1
 7 C  px              0.0       0.3       0.0       0.8       0.3       2.8
 7 C  py              0.0       0.5       0.2       5.0       1.9       1.2
 7 C  dyz             0.0       0.0       0.0       0.1       0.0       0.0
 8 H  s               4.3       1.5       4.7       0.0       0.0       0.8
 9 H  s               4.8       1.8       3.3       0.0       1.7       0.2
10 H  s               4.3       1.4       4.7       0.1       0.0       1.9
11 H  s               0.4       0.1       8.0       0.5       0.4       3.1
12 H  s               0.4       0.2       7.6       0.3       0.7       2.7
13 H  s               2.4       1.9       2.6       1.7       2.3       1.9
14 H  s               2.7       0.9       2.4       0.6       3.7       6.3
15 H  s               0.1       3.0       1.0       4.0       5.2       2.7
16 H  s               0.1       1.3       0.6      12.6       2.3       0.2
17 H  s               2.5       5.1       0.1       0.1       0.0       1.0
18 H  s               2.1       4.9       0.3       1.2       1.5       0.5
19 H  s               2.1       4.3       0.2       3.2       0.5       0.3

                     18        19        20        21        22        23   
                  -0.42113  -0.40322  -0.38820  -0.37583  -0.35596  -0.34617
                   2.00000   2.00000   2.00000   2.00000   2.00000   2.00000
                  --------  --------  --------  --------  --------  --------
 0 C  s               0.1       0.0       0.0       0.0       0.0       0.0
 0 C  pz              4.2       0.2       3.8      13.6       0.1      13.2
 0 C  px              0.3       0.3       2.0       0.7       2.3       7.7
 0 C  py              2.7      11.9       0.2       1.7       6.2       0.2
 0 C  dyz             0.0       0.0       0.0       0.1       0.0       0.2
 1 C  s               0.4       0.0       0.1       0.0       0.0       0.2
 1 C  pz              6.3       0.2       2.9       4.3       0.0       0.2
 1 C  px              3.6       1.2       0.2       2.1       0.7       1.9
 1 C  py              1.9      11.4       0.1       2.5       1.2       0.3
 1 C  dxz             0.0       0.0       0.0       0.0       0.0       0.2
 2 C  s               0.0       0.0       0.1       0.2       0.0       0.5
 2 C  pz              0.1       1.2       0.0       9.7       0.0       5.4
 2 C  px              2.0       4.8       1.9       0.4       3.0       0.2
 2 C  py              5.5       1.2       0.1       2.8       4.5       8.0
 2 C  dz2             0.0       0.0       0.0       0.0       0.0       0.4
 3 C  s               0.1       0.6       2.0       0.0       0.1       0.0
 3 C  pz              6.5       2.1       0.9       1.5       1.4       3.9
 3 C  px              0.5       2.2       3.4       1.3       0.2       0.6
 3 C  py              5.7       4.7       2.0       0.3       0.0       1.7
 3 C  dxz             0.2       0.0       0.0       0.1       0.0       0.2
 3 C  dx2y2           0.0       0.1       0.0       0.0       0.0       0.0
 3 C  dxy             0.0       0.1       0.0       0.0       0.2       0.1
 4 O  s               0.0       2.6       9.4       0.2       0.2       0.5
 4 O  pz              2.3       6.1      14.7       0.2       0.0       0.1
 4 O  px              0.0       1.4       0.3       1.3       0.5       0.4
 4 O  py              2.3       0.2      14.3       0.8       1.3       8.9
 4 O  dyz             0.0       0.0       0.2       0.0       0.0       0.0
 5 O  s               0.6       0.2       1.2       0.5       1.2       0.2
 5 O  pz             13.1       1.4       1.9       3.3       1.1       0.8
 5 O  px              0.0       6.9       0.8       0.7       0.0       2.3
 5 O  py              6.1       3.1       4.4       0.0       3.0       0.0
 6 C  s               0.5       0.1       0.0       0.2       0.1       0.1
 6 C  pz              5.3       0.1       2.2       2.7       2.1       2.2
 6 C  px              0.5       5.4       0.1       0.1       0.4       0.5
 6 C  py              1.0       4.3       3.3       5.0       1.1       0.4
 6 C  dxz             0.1       0.1       0.0       0.1       0.1       0.0
 6 C  dx2y2           0.0       0.0       0.0       0.0       0.2       0.1
 6 C  dxy             0.1       0.0       0.1       0.0       0.0       0.0
 7 C  s               0.4       0.2       0.0       0.0       0.0       0.0
 7 C  pz              2.0       6.6       3.1      10.0       1.5       1.2
 7 C  px              6.7       0.7       0.1       7.3      21.4       6.7
 7 C  py              1.8       0.1       8.8       0.8       9.3       0.6
 7 C  dx2y2           0.0       0.0       0.0       0.2       0.4       0.1
 8 H  s               3.0       0.3       0.8       4.6       0.1       5.9
 9 H  s               0.0       2.7       2.0       3.9       1.0       4.8
10 H  s               0.3       3.5       0.3       0.8       4.3       2.7
11 H  s               1.2       4.3       0.0       0.1       0.1       0.0
12 H  s               3.9       0.1       1.0       0.8       0.2       0.1
13 H  s               2.6       0.2       0.0       1.7       4.5       2.9
14 H  s               0.5       0.2       0.1       3.4       0.2       8.1
15 H  s               0.6       2.8       1.5       0.0       0.6       0.1
16 H  s               0.0       0.5       2.2       0.7       1.0       0.0
17 H  s               4.1       0.0       0.0       6.0      12.0       4.2
18 H  s               0.0       3.1       3.0       1.4       2.9       0.2
19 H  s               0.5       0.0       3.9       1.4       8.8       0.0

                     24        25        26        27        28        29   
                  -0.34434  -0.33121  -0.31384  -0.30003  -0.29822  -0.28836
                   2.00000   2.00000   2.00000   2.00000   2.00000   2.00000
                  --------  --------  --------  --------  --------  --------
 0 C  s               0.0       0.0       0.4       0.0       0.0       0.1
 0 C  pz              0.4       1.4       5.6       0.1       8.7       0.1
 0 C  px              1.8       5.6      14.7       0.2       2.4       1.4
 0 C  py             15.2       1.5       0.5      11.0       0.1       1.2
 0 C  dz2             0.1       0.0       0.1       0.1       0.3       0.0
 0 C  dxz             0.0       0.0       0.0       0.0       0.2       0.0
 0 C  dyz             0.0       0.0       0.0       0.0       0.2       0.0
 0 C  dxy             0.1       0.1       0.1       0.6       0.0       0.0
 1 C  s               0.2       0.0       0.1       0.1       0.1       0.0
 1 C  pz              0.1       0.3       6.7       0.2      17.0       0.1
 1 C  px              4.1       5.3      14.7       0.5       3.6       1.1
 1 C  py              0.3       0.0       0.0      19.7       0.5       1.1
 1 C  dz2             0.0       0.0       0.2       0.2       0.5       0.0
 1 C  dxz             0.0       0.0       0.0       0.0       0.1       0.0
 1 C  dyz             0.0       0.0       0.0       0.0       0.3       0.0
 1 C  dx2y2           0.2       0.0       0.2       0.0       0.0       0.1
 1 C  dxy             0.0       0.1       0.2       0.7       0.0       0.0
 2 C  s               0.6       0.0       0.0       0.4       0.2       0.0
 2 C  pz              3.6       0.1       0.9       2.2      10.2       0.2
 2 C  px              1.6       2.1       2.7       0.1       2.1       4.1
 2 C  py              1.8       0.5       0.6      11.5       0.2       0.6
 2 C  dz2             0.0       0.0       0.1       0.1       0.3       0.0
 2 C  dyz             0.0       0.0       0.0       0.0       0.1       0.0
 2 C  dx2y2           0.0       0.0       0.1       0.0       0.1       0.1
 2 C  dxy             0.2       0.0       0.2       0.2       0.0       0.0
 3 C  s               0.4       0.0       0.2       0.0       0.0       0.8
 3 C  pz              1.8       3.5       0.2       1.0       0.7       1.9
 3 C  px              0.4       0.4       4.0       0.1       0.4       0.5
 3 C  py              3.3       1.6       0.7       0.4       0.4       2.6
 3 C  dz2             0.0       0.2       0.0       0.0       0.2       0.1
 3 C  dxz             0.0       0.0       0.0       0.0       0.1       0.0
 3 C  dyz             0.0       0.1       0.0       0.0       0.0       0.3
 3 C  dx2y2           0.3       0.0       0.0       0.0       0.0       0.6
 3 C  dxy             0.0       0.0       0.0       0.3       0.0       0.0
 4 O  s               1.2       0.4       0.2       0.0       0.0       1.0
 4 O  pz              8.0       1.5       2.4       2.1       2.6       4.8
 4 O  px              2.4       0.1       1.7       0.6       0.4       0.5
 4 O  py              0.5       8.7       0.2       0.8       2.7       3.4
 5 O  s               0.3       0.1       0.0       0.1       0.0       3.5
 5 O  pz              2.3       0.4       0.4       1.3       0.1      12.7
 5 O  px              0.1       2.7       0.5       0.3       0.1       5.5
 5 O  py              3.3       1.7       0.0       2.2       0.5      14.4
 6 C  s               0.0       0.1       0.0       0.0       0.0       0.2
 6 C  pz              2.9       9.0       0.4       0.3       0.0       4.0
 6 C  px              0.1       2.4       1.0       0.1       0.2       1.7
 6 C  py              2.6       0.0       4.8       2.9       1.4       6.7
 6 C  dz2             0.1       0.2       0.2       0.1       0.1       0.1
 6 C  dxz             0.1       0.3       0.0       0.0       0.0       0.1
 6 C  dyz             0.0       0.1       0.0       0.0       0.0       0.0
 6 C  dx2y2           0.0       0.0       0.0       0.0       0.0       0.5
 6 C  dxy             0.0       0.0       0.0       0.1       0.0       0.2
 7 C  s               0.0       0.1       0.0       0.1       0.0       0.0
 7 C  pz              0.0      13.4       0.5       0.4       0.0       1.6
 7 C  px              0.5       5.2       1.1       0.2       0.3       0.6
 7 C  py             13.7       0.6       5.0       1.9       1.1       1.4
 7 C  dz2             0.1       0.2       0.2       0.0       0.0       0.1
 7 C  dxz             0.0       0.3       0.0       0.0       0.0       0.0
 7 C  dyz             0.0       0.1       0.0       0.0       0.0       0.0
 7 C  dx2y2           0.0       0.0       0.0       0.0       0.0       0.2
 8 H  s               2.1       0.5       4.4       0.6       7.6       0.0
 9 H  s               4.6       0.6       0.0       4.7       3.7       1.2
10 H  s               3.1       3.0       1.1       7.7       1.8       0.1
11 H  s               0.1       0.9       2.6      13.3       3.8       0.0
12 H  s               0.1       0.4       5.3       1.2      13.7       0.0
13 H  s               4.1       1.0       1.9       6.0       1.3       0.2
14 H  s               1.5       0.0       0.7       0.1       6.7       0.1
15 H  s               0.3       8.3       2.5       0.0       0.4       4.0
16 H  s               1.0       0.0       3.1       1.9       0.9       8.6
17 H  s               0.1       1.9       0.3       0.1       0.1       0.9
18 H  s               1.1      12.4       2.9       0.1       0.4       1.3
19 H  s               6.4       0.4       2.9       0.9       0.5       3.0

                     30        31        32        33        34        35   
                  -0.25351  -0.21383  -0.01744   0.03801   0.05253   0.07530
                   2.00000   2.00000   0.00000   0.00000   0.00000   0.00000
                  --------  --------  --------  --------  --------  --------
 0 C  s               0.0       0.1       0.0       6.6       8.6       0.1
 0 C  pz              0.0       0.0       0.1       0.2       0.1       1.3
 0 C  px              0.0       0.6       0.9       1.9       1.0       0.0
 0 C  py              0.0       0.1       0.0       0.2       0.0       1.3
 0 C  dxz             0.0       0.0       0.0       0.1       0.0       0.0
 0 C  dx2y2           0.0       0.0       0.0       0.2       0.0       0.0
 1 C  s               0.0       0.0       1.9       6.4       0.5       3.6
 1 C  pz              0.1       0.0       1.3       1.3       0.4       0.5
 1 C  px              0.1       0.3       0.5       0.8       0.3       0.8
 1 C  py              0.4       0.2       1.4       1.0       0.1       0.2
 1 C  dxy             0.0       0.0       0.1       0.0       0.0       0.1
 2 C  s               0.0       0.6       0.1       3.1       0.8       4.3
 2 C  pz              0.0       0.8       0.3       1.1       0.3       1.3
 2 C  px              0.1       4.5       0.3       0.1       0.4       1.2
 2 C  py              0.1       1.7       0.4       0.3       0.7       0.3
 2 C  dxz             0.0       0.0       0.8       0.0       0.0       0.0
 2 C  dyz             0.0       0.0       0.3       0.2       0.0       0.0
 2 C  dx2y2           0.0       0.0       0.1       0.1       0.0       0.1
 2 C  dxy             0.0       0.0       0.8       0.0       0.0       0.1
 3 C  s               0.0       0.4       0.0       0.5       0.6       0.2
 3 C  pz              0.5       0.3      27.0       0.4       1.1       0.2
 3 C  px              0.0       0.9       0.2       0.6       0.0       0.4
 3 C  py              0.2       0.3      19.0       0.3       0.1       0.2
 3 C  dz2             1.6       0.0       0.5       0.0       0.0       0.0
 3 C  dxz             0.2       1.6       0.3       0.0       0.0       0.0
 3 C  dyz             0.1       0.3       0.0       0.2       0.1       0.0
 3 C  dx2y2           0.5       0.7       0.1       0.0       0.0       0.0
 3 C  dxy             0.0       1.9       0.3       0.0       0.0       0.0
 4 O  s               0.0       0.0       0.0       0.5       0.1       0.0
 4 O  pz             21.5       0.3      15.0       0.1       0.2       0.3
 4 O  px              1.2      66.4       0.3       0.0       0.4       0.2
 4 O  py             12.5       5.5      10.3       0.0       0.5       0.2
 4 O  dz2             0.0       0.0       0.4       0.0       0.0       0.0
 4 O  dx2y2           0.0       0.0       0.1       0.0       0.0       0.0
 5 O  s               0.0       0.3       0.0       0.7       0.1       1.2
 5 O  pz             24.5       4.1       5.6       0.0       0.3       0.0
 5 O  px              0.2       0.5       0.1       0.2       0.2       1.0
 5 O  py             19.7       3.2       4.1       0.1       0.5       0.2
 5 O  dz2             0.0       0.0       0.1       0.0       0.1       0.0
 5 O  dxz             0.0       0.0       0.2       0.0       0.0       0.0
 5 O  dxy             0.0       0.0       0.1       0.0       0.0       0.0
 6 C  s               0.0       0.1       0.0       1.5       6.1       2.3
 6 C  pz              2.7       0.1       0.1       0.3       1.5       1.2
 6 C  px              0.0       0.7       0.1       1.5       0.4       8.3
 6 C  py              1.0       0.3       0.1       0.2       0.1       0.0
 6 C  dz2             0.1       0.0       0.1       0.0       0.0       0.4
 6 C  dxz             0.4       0.0       0.2       0.0       0.0       0.3
 6 C  dyz             0.2       0.0       0.1       0.1       0.1       0.0
 6 C  dx2y2           0.0       0.0       0.0       0.0       0.0       0.5
 6 C  dxy             0.3       0.0       0.1       0.0       0.0       0.0
 7 C  s               0.5       0.0       0.7       5.1       9.1       2.2
 7 C  pz              4.9       0.1       0.3       0.7       1.3       0.3
 7 C  px              0.6       0.1       0.0       0.2       0.8       1.7
 7 C  py              1.0       0.0       0.1       0.7       1.2       0.1
 7 C  dz2             0.0       0.0       0.0       0.1       0.1       0.2
 7 C  dxz             0.0       0.0       0.0       0.0       0.0       0.2
 7 C  dyz             0.0       0.0       0.0       0.1       0.1       0.0
 7 C  dx2y2           0.0       0.0       0.0       0.0       0.0       0.2
 8 H  s               0.1       0.0       0.1       6.0       5.4       0.7
 9 H  s               0.0       0.3       0.1       5.6       4.7       4.7
10 H  s               0.1       0.0       0.1       4.7       8.5       1.0
11 H  s               0.3       0.0       0.1      11.0       0.0       6.5
12 H  s               0.2       0.2       0.1       6.8       1.2       5.1
13 H  s               0.1       0.2       1.4       3.4       3.7       7.4
14 H  s               0.0       1.2       1.7       5.7       0.7       8.1
15 H  s               1.2       0.1       0.1       3.4      10.1      14.7
16 H  s               1.5       0.4       0.3       1.7       3.4       2.1
17 H  s               0.7       0.1       0.3       5.1      10.6       1.0
18 H  s               0.2       0.1       0.2       3.1       4.0       6.4
19 H  s               0.1       0.0       0.1       5.7       8.7       4.2

                     36        37        38        39        40        41   
                   0.07685   0.08873   0.09235   0.09428   0.10424   0.12096
                   0.00000   0.00000   0.00000   0.00000   0.00000   0.00000
                  --------  --------  --------  --------  --------  --------
 0 C  s               0.4       7.1       3.5       0.1       1.4       0.3
 0 C  pz              3.0       1.8       1.7       0.0       0.4       0.2
 0 C  px              0.6       0.5       0.5       0.1       0.1       0.1
 0 C  py              2.7       0.4       1.0       3.2       0.1       0.0
 0 C  dz2             0.1       0.0       0.0       0.1       0.0       0.0
 0 C  dxz             0.1       0.1       0.0       0.0       0.2       0.1
 0 C  dx2y2           0.0       0.0       0.1       0.0       0.0       0.0
 0 C  dxy             0.1       0.0       0.2       0.1       0.0       0.1
 1 C  s               0.1       0.0       3.0       0.0       1.8       1.3
 1 C  pz              3.4       0.3       0.2       0.1       3.2       3.5
 1 C  px              1.0       0.8       0.5       0.2       0.1       0.2
 1 C  py              3.0       1.9       2.3       0.0       0.1       0.7
 1 C  dz2             0.6       0.4       0.0       0.0       0.0       0.0
 1 C  dxz             0.0       0.0       0.1       0.1       0.1       0.0
 1 C  dyz             0.1       0.4       0.0       0.1       0.2       0.1
 1 C  dx2y2           0.1       0.3       0.1       0.0       0.0       0.0
 1 C  dxy             0.2       0.0       0.2       0.1       0.0       0.0
 2 C  s               0.1       7.8       0.2       0.0       0.2       0.0
 2 C  pz              3.8       1.4       0.8       0.2       0.3       1.4
 2 C  px              0.3       1.8       0.6       2.6       0.2       0.4
 2 C  py              4.1       0.4       0.0       1.3       0.6       1.4
 2 C  dz2             0.5       0.1       0.1       0.0       0.0       0.0
 2 C  dxz             0.0       0.1       0.0       0.1       0.0       0.0
 2 C  dyz             0.0       0.0       0.0       0.0       0.0       0.1
 2 C  dx2y2           0.0       0.2       0.2       0.2       0.1       0.3
 2 C  dxy             0.1       0.0       0.0       0.1       0.1       0.0
 3 C  s               0.6       1.0       0.8       1.8       0.4       1.1
 3 C  pz              0.2       0.1       0.5       0.1       0.4       0.4
 3 C  px              0.1       0.8       0.3       0.1       0.0       0.1
 3 C  py              0.2       0.2       0.6       0.2       1.4       0.9
 3 C  dz2             0.1       0.0       0.2       0.1       0.1       0.1
 3 C  dxz             0.0       0.0       0.1       0.2       0.1       0.0
 3 C  dyz             0.0       0.3       0.0       0.3       0.2       0.0
 3 C  dx2y2           0.2       0.0       0.5       0.0       0.2       0.2
 3 C  dxy             0.1       0.0       0.1       0.1       0.1       0.1
 4 O  s               0.3       0.3       0.0       0.4       0.4       0.1
 4 O  pz              0.1       0.1       0.0       0.0       0.0       0.1
 4 O  px              0.1       0.1       0.2       0.2       0.1       1.1
 5 O  s               0.2       0.2       6.2       0.2       1.2       1.3
 5 O  pz              0.3       0.1       0.5       0.0       0.8       0.1
 5 O  px              0.0       0.1       3.7       0.1       1.6       0.0
 5 O  py              0.1       0.1       0.3       0.0       0.0       0.1
 5 O  dz2             0.0       0.0       0.1       0.0       0.1       0.1
 5 O  dxz             0.0       0.0       0.0       0.0       0.0       0.1
 5 O  dx2y2           0.0       0.0       0.3       0.0       0.3       0.0
 5 O  dxy             0.0       0.0       0.0       0.1       0.0       0.1
 6 C  s               0.1       2.7       2.4       1.7       6.7       0.7
 6 C  pz              0.3       2.1       1.0       3.0       1.3       1.4
 6 C  px              0.4       1.4      17.6       0.4       1.1       2.2
 6 C  py              1.1       0.5       0.7       6.0       0.2       4.0
 6 C  dz2             0.0       0.2       1.2       0.2       0.0       0.0
 6 C  dxz             0.0       0.0       0.2       0.0       0.2       0.4
 6 C  dyz             0.0       0.0       0.1       0.3       0.0       0.1
 6 C  dx2y2           0.2       0.0       1.5       0.7       0.4       0.4
 7 C  s               0.3       0.9       2.2       1.5       4.9       0.0
 7 C  pz              1.0       0.6       0.4       2.2       0.4       0.0
 7 C  px              0.1       1.2       0.7       0.9       7.1       7.0
 7 C  py              0.9       0.3       0.4       5.3       0.1       4.7
 7 C  dz2             0.0       0.3       0.2       0.1       0.0       0.1
 7 C  dxz             0.0       0.0       0.5       0.0       0.3       0.0
 7 C  dyz             0.0       0.0       0.0       0.2       0.1       0.5
 7 C  dx2y2           0.1       0.0       0.2       0.8       0.3       0.3
 8 H  s              11.4       0.3       7.1       1.1       2.5       0.0
 9 H  s               0.1      14.2       0.6       3.5       0.1       0.6
10 H  s               4.8       3.1       7.7       3.9       1.5       0.8
11 H  s               8.3       0.8      11.2       0.2       0.1       0.3
12 H  s              12.5       0.1       1.5       0.2      10.6      12.5
13 H  s              11.0       6.3       0.1       6.0       0.4       2.5
14 H  s              10.4      12.3       1.0       0.9       2.2       3.1
15 H  s               0.6      15.9       0.4       3.2      10.7       1.1
16 H  s               3.1       0.2       2.5      21.7       1.4      13.3
17 H  s               1.4       0.2       2.0       1.1      29.4      15.2
18 H  s               2.9       6.7       6.0       1.5       0.2       0.1
19 H  s               1.8       0.3       0.2      20.7       0.5      12.0

                     42        43        44        45        46        47   
                   0.12360   0.13275   0.14027   0.14627   0.16682   0.19357
                   0.00000   0.00000   0.00000   0.00000   0.00000   0.00000
                  --------  --------  --------  --------  --------  --------
 0 C  s               0.0       0.4       0.1       0.0       0.2       2.2
 0 C  pz              7.0       4.0       4.5       0.0       2.1       1.3
 0 C  px              0.7       0.7       1.3       0.2       1.8      15.3
 0 C  py              7.1       0.6       9.8       0.1       0.5       3.0
 0 C  dz2             0.0       0.2       0.9       0.0       0.0       1.1
 0 C  dxz             0.1       0.0       0.0       0.1       0.3       0.2
 0 C  dyz             1.0       0.0       0.0       0.1       0.0       0.4
 0 C  dx2y2           0.0       0.2       0.0       0.3       0.1       2.6
 0 C  dxy             0.2       0.0       0.2       0.1       0.0       0.7
 1 C  s               4.1       0.4       0.1       0.0       0.8       7.1
 1 C  pz              0.1       0.1       0.7       2.8       0.9       5.7
 1 C  px              3.4       0.0       0.2       0.7       5.9       8.8
 1 C  py              0.1       1.9       0.3       6.5       1.7       0.4
 1 C  dz2             0.0       0.1       0.1       0.2       0.0       0.2
 1 C  dxz             0.9       0.1       0.4       0.1       0.4       0.4
 1 C  dyz             0.0       0.1       0.0       0.0       0.2       1.1
 1 C  dx2y2           0.4       0.0       0.8       0.1       0.5       0.7
 1 C  dxy             0.1       0.0       0.1       0.1       0.0       0.5
 2 C  s               4.5       0.6       0.1       0.0       0.3       0.1
 2 C  pz              1.0       0.2       1.9       1.9       5.1       0.3
 2 C  px              0.5       1.0       2.2       1.9       1.8       8.6
 2 C  py              0.7       0.3       3.2       1.8       2.8       1.9
[...]
 1 C  dxz             4.9       3.1       0.0       0.1       0.0       0.1
 1 C  dyz             5.4       2.5       0.2       0.0       0.3       0.0
 1 C  dx2y2          10.4       2.8       0.1       0.1       0.2       0.0
 1 C  dxy             0.0       0.9       0.0       0.0       0.2       0.0
 2 C  s               0.3       0.0       0.1       0.0       0.0       0.3
 2 C  pz              0.2       0.3       0.0       0.0       0.0       0.0
 2 C  px              1.0       1.3       0.0       0.1       0.1       0.2
 2 C  py              0.9       0.4       0.0       0.1       0.0       0.0
 2 C  dz2             0.4       0.8       0.1       0.0       0.5       0.5
 2 C  dxz             4.6       2.3       0.4       1.1       1.3       0.0
 2 C  dyz             3.5       4.1       0.2       0.8       0.1       0.0
 2 C  dx2y2           3.3       5.4       0.1       0.1       0.0       1.1
 2 C  dxy             1.7       0.0       0.3       2.1       0.4       0.1
 3 C  s               1.2       0.9       0.0       0.2       0.1       1.0
 3 C  pz              0.1       0.1       0.0       0.2       0.6       1.0
 3 C  px              0.3       1.2       0.0       0.3       0.0       0.9
 3 C  py              0.1       0.3       0.0       0.1       0.5       1.3
 3 C  dz2             0.2       1.3       0.3       2.4       0.0       1.5
 3 C  dxz             0.0       0.2       1.0       0.7       8.4       1.7
 3 C  dyz             0.0       2.1       0.1       0.6       0.0       0.7
 3 C  dx2y2           0.0       1.1       0.3       5.0       0.8       0.5
 3 C  dxy             0.6       0.1       0.5       4.8       3.5       1.6
 4 O  s               0.0       0.0       0.0       1.3       0.0       0.3
 4 O  pz              0.1       0.0       0.0       0.2       0.2       0.1
 4 O  px              0.0       0.0       0.0       0.4       0.0       0.6
 4 O  py              0.0       0.0       0.0       0.2       0.1       0.1
 4 O  dz2             4.3      14.2       2.5       3.0      11.9       1.4
 4 O  dxz             0.8       0.2       2.7       6.0       2.1       8.9
 4 O  dyz             8.7       9.7       0.1       1.3       1.6       0.2
 4 O  dx2y2           8.2      22.6       0.3       4.8       7.9       0.5
 4 O  dxy            12.4       3.2       3.2       2.2       1.6      15.3
 5 O  s               0.0       0.1       0.0       0.5       0.0       7.5
 5 O  pz              0.2       0.1       0.6       0.5       0.2       0.5
 5 O  px              0.0       0.0       0.0       1.9       0.1       0.1
 5 O  py              0.0       0.4       0.5       0.2       0.2       0.6
 5 O  dz2             3.8       1.1      24.2       0.1      20.7       8.2
 5 O  dxz             0.0       0.9      16.2       7.6      15.8       1.9
 5 O  dyz             0.9       7.5       0.0      33.4       0.3      16.5
 5 O  dx2y2           0.6       0.5       2.9       0.2      11.0      14.7
 5 O  dxy             0.1       0.5      21.0       9.3       6.1       4.7
 6 C  s               0.2       0.2       0.1       0.5       0.0       0.5
 6 C  pz              0.2       0.1       0.2       0.0       0.0       0.1
 6 C  px              0.1       0.1       0.2       0.7       0.1       0.7
 6 C  dz2             0.0       0.1       0.8       1.3       1.0       0.4
 6 C  dxz             0.9       0.2       8.3       0.3       0.3       1.2
 6 C  dyz             0.3       0.2       0.4       0.0       0.0       0.2
 6 C  dx2y2           0.1       0.3       0.1       2.9       0.0       1.4
 6 C  dxy             0.0       0.6       6.2       1.3       0.4       0.3
 7 C  pz              0.0       0.0       0.2       0.0       0.0       0.0
 7 C  dz2             0.0       0.0       1.2       0.0       0.0       0.0
 7 C  dxz             0.0       0.2       0.5       0.3       0.0       0.1
 7 C  dyz             0.2       0.1       1.4       0.1       0.2       0.0
 7 C  dx2y2           0.0       0.0       1.2       0.0       0.2       0.1
 9 H  s               0.1       0.0       0.0       0.0       0.0       0.0
15 H  s               0.1       0.1       0.0       0.0       0.0       0.0
17 H  s               0.0       0.0       0.2       0.0       0.0       0.0

                    132       133       134       135   
                   3.12429   3.32335   3.48732   3.56259
                   0.00000   0.00000   0.00000   0.00000
                  --------  --------  --------  --------
 2 C  s               0.0       0.3       0.1       0.1
 2 C  px              0.0       0.1       0.4       0.1
 2 C  dz2             0.0       0.0       0.4       0.0
 2 C  dxz             0.3       0.2       0.0       0.2
 2 C  dx2y2           0.1       0.0       1.2       0.0
 2 C  dxy             0.4       0.4       0.0       0.3
 3 C  s               0.0       3.5       0.1       6.5
 3 C  pz              0.1       0.0       1.6       1.4
 3 C  px              0.0       1.6       0.3       0.7
 3 C  py              0.3       0.1       2.4       1.8
 3 C  dz2            13.5       1.3       0.0       0.5
 3 C  dxz             0.0       0.1       7.4       0.2
 3 C  dyz             0.7       0.6       0.4       7.8
 3 C  dx2y2           5.9       5.0       0.6       4.8
 3 C  dxy             0.1       0.0      10.9       0.2
 4 O  s               0.0       1.7       1.1       4.0
 4 O  pz              0.6       0.3       0.4       1.1
 4 O  px              0.0       0.1       0.2       0.8
 4 O  py              0.4       0.5       0.7       1.4
 4 O  dz2            39.7       0.2       1.1       0.1
 4 O  dxz             4.1       0.8       2.1      10.9
 4 O  dyz             0.9      12.6      13.4      22.9
 4 O  dx2y2          11.1       5.1      10.7       3.2
 4 O  dxy             1.8       0.9       2.4      14.4
 5 O  s               0.3       0.1       0.6       0.6
 5 O  pz              0.0       0.1       0.2       0.0
 5 O  px              0.0       2.1       2.9       0.3
 5 O  py              0.1       0.5       0.6       0.1
 5 O  dz2             2.1       5.5       0.3       2.6
 5 O  dxz             8.0       6.7      13.6       1.3
 5 O  dyz             0.0       7.5       3.1       0.1
 5 O  dx2y2           0.4      30.0       0.3       7.2
 5 O  dxy             7.0       3.1      18.2       3.4
 6 C  s               0.0       0.8       0.3       0.0
 6 C  pz              0.0       0.2       0.0       0.0
 6 C  px              0.1       1.6       0.4       0.1
 6 C  dz2             0.4       1.0       0.2       0.0
 6 C  dxz             0.3       0.9       0.0       0.3
 6 C  dx2y2           0.0       3.6       0.7       0.1
 6 C  dxy             0.6       0.4       0.1       0.3


                      *****************************
                      * MAYER POPULATION ANALYSIS *
                      *****************************

  NA   - Mulliken gross atomic population
  ZA   - Total nuclear charge
  QA   - Mulliken gross atomic charge
  VA   - Mayer's total valence
  BVA  - Mayer's bonded valence
  FA   - Mayer's free valence

  ATOM       NA         ZA         QA         VA         BVA        FA
  0 C      6.2417     6.0000    -0.2417     4.0054     4.0054    -0.0000
  1 C      6.2431     6.0000    -0.2431     4.1990     4.1990     0.0000
  2 C      6.1139     6.0000    -0.1139     3.9341     3.9341    -0.0000
  3 C      5.8868     6.0000     0.1132     4.4026     4.4026    -0.0000
  4 O      8.2138     8.0000    -0.2138     2.2790     2.2790    -0.0000
  5 O      8.2429     8.0000    -0.2429     2.2544     2.2544    -0.0000
  6 C      6.0116     6.0000    -0.0116     4.0549     4.0549    -0.0000
  7 C      6.3039     6.0000    -0.3039     4.0146     4.0146    -0.0000
  8 H      0.9008     1.0000     0.0992     0.9581     0.9581     0.0000
  9 H      0.8930     1.0000     0.1070     0.9503     0.9503    -0.0000
 10 H      0.8986     1.0000     0.1014     0.9576     0.9576    -0.0000
 11 H      0.9025     1.0000     0.0975     0.9483     0.9483     0.0000
 12 H      0.8967     1.0000     0.1033     0.9453     0.9453    -0.0000
 13 H      0.9018     1.0000     0.0982     0.9699     0.9699    -0.0000
 14 H      0.9065     1.0000     0.0935     0.9665     0.9665    -0.0000
 15 H      0.8994     1.0000     0.1006     0.9502     0.9502     0.0000
 16 H      0.8924     1.0000     0.1076     0.9796     0.9796    -0.0000
 17 H      0.8882     1.0000     0.1118     0.9549     0.9549    -0.0000
 18 H      0.8747     1.0000     0.1253     0.9673     0.9673    -0.0000
 19 H      0.8878     1.0000     0.1122     0.9568     0.9568     0.0000

  Mayer bond orders larger than 0.100000
B(  0-C ,  1-C ) :   1.1578 B(  0-C ,  8-H ) :   0.9533 B(  0-C ,  9-H ) :   0.9516 
B(  0-C , 10-H ) :   0.9533 B(  1-C ,  2-C ) :   1.1291 B(  1-C , 11-H ) :   0.9262 
B(  1-C , 12-H ) :   0.9267 B(  2-C ,  3-C ) :   1.0259 B(  2-C , 13-H ) :   0.9030 
B(  2-C , 14-H ) :   0.8994 B(  3-C ,  4-O ) :   2.0433 B(  3-C ,  5-O ) :   1.2050 
B(  5-O ,  6-C ) :   0.9228 B(  6-C ,  7-C ) :   1.1736 B(  6-C , 15-H ) :   0.9373 
B(  6-C , 16-H ) :   0.9123 B(  7-C , 17-H ) :   0.9446 B(  7-C , 18-H ) :   0.9462 
B(  7-C , 19-H ) :   0.9492 

-------
TIMINGS
-------

Total SCF time: 0 days 0 hours 0 min 8 sec 

Total time                  ....       8.237 sec
Sum of individual times     ....       7.758 sec  ( 94.2%)

SCF preparation             ....       0.167 sec  (  2.0%)
Fock matrix formation       ....       6.740 sec  ( 81.8%)
  Startup                   ....       0.056 sec  (  0.8% of F)
  Split-RI-J                ....       2.347 sec  ( 34.8% of F)
  XC integration            ....       3.838 sec  ( 56.9% of F)
    Basis function eval.    ....       1.359 sec  ( 35.4% of XC)
    Density eval.           ....       0.464 sec  ( 12.1% of XC)
    XC-Functional eval.     ....       0.358 sec  (  9.3% of XC)
    XC-Potential eval.      ....       0.717 sec  ( 18.7% of XC)
Diagonalization             ....       0.000 sec  (  0.0%)
Density matrix formation    ....       0.180 sec  (  2.2%)
Total Energy calculation    ....       0.036 sec  (  0.4%)
Population analysis         ....       0.079 sec  (  1.0%)
Orbital Transformation      ....       0.046 sec  (  0.6%)
Orbital Orthonormalization  ....       0.000 sec  (  0.0%)
DIIS solution               ....       0.344 sec  (  4.2%)
  MO trafo                  ....       0.000 sec  (  0.0 % of DIIS)
  Orb grad                  ....       0.000 sec  (  0.0 % of DIIS)
  Energy W gradient         ....       0.000 sec  (  0.0 % of DIIS)
  DIIS error                ....       0.005 sec  (  1.5 % of DIIS)
  DIIS work                 ....       0.300 sec  ( 87.1 % of DIIS)
  Form Q                    ....       0.000 sec  (  0.0 % of DIIS)
  Form QpQm                 ....       0.000 sec  (  0.0 % of DIIS)
  Exp/Cayley                ....       0.000 sec  (  0.0 % of DIIS)
  Orb update                ....       0.000 sec  (  0.0 % of DIIS)
  Wake-sleep                ....       0.015 sec  (  4.4 % of DIIS)
SOSCF solution              ....       0.166 sec  (  2.0%)
  MO trafo                  ....       0.054 sec  ( 32.5 % of SOSCF)
  Orb grad                  ....       0.003 sec  (  1.7 % of SOSCF)
  Rot update                ....       0.067 sec  ( 40.5 % of SOSCF)
  Step                      ....       0.042 sec  ( 25.2 % of SOSCF)
Finished LeanSCF after   8.3 sec

Maximum memory used throughout the entire LEANSCF-calculation: 12.7 MB


-------------------------------------------------------------------------------
                          DFT DISPERSION CORRECTION                            
                                                                               
                                DFTD4 V3.4.0                                   
-------------------------------------------------------------------------------
The PBE functional is recognized
Active option DFTDOPT                   ...         5   

-------------------------   ----------------
Dispersion correction           -0.014842149
-------------------------   ----------------

------------------   -----------------
gCP correction             0.089704519
------------------   -----------------

-------------------------   --------------------
FINAL SINGLE POINT ENERGY      -385.457753226346
-------------------------   --------------------


------------------------------------------------------------------------------
                              ORCA PROPERTY CALCULATIONS
------------------------------------------------------------------------------

GBWName                                 ... sp.gbw
Number of atoms                         ...     20
Number of basis functions               ...    136
Max core memory                         ...   1024 MB

Electric properties:
Dipole moment                           ... YES
Quadrupole moment                       ...  NO
Static polarizability (Dipole/Dipole)   ...  NO
Static polarizability (Dipole/Quad.)    ...  NO
Static polarizability (Quad./Quad.)     ...  NO
Static polarizability (Velocity)        ...  NO

Atomic electric properties:
Dipole moment                           ...  NO
Quadrupole moment                       ...  NO
Static polarizability                   ...  NO

Choice of electric origin               ... Center of mass
Position of electric origin             ...    -0.000014    -0.000020     0.000003

General magnetic properties:
Magnetizability                         ...  NO

EPR properties:
g-Tensor (aka g-matrix)                 ...  NO
Zero-Field splitting spin-orbit         ...  NO
Zero-field splitting spin-spin          ...  NO
Hyperfine couplings                     ...  NO (   0 nuclei)
Quadrupole couplings                    ...  NO (   0 nuclei)
Contact density                         ...  NO (   0 nuclei)

NMR properties:
Chemical shifts                         ...  NO (   0 nuclei)
Spin-rotation constants                 ...  NO (   0 nuclei)
Spin-spin couplings                     ...  NO (   0 nuclei,    0 pairs)

Choice of magnetic origin               ... GIAO
Position of magnetic origin             ...     0.000000     0.000000     0.000000

Properties with geometric perturbations:
SCF Hessian                             ...  NO
IR spectrum                             ...  NO
VCD spectrum                            ...  NO
X-ray spectroscopy properties:
SCF XES/XAS/RIXS spectra                ...  NO


-------------
DIPOLE MOMENT
-------------

Method             : SCF
Type of density    : Electron Density
Multiplicity       :   1
Irrep              :   0
Energy             :  -385.5326155957630476 Eh
Relativity type    : 
Basis              : AO
                                X                 Y                 Z
Electronic contribution:      3.485600992       5.255403121      -1.589625361
Nuclear contribution   :     -3.385054356      -5.924652971       1.278496343
                        -----------------------------------------
Total Dipole Moment    :      0.100546636      -0.669249850      -0.311129019
                        -----------------------------------------
Magnitude (a.u.)       :      0.744853176
Magnitude (Debye)      :      1.893266313



--------------------
Rotational spectrum 
--------------------
 
Rotational constants in cm-1:             0.131085             0.033353             0.030733 
Rotational constants in MHz :          3929.821634           999.885005           921.340496 

Dipole components along the rotational axes: 
x,y,z [a.u.] :     0.017086    -0.644844    -0.372412 
x,y,z [Debye]:     0.043430    -1.639062    -0.946597 

 

Dipole moment calculation done in   0.0 sec 

Maximum memory used throughout the entire PROP-calculation: 8.0 MB

--------------------------------
SUGGESTED CITATIONS FOR THIS RUN
--------------------------------

Below you find a list of papers that are relevant to this ORCA run
We neither can nor want to force you to cite these papers, but we appreciate if you do
You receive ORCA, which is the product of decades of hard work by many enthusiastic individuals, for free
The only thing we kindly ask in return is that you cite our papers,
We deeply appreciate it, if you show your appreciation for ORCA by not just citing the generic ORCA reference.

Please note that relegating all ORCA citations to the supporting information does *not* help us.
SI sections are not indexed - citations you put there will not count into any citation statistics
But we need these citations in order to attract the funding resources that allow us to do what we are doing

Therefore, if you are a happy ORCA user, please consider citing a few of the papers listed below in the main body of your paper

In addition to the list printed below, the program has created the file sp.bibtex that contains the list in bibtex format
You can import this file easily into all common literature databanks and citation aid programs


List of essential papers. We consider these as the minimum necessary citations

  1. Neese,F.
     Software update: the ORCA program system, version 5.0
     WIRES Comput. Molec. Sci., 2022 12(1)e1606
     doi.org/10.1002/wcms.1606

List of papers to cite with high priority. The work reported in these papers was absolutely
necessary for this run to complete.
Our perspective: the developers of density functionals and basis sets usually get cited in chemistry papers
Good! But without the algorithms to do something with them, the functionals or basis sets would not do anything.
Hence, in our opinion, the algorithm design and method developments papers are equally worthy of getting cited

  1. Neese,F.
     An improvement of the resolution of the identity approximation for the formation of the Coulomb matrix
     J. Comp. Chem., 2003 24(14)1740-1747
     doi.org/10.1002/jcc.10318
  2. Neese,F.
     The SHARK Integral Generation and Digestion System
     J. Comp. Chem., 2022  1-16
     doi.org/10.1002/jcc.26942
  3. Caldeweyher,E.; Bannwarth,C.; Grimme,S.
     Extension of the D3 dispersion coefficient model
     J. Chem. Phys., 2017 147 034112-XXXX
     doi.org/10.1063/1.4993215
  4. Caldeweyher,E.; Ehlert,S.; Hansen,A.; Neugebauer,H.; Spicher,S.; Bannwarth,C.; Grimme,S.
     A generally applicable atomic-charge dependent London dispersion correction
     J. Chem. Phys., 2019 150 154122-XXXX
     doi.org/10.1063/1.5090222
  5. Caldeweyher,E.; Mewes,J.; Ehlert,S.; Grimme,S.
     Extension and evaluation of the D4 London-dispersion model for periodic systems
     Phys. Chem. Chem. Phys., 2020 22(16)8499-8512
     doi.org/10.1039/D0CP00502A

List of suggested additional citations. These are papers that are important in the 'surrounding' of 
of this run, or papers that preceded the highly important papers. If you like your results we are grateful for a citation.

  1. Neese,F.
     The ORCA program system
     WIRES Comput. Molec. Sci., 2012 2(1)73-78
     doi.org/10.1002/wcms.81
  2. Neese,F.
     Software update: the ORCA program system, version 4.0
     WIRES Comput. Molec. Sci., 2018 8(1)1-6
     doi.org/10.1002/wcms.1327
  3. Neese,F.; Wennmohs,F.; Becker,U.; Riplinger,C.
     The ORCA quantum chemistry program package
     J. Chem. Phys., 2020 152 Art. No. L224108
     doi.org/10.1063/5.0004608

List of optional additional citations

  1. Neese,F.
     Approximate second-order SCF convergence for spin unrestricted wavefunctions
     Chem. Phys. Lett., 2000 325(1-3)93-98
     doi.org/10.1016/s0009-2614(00)00662-x

Timings for individual modules:

Sum of individual times          ...        9.997 sec (=   0.167 min)
Startup calculation              ...        0.766 sec (=   0.013 min)   7.7 %
SCF iterations                   ...        9.123 sec (=   0.152 min)  91.3 %
Property calculations            ...        0.109 sec (=   0.002 min)   1.1 %
                             ****ORCA TERMINATED NORMALLY****
TOTAL RUN TIME: 0 days 0 hours 0 minutes 10 seconds 709 msec
