
                                 *****************
                                 * O   R   C   A *
                                 *****************

                                            #,                                       
                                            ###                                      
                                            ####                                     
                                            #####                                    
                                            ######                                   
                                           ########,                                 
                                     ,,################,,,,,                         
                               ,,#################################,,                 
                          ,,##########################################,,             
                       ,#########################################, ''#####,          
                    ,#############################################,,   '####,        
                  ,##################################################,,,,####,       
                ,###########''''           ''''###############################       
              ,#####''   ,,,,##########,,,,          '''####'''          '####       
            ,##' ,,,,###########################,,,                        '##       
           ' ,,###''''                  '''############,,,                           
         ,,##''                                '''############,,,,        ,,,,,,###''
      ,#''                                            '''#######################'''  
     '                                                          ''''####''''         
             ,#######,   #######,   ,#######,      ##                                
            ,#'     '#,  ##    ##  ,#'     '#,    #''#        ,####,   ,####,        
            ##       ##  ##   ,#'  ##            #'  '#       #'       #'  '#        
            ##       ##  #######   ##           ,######,      #####,   #    #        
            '#,     ,#'  ##    ##  '#,     ,#' ,#      #,     #,   #   #,  ,#        
             '#######'   ##     ##  '#######'  #'      '#     '####' # '####'        



                #########################################################
                #                        -***-                          #
                #          Department of theory and spectroscopy        #
                #                                                       #
                #                      Frank Neese                      #
                #                                                       #
                #     Directorship, Architecture, Infrastructure        #
                #                    SHARK, DRIVERS                     #
                #        Core code/Algorithms in most modules           #
                #                                                       #
                #        Max Planck Institute fuer Kohlenforschung      #
                #                Kaiser Wilhelm Platz 1                 #
                #                 D-45470 Muelheim/Ruhr                 #
                #                      Germany                          #
                #                                                       #
                #                  All rights reserved                  #
                #                        -***-                          #
                #########################################################


                         Program Version 6.0.0  -   RELEASE  -


 With contributions from (in alphabetic order):
   Daniel Aravena         : Magnetic Suceptibility
   Michael Atanasov       : Ab Initio Ligand Field Theory (pilot matlab implementation)
   Alexander A. Auer      : GIAO ZORA, VPT2 properties, NMR spectrum
   Ute Becker             : All parallelization in ORCA, NUMFREQ, NUMCALC
   Giovanni Bistoni       : ED, misc. LED, open-shell LED, HFLD
   Martin Brehm           : Molecular dynamics
   Dmytro Bykov           : pre 5.0 version of the SCF Hessian
   Marcos Casanova-Páez   : Triplet and SCS-CIS(D). UHF-(DLPNO)-IP/EA/STEOM-CCSD. UHF-CVS-IP/STEOM-CCSD
   Vijay G. Chilkuri      : MRCI spin determinant printing, contributions to CSF-ICE
   Pauline Colinet        : FMM embedding
   Dipayan Datta          : RHF DLPNO-CCSD density
   Achintya Kumar Dutta   : EOM-CC, STEOM-CC
   Nicolas Foglia         : Exact transition moments, OPA infrastructure, MCD improvements
   Dmitry Ganyushin       : Spin-Orbit,Spin-Spin,Magnetic field MRCI
   Miquel Garcia          : C-PCM and meta-GGA Hessian, CCSD/C-PCM, Gaussian charge scheme
   Tiago L. C. Gouveia    : GS-ROHF, GS-ROCIS
   Yang Guo               : DLPNO-NEVPT2, F12-NEVPT2, CIM, IAO-localization
   Andreas Hansen         : Spin unrestricted coupled pair/coupled cluster methods
   Ingolf Harden          : AUTO-CI MPn and infrastructure 
   Benjamin Helmich-Paris : MC-RPA, TRAH-(SCF,CASSCF), AVAS, COSX integrals, SCF dyn. polar.
   Lee Huntington         : MR-EOM, pCC
   Robert Izsak           : Overlap fitted RIJCOSX, COSX-SCS-MP3, EOM
   Riya Kayal             : Wick's Theorem for AUTO-CI, AUTO-CI UHF-CCSDT
   Emily Kempfer          : AUTO-CI, RHF CISDT and CCSDT
   Christian Kollmar      : KDIIS, OOCD, Brueckner-CCSD(T), CCSD density, CASPT2, CASPT2-K, improved NEVPT2
   Axel Koslowski         : Symmetry handling
   Simone Kossmann        : Meta GGA functionals, TD-DFT gradient, OOMP2, (MP2 Hessian; deprecated post 5.0)
   Lucas Lang             : DCDCAS
   Marvin Lechner         : AUTO-CI (C++ implementation), FIC-MRCC
   Spencer Leger          : CASSCF response
   Dagmar Lenk            : GEPOL surface, SMD, ORCA-2-JSON
   Dimitrios Liakos       : Extrapolation schemes; Compound Job, initial MDCI parallelization
   Dimitrios Manganas     : Further ROCIS development; embedding schemes. LFT, Crystal Embedding
   Dimitrios Pantazis     : SARC Basis sets
   Anastasios Papadopoulos: AUTO-CI, single reference methods and gradients
   Taras Petrenko         : pre 6.0 DFT Hessian and TD-DFT gradient, (ASA, deprecated), ECA, 1-Electron XAS/XES, NRVS
   Peter Pinski           : DLPNO-MP2, DLPNO-MP2 Gradient
   Christoph Reimann      : Effective Core Potentials
   Marius Retegan         : Local ZFS, SOC
   Christoph Riplinger    : Optimizer, TS searches, QM/MM, DLPNO-CCSD(T), (RO)-DLPNO pert. Triples
   Michael Roemelt        : Original ROCIS implementation
   Masaaki Saitow         : Open-shell DLPNO-CCSD energy and density
   Barbara Sandhoefer     : DKH picture change effects
   Kantharuban Sivalingam : CASSCF convergence/infrastructure, NEVPT2 and variants, FIC-MRCI
   Bernardo de Souza      : ESD, SOC TD-DFT
   Georgi Stoychev        : AutoAux, RI-MP2 NMR, DLPNO-MP2 response, X2C
   Van Anh Tran           : RI-MP2 g-tensors
   Willem Van den Heuvel  : Paramagnetic NMR
   Zikuan Wang            : NOTCH, Electric field optimization 
   Frank Wennmohs         : Technical directorship and infrastructure
   Hang Xu                : AUTO-CI-Response properties 


 We gratefully acknowledge several colleagues who have allowed us to
 interface, adapt or use parts of their codes:
   Stefan Grimme, W. Hujo, H. Kruse, P. Pracht,  : VdW corrections, initial TS optimization,
                  C. Bannwarth, S. Ehlert,         DFT functionals, gCP, sTDA/sTD-DF
                  L. Wittmann, M. Mueller
   Ed Valeev, F. Pavosevic, A. Kumar             : LibInt (2-el integral package), F12 methods
   Garnet Chan, S. Sharma, J. Yang, R. Olivares  : DMRG
   Ulf Ekstrom                                   : XCFun DFT Library
   Mihaly Kallay                                 : mrcc  (arbitrary order and MRCC methods)
   Frank Weinhold                                : gennbo (NPA and NBO analysis)
   Simon Mueller                                 : openCOSMO-RS
   Christopher J. Cramer and Donald G. Truhlar   : smd solvation model
   Lars Goerigk                                  : TD-DFT with DH, B97 family of functionals
   V. Asgeirsson, H. Jonsson                     : NEB implementation
   FAccTs GmbH                                   : IRC, NEB, NEB-TS, DLPNO-Multilevel, CI-OPT
                                                   MM, QMMM, 2- and 3-layer-ONIOM, Crystal-QMMM,
                                                   LR-CPCM, SF, NACMEs, symmetry and pop. for TD-DFT,
                                                   nearIR, NL-DFT gradient (VV10), updates on ESD,
                                                   ML-optimized integration grids, MBIS, APM,
                                                   GOAT, DOCKER, SOLVATOR, interface openCOSMO-RS
   S Lehtola, MJT Oliveira, MAL Marques          : LibXC Library
   Liviu Ungur et al                             : ANISO software


 Your calculation uses the libint2 library for the computation of 2-el integrals
 For citations please refer to: http://libint.valeyev.net

 Your ORCA version has been built with support for libXC version: 6.2.2
 For citations please refer to: https://libxc.gitlab.io

 This ORCA versions uses:
   CBLAS   interface :  Fast vector & matrix operations
   LAPACKE interface :  Fast linear algebra routines
   SCALAPACK package :  Parallel linear algebra routines
   Shared memory     :  Shared parallel matrices
   BLAS/LAPACK       :  OpenBLAS 0.3.27  USE64BITINT DYNAMIC_ARCH NO_AFFINITY SkylakeX SINGLE_THREADED
        Core in use  :  SkylakeX
   Copyright (c) 2011-2014, The OpenBLAS Project


Your calculation utilizes the geometrical counterpoise correction gCP
Please cite in your paper:
H.Kruse, S. Grimme J.Chem.Phys., 136, (2012), 154101 
   

Your calculation utilizes the atom-pairwise dispersion correction
based on EEQ partial charges (D4)


================================================================================

----- Orbital basis set information -----
Your calculation utilizes the basis: def2-mTZVPP
   Stefan Grimme, Andreas Hansen, Sebastian Ehlert, and Jan-Michael Mewes 
   J. Chem. Phys. 154, 064103 (2021). DOI: 10.1063/5.0040021

----- AuxJ basis set information -----
Your calculation utilizes the auxiliary basis: def2/J
   F. Weigend, Phys. Chem. Chem. Phys. 8, 1057 (2006).

================================================================================
                                        WARNINGS
                       Please study these warnings very carefully!
================================================================================

Using LibXC functional ID 497 : Re-regularized SCAN exchange by Furness et al
[ 1]  J. W. Furness, A. D. Kaplan, J. Ning, J. P. Perdew, and J. Sun.,  J. Phys. Chem. Lett. 11, 8208-8215 (2020)
[ 2]  J. W. Furness, A. D. Kaplan, J. Ning, J. P. Perdew, and J. Sun.,  J. Phys. Chem. Lett. 11, 9248-9248 (2020)
Using LibXC functional ID 498 : Re-regularized SCAN correlation by Furness et al
[ 1]  J. W. Furness, A. D. Kaplan, J. Ning, J. P. Perdew, and J. Sun.,  J. Phys. Chem. Lett. 11, 8208-8215 (2020)
[ 2]  J. W. Furness, A. D. Kaplan, J. Ning, J. P. Perdew, and J. Sun.,  J. Phys. Chem. Lett. 11, 9248-9248 (2020)
Using LibXC functional ID 497 : Re-regularized SCAN exchange by Furness et al
[ 1]  J. W. Furness, A. D. Kaplan, J. Ning, J. P. Perdew, and J. Sun.,  J. Phys. Chem. Lett. 11, 8208-8215 (2020)
[ 2]  J. W. Furness, A. D. Kaplan, J. Ning, J. P. Perdew, and J. Sun.,  J. Phys. Chem. Lett. 11, 9248-9248 (2020)
Using LibXC functional ID 498 : Re-regularized SCAN correlation by Furness et al
[ 1]  J. W. Furness, A. D. Kaplan, J. Ning, J. P. Perdew, and J. Sun.,  J. Phys. Chem. Lett. 11, 8208-8215 (2020)
[ 2]  J. W. Furness, A. D. Kaplan, J. Ning, J. P. Perdew, and J. Sun.,  J. Phys. Chem. Lett. 11, 9248-9248 (2020)

================================================================================
                                       INPUT FILE
================================================================================
NAME = sp_gas.inp
|  1> ! r2scan-3c def2/J RI DEFGRID2 scfconv6 printgap
|  2> %output
|  3>     printlevel normal
|  4> end
|  5> * xyz 0 1
|  6> C -3.8301766721 0.3208396193 0.3904489742
|  7> C -2.6691765043 -0.5879942083 0.0047841937
|  8> C -1.3357398706 0.1527609554 0.0656999716
|  9> C -0.1627314551 -0.7612133377 -0.307417507
| 10> C 1.1209480367 0.024701624 -0.3365963876
| 11> O 1.3318982776 0.9845941129 -1.0484093113
| 12> O 2.0034813802 -0.445205267 0.5368258691
| 13> C 3.2731655698 0.2070692556 0.6386709419
| 14> H -3.8854588655 1.173458045 -0.2824699398
| 15> H -4.7709535312 -0.2208731338 0.3383461964
| 16> H -3.7026431118 0.6933019919 1.4042104066
| 17> H -2.6369070808 -1.4437978127 0.6815866522
| 18> H -2.8252998591 -0.9670496514 -1.0068387268
| 19> H -1.1818028539 0.5428171256 1.074169302
| 20> H -1.3503009809 1.0016056269 -0.6213878137
| 21> H -0.3313013851 -1.1681187909 -1.3059850574
| 22> H -0.0607682952 -1.5773953241 0.4063867583
| 23> H 3.9516610401 -0.2031166961 -0.1094105026
| 24> H 3.6372330092 0.0009572295 1.6407567222
| 25> H 3.1556472514 1.2784578392 0.4723061991
| 26> *
| 27> 
| 28>                          ****END OF INPUT****
================================================================================

                       ****************************
                       * Single Point Calculation *
                       ****************************

---------------------------------
CARTESIAN COORDINATES (ANGSTROEM)
---------------------------------
  C     -3.830177    0.320840    0.390449
  C     -2.669177   -0.587994    0.004784
  C     -1.335740    0.152761    0.065700
  C     -0.162731   -0.761213   -0.307418
  C      1.120948    0.024702   -0.336596
  O      1.331898    0.984594   -1.048409
  O      2.003481   -0.445205    0.536826
  C      3.273166    0.207069    0.638671
  H     -3.885459    1.173458   -0.282470
  H     -4.770954   -0.220873    0.338346
  H     -3.702643    0.693302    1.404210
  H     -2.636907   -1.443798    0.681587
  H     -2.825300   -0.967050   -1.006839
  H     -1.181803    0.542817    1.074169
  H     -1.350301    1.001606   -0.621388
  H     -0.331301   -1.168119   -1.305985
  H     -0.060768   -1.577395    0.406387
  H      3.951661   -0.203117   -0.109411
  H      3.637233    0.000957    1.640757
  H      3.155647    1.278458    0.472306

----------------------------
CARTESIAN COORDINATES (A.U.)
----------------------------
  NO LB      ZA    FRAG     MASS         X           Y           Z
   0 C     6.0000    0    12.011   -7.237985    0.606299    0.737842
   1 C     6.0000    0    12.011   -5.044013   -1.111148    0.009041
   2 C     6.0000    0    12.011   -2.524183    0.288676    0.124155
   3 C     6.0000    0    12.011   -0.307518   -1.438485   -0.580935
   4 C     6.0000    0    12.011    2.118285    0.046679   -0.636075
   5 O     8.0000    0    15.999    2.516923    1.860613   -1.981206
   6 O     8.0000    0    15.999    3.786031   -0.841316    1.014454
   7 C     6.0000    0    12.011    6.185387    0.391304    1.206913
   8 H     1.0000    0     1.008   -7.342453    2.217514   -0.533791
   9 H     1.0000    0     1.008   -9.015796   -0.417390    0.639382
  10 H     1.0000    0     1.008   -6.996981    1.310151    2.653573
  11 H     1.0000    0     1.008   -4.983032   -2.728382    1.288012
  12 H     1.0000    0     1.008   -5.339043   -1.827459   -1.902649
  13 H     1.0000    0     1.008   -2.233284    1.025776    2.029886
  14 H     1.0000    0     1.008   -2.551699    1.892760   -1.174253
  15 H     1.0000    0     1.008   -0.626069   -2.207425   -2.467954
  16 H     1.0000    0     1.008   -0.114835   -2.980845    0.767960
  17 H     1.0000    0     1.008    7.467557   -0.383835   -0.206756
  18 H     1.0000    0     1.008    6.873374    0.001809    3.100581
  19 H     1.0000    0     1.008    5.963309    2.415935    0.892529

--------------------------------
INTERNAL COORDINATES (ANGSTROEM)
--------------------------------
 C      0   0   0     0.000000000000     0.00000000     0.00000000
 C      1   0   0     1.524020222549     0.00000000     0.00000000
 C      2   1   0     1.526591694147   111.46606807     0.00000000
 C      3   2   1     1.533138742619   111.67335824   179.40992415
 C      4   3   2     1.505439062787   110.23659887   175.80453658
 O      5   4   3     1.213495460531   124.92812400   300.79563986
 O      5   4   3     1.327608386196   111.67252246   119.68091030
 C      7   5   4     1.431059891481   118.37777932   180.63822859
 H      1   2   3     1.087581797185   110.46614051    59.74735387
 H      1   2   3     1.086843367254   110.49067790   179.79884101
 H      1   2   3     1.087522537618   110.53602765   299.88180134
 H      2   1   3     1.091559752294   109.46060830   120.98931968
 H      2   1   3     1.091530331296   109.43037337   238.98878492
 H      3   2   1     1.092177097077   109.46624831    58.28850050
 H      3   2   1     1.092171656369   109.90001402   300.11099979
 H      4   3   2     1.091386742569   109.07223447    57.41454003
 H      4   3   2     1.089066595788   111.03222800   296.59114132
 H      8   7   5     1.090061679812   109.38364983   274.30340266
 H      8   7   5     1.085911220503   106.05850072   154.90391511
 H      8   7   5     1.090578415280   109.95702564    34.45294989

---------------------------
INTERNAL COORDINATES (A.U.)
---------------------------
 C      0   0   0     0.000000000000     0.00000000     0.00000000
 C      1   0   0     2.879980843176     0.00000000     0.00000000
 C      2   1   0     2.884840220257   111.46606807     0.00000000
 C      3   2   1     2.897212348854   111.67335824   179.40992415
 C      4   3   2     2.844867539974   110.23659887   175.80453658
 O      5   4   3     2.293174085160   124.92812400   300.79563986
 O      5   4   3     2.508816263007   111.67252246   119.68091030
 C      7   5   4     2.704311276139   118.37777932   180.63822859
 H      1   2   3     2.055231744918   110.46614051    59.74735387
 H      1   2   3     2.053836314579   110.49067790   179.79884101
 H      1   2   3     2.055119760565   110.53602765   299.88180134
 H      2   1   3     2.062748990647   109.46060830   120.98931968
 H      2   1   3     2.062693393017   109.43037337   238.98878492
 H      3   2   1     2.063915603216   109.46624831    58.28850050
 H      3   2   1     2.063905321768   109.90001402   300.11099979
 H      4   3   2     2.062422049648   109.07223447    57.41454003
 H      4   3   2     2.058037607641   111.03222800   296.59114132
 H      8   7   5     2.059918043927   109.38364983   274.30340266
 H      8   7   5     2.052074812502   106.05850072   154.90391511
 H      8   7   5     2.060894532445   109.95702564    34.45294989

---------------------
BASIS SET INFORMATION
---------------------
There are 3 groups of distinct atoms

 Group   1 Type C   : 11s6p1d contracted to 5s3p1d pattern {62111/411/1}
 Group   2 Type O   : 11s6p2d contracted to 5s3p2d pattern {62111/411/11}
 Group   3 Type H   : 4s1p contracted to 2s1p pattern {31/1}

Atom   0C    basis set group =>   1
Atom   1C    basis set group =>   1
Atom   2C    basis set group =>   1
Atom   3C    basis set group =>   1
Atom   4C    basis set group =>   1
Atom   5O    basis set group =>   2
Atom   6O    basis set group =>   2
Atom   7C    basis set group =>   1
Atom   8H    basis set group =>   3
Atom   9H    basis set group =>   3
Atom  10H    basis set group =>   3
Atom  11H    basis set group =>   3
Atom  12H    basis set group =>   3
Atom  13H    basis set group =>   3
Atom  14H    basis set group =>   3
Atom  15H    basis set group =>   3
Atom  16H    basis set group =>   3
Atom  17H    basis set group =>   3
Atom  18H    basis set group =>   3
Atom  19H    basis set group =>   3
---------------------------------
AUXILIARY/J BASIS SET INFORMATION
---------------------------------
There are 3 groups of distinct atoms

 Group   1 Type C   : 12s5p4d2f1g contracted to 6s4p3d1f1g pattern {711111/2111/211/2/1}
 Group   2 Type O   : 12s5p4d2f1g contracted to 6s4p3d1f1g pattern {711111/2111/211/2/1}
 Group   3 Type H   : 5s2p1d contracted to 3s1p1d pattern {311/2/1}

Atom   0C    basis set group =>   1
Atom   1C    basis set group =>   1
Atom   2C    basis set group =>   1
Atom   3C    basis set group =>   1
Atom   4C    basis set group =>   1
Atom   5O    basis set group =>   2
Atom   6O    basis set group =>   2
Atom   7C    basis set group =>   1
Atom   8H    basis set group =>   3
Atom   9H    basis set group =>   3
Atom  10H    basis set group =>   3
Atom  11H    basis set group =>   3
Atom  12H    basis set group =>   3
Atom  13H    basis set group =>   3
Atom  14H    basis set group =>   3
Atom  15H    basis set group =>   3
Atom  16H    basis set group =>   3
Atom  17H    basis set group =>   3
Atom  18H    basis set group =>   3
Atom  19H    basis set group =>   3

Checking for AutoStart:
The File: sp_gas.gbw exists
Trying to determine its content:
     ... Fine, the file contains calculation information
     ... Fine, the calculation information was read
     ... Fine, the file contains a basis set
     ... Fine, the basis set was read
     ... Fine, the file contains a geometry
     ... Fine, the geometry was read
     ... Fine, the file contains a set of orbitals
     ... Fine, the orbitals can be read
     => possible old guess file was deleted
     => GBW file was renamed to GES file
     => GES file is set as startup file
     => Guess is set to MORead
     ... now leaving AutoStart

------------------------------------------------------------------------------
                             ORCA STARTUP CALCULATIONS
                           -- RI-GTO INTEGRALS CHOSEN --
------------------------------------------------------------------------------
------------------------------------------------------------------------------
                   ___                                                        
                  /   \      - P O W E R E D   B Y -                         
                 /     \                                                     
                 |  |  |   _    _      __       _____    __    __             
                 |  |  |  | |  | |    /  \     |  _  \  |  |  /  |          
                  \  \/   | |  | |   /    \    | | | |  |  | /  /          
                 / \  \   | |__| |  /  /\  \   | |_| |  |  |/  /          
                |  |  |   |  __  | /  /__\  \  |    /   |      \           
                |  |  |   | |  | | |   __   |  |    \   |  |\   \          
                \     /   | |  | | |  |  |  |  | |\  \  |  | \   \       
                 \___/    |_|  |_| |__|  |__|  |_| \__\ |__|  \__/        
                                                                              
                      - O R C A' S   B I G   F R I E N D -                    
                                      &                                       
                       - I N T E G R A L  F E E D E R -                       
                                                                              
 v1 FN, 2020, v2 2021, v3 2022-2024                                           
------------------------------------------------------------------------------


----------------------
SHARK INTEGRAL PACKAGE
----------------------

Number of atoms                             ...     20
Number of basis functions                   ...    222
Number of shells                            ...    110
Maximum angular momentum                    ...      2
Integral batch strategy                     ... SHARK/LIBINT Hybrid
RI-J (if used) integral strategy            ... SPLIT-RIJ (Revised 2003 algorithm where possible)
Printlevel                                  ...      1
Contraction scheme used                     ... SEGMENTED contraction
Prescreening option                         ... SCHWARTZ
   Thresh                                   ... 1.000e-10
   Tcut                                     ... 1.000e-11
   Tpresel                                  ... 1.000e-11 
Coulomb Range Separation                    ... NOT USED
Exchange Range Separation                   ... NOT USED
Multipole approximations                    ... NOT USED
Finite Nucleus Model                        ... NOT USED
CABS basis                                  ... NOT available
Auxiliary Coulomb fitting basis             ... AVAILABLE
   # of basis functions in Aux-J            ...    524
   # of shells in Aux-J                     ...    180
   Maximum angular momentum in Aux-J        ...      4
Auxiliary J/K fitting basis                 ... NOT available
Auxiliary Correlation fitting basis         ... NOT available
Auxiliary 'external' fitting basis          ... NOT available

Checking pre-screening integrals            ... done (  0.0 sec) Dimension = 110
Check shell pair data                       ... done (  0.0 sec)
Shell pair information
Shell pair cut-off parameter TPreSel        ...   1.0e-11
Total number of shell pairs                 ...      6105
Shell pairs after pre-screening             ...      5113
Total number of primitive shell pairs       ...     21533
Primitive shell pairs kept                  ...     12779
          la=0 lb=0:   1711 shell pairs
          la=1 lb=0:   1935 shell pairs
          la=1 lb=1:    567 shell pairs
          la=2 lb=0:    542 shell pairs
          la=2 lb=1:    310 shell pairs
          la=2 lb=2:     48 shell pairs

Calculating one electron integrals          ... done (  0.0 sec)
Calculating RI/J V-Matrix + Cholesky decomp.... done (  0.1 sec)
Calculating Nuclear repulsion               ... done (  0.0 sec) ENN=    381.218220221214 Eh

Diagonalization of the overlap matrix:
Smallest eigenvalue                        ... 1.085e-04
Time for diagonalization                   ...    0.005 sec
Threshold for overlap eigenvalues          ... 1.000e-07
Number of eigenvalues below threshold      ... 0
Time for construction of square roots      ...    0.016 sec
Total time needed                          ...    0.032 sec

-------------------
DFT GRID GENERATION
-------------------

General Integration Accuracy     IntAcc      ... 4.388
Radial Grid Type                 RadialGrid  ... OptM3 with GC (2021)
Angular Grid (max. ang.)         AngularGrid ... 4 (Lebedev-302)
Angular grid pruning method      GridPruning ... 4 (adaptive)
Weight generation scheme         WeightScheme... mBecke (2022)
Basis function cutoff            BFCut       ... 1.0000e-10
Integration weight cutoff        WCut        ... 1.0000e-14
Partially contracted basis set               ... off
Rotationally invariant grid construction     ... off
Angular grids for H and He will be reduced by one unit
Diffuse basis detected: some atoms will have their outermost
                        angular grid increased by 1.

Total number of grid points                  ...    87462
Total number of batches                      ...     1376
Average number of points per batch           ...       63
Average number of grid points per atom       ...     4373
Initializing property integral containers    ... done (  0.0 sec)

SHARK setup successfully completed in   1.1 seconds

Maximum memory used throughout the entire STARTUP-calculation: 39.1 MB
-------------------------------------------------------------------------------
                                 ORCA GUESS
                   Start orbitals & Density for SCF / CASSCF
-------------------------------------------------------------------------------

------------
SCF SETTINGS
------------
Hamiltonian:
 Density Functional     Method          .... DFT(GTOs)
  Functional kind                       .... Exchange
  Functional name                       .... Re-regularized SCAN exchange by Furness et al
  Functional family                     .... MGGA
  Functional refs                              
    [ 0] J. W. Furness, A. D. Kaplan, J. Ning, J. P. Perdew, and J. Sun.,  J. Phys. Chem. Lett. 11, 8208-8215 (2020), doi: 10.1021/acs.jpclett.0c02405
    [ 1] J. W. Furness, A. D. Kaplan, J. Ning, J. P. Perdew, and J. Sun.,  J. Phys. Chem. Lett. 11, 9248-9248 (2020), doi: 10.1021/acs.jpclett.0c03077
  Functional external parameters        .... 6
    Parameter  0 _c1        =  6.670000e-01 : c1 parameter        
    Parameter  1 _c2        =  8.000000e-01 : c2 parameter        
    Parameter  2 _d         =  1.240000e+00 : d parameter         
    Parameter  3 _k1        =  6.500000e-02 : k1 parameter        
    Parameter  4 _eta       =  1.000000e-03 : eta parameter       
    Parameter  5 _dp2       =  3.610000e-01 : dp2 parameter       
  Functional kind                       .... Correlation
  Functional name                       .... Re-regularized SCAN correlation by Furness et al
  Functional family                     .... MGGA
  Functional refs                              
    [ 0] J. W. Furness, A. D. Kaplan, J. Ning, J. P. Perdew, and J. Sun.,  J. Phys. Chem. Lett. 11, 8208-8215 (2020), doi: 10.1021/acs.jpclett.0c02405
    [ 1] J. W. Furness, A. D. Kaplan, J. Ning, J. P. Perdew, and J. Sun.,  J. Phys. Chem. Lett. 11, 9248-9248 (2020), doi: 10.1021/acs.jpclett.0c03077
  Functional external parameters        .... 1
    Parameter  0 _eta       =  1.000000e-03 : Regularization parameter
 Gradients option       PostSCFGGA      .... off
 RI-approximation to the Coulomb term is turned on
   Number of AuxJ basis functions       .... 524


General Settings:
 Integral files         IntName         .... sp_gas
 Hartree-Fock type      HFTyp           .... RHF
 Total Charge           Charge          ....    0
 Multiplicity           Mult            ....    1
 Number of Electrons    NEL             ....   64
 Basis Dimension        Dim             ....  222
 Nuclear Repulsion      ENuc            ....    381.2182202212 Eh

Convergence Acceleration:
 AO-DIIS                CNVDIIS         .... on
   Start iteration      DIISMaxIt       ....    12
   Startup error        DIISStart       ....  0.200000
   # of expansion vecs  DIISMaxEq       ....     5
   Bias factor          DIISBfac        ....   1.050
   Max. coefficient     DIISMaxC        ....  10.000
 MO-DIIS                CNVKDIIS        .... off
 Trust-Rad. Augm. Hess. CNVTRAH         .... auto
   Auto Start mean grad. ratio tolernc. ....  1.125000
   Auto Start start iteration           ....     1
   Auto Start num. interpolation iter.  ....    10
   Max. Number of Micro iterations      ....    24
   Max. Number of Macro iterations      .... Maxiter - #DIIS iter
   Number of Davidson start vectors     ....     2
   Converg. threshold    (grad. norm)   ....   3.330e-04
   Grad. Scal. Fac. for Micro threshold ....   0.100
   Minimum threshold for Micro iter.    ....   1.000e-02
   NR start threshold (gradient norm)   ....   1.000e-04
   Initial trust radius                 ....   0.400
   Minimum AH scaling param. (alpha)    ....   1.000
   Maximum AH scaling param. (alpha)    .... 1000.000
   Quad. conv. algorithm                .... NR
   White noise on init. David. guess    .... on
   Maximum white noise                  ....   0.010
   Pseudo random numbers                .... off
   Inactive MOs                         .... canonical
   Orbital update algorithm             .... Taylor
   Preconditioner                       .... Diag
   Full preconditioner red. dimension   ....   250
   COSX micro iterations for RIJONX calc.... off
 SOSCF                  CNVSOSCF        .... on
   Start iteration      SOSCFMaxIt      ....   150
   Startup grad/error   SOSCFStart      ....  0.003300
   Hessian update       SOSCFHessUp     .... L-BFGS
 Level Shifting         CNVShift        .... on
   Level shift para.    LevelShift      ....    0.2500
   Turn off err/grad.   ShiftErr        ....    0.0010
 Zerner damping         CNVZerner       .... off
 Static damping         CNVDamp         .... on
   Fraction old density DampFac         ....    0.7000
   Max. Damping (<1)    DampMax         ....    0.9800
   Min. Damping (>=0)   DampMin         ....    0.0000
   Turn off err/grad.   DampErr         ....    0.1000

SCF Procedure:
 Maximum # iterations   MaxIter         ....   125
 SCF integral mode      SCFMode         .... Direct
   Integral package                     .... SHARK and LIBINT hybrid scheme
 Reset frequency        DirectResetFreq ....    20
 Integral Threshold     Thresh          ....  1.000e-10 Eh
 Primitive CutOff       TCut            ....  1.000e-11 Eh

Convergence Tolerance:
 Convergence Check Mode ConvCheckMode   .... Total+1el-Energy
 Convergence forced     ConvForced      .... 0
 Energy Change          TolE            ....  1.000e-06 Eh
 1-El. energy change                    ....  1.000e-03 Eh
 Orbital Gradient       TolG            ....  3.330e-04
 Orbital Rotation angle TolX            ....  3.330e-04
 DIIS Error             TolErr          ....  1.000e-06

---------------------
INITIAL GUESS: MOREAD
---------------------
Guess MOs are being read from file: sp_gas.ges
Input Geometry matches current geometry (good)
Atom 0: N(Shells)= 9 and 6 - projection required
Input basis set needs projection
NBasis(read)= 136
NBasis(calc)= 222
Basis set overlap was calculated
Using GuessMode=FMatrix for the initial guess
C*T matrix was formed
Effective Fockian was calculated
Effective Fockian was diagonalized
Initial density was built
                      ------------------
                      INITIAL GUESS DONE (   0.0 sec)
                      ------------------
             **** ENERGY FILE WAS UPDATED (sp_gas.en.tmp) ****
Finished Guess after   0.3 sec
Maximum memory used throughout the entire GUESS-calculation: 14.7 MB

-------------------------------------------------------------------------------------------
                                      ORCA LEAN-SCF
                              memory conserving SCF solver
-------------------------------------------------------------------------------------------

----------------------------------------D-I-I-S--------------------------------------------
Iteration    Energy (Eh)           Delta-E    RMSDP     MaxDP     DIISErr   Damp  Time(sec)
-------------------------------------------------------------------------------------------
               ***  Starting incremental Fock matrix formation  ***
    1    -386.0430974530087269     0.00e+00  3.64e-03  1.30e-01  6.25e-01  0.700   2.7
    2    -386.1007996690344726    -5.77e-02  2.92e-03  9.21e-02  4.39e-01  0.700   2.5
    3    -386.1415846453772929    -4.08e-02  2.13e-03  6.52e-02  3.08e-01  0.700   2.4
    4    -386.1702153257531336    -2.86e-02  1.52e-03  4.59e-02  2.16e-01  0.700   2.4
                               ***Turning on AO-DIIS***
    5    -386.1902954043614500    -2.01e-02  1.09e-03  3.29e-02  1.51e-01  0.700   2.4
    6    -386.2043695923562154    -1.41e-02  7.70e-04  2.32e-02  1.06e-01  0.700   2.4
    7    -386.2142348306604163    -9.87e-03  5.42e-04  1.63e-02  7.40e-02  0.700   2.3
    8    -386.2211461847009559    -6.91e-03  1.27e-03  3.79e-02  5.18e-02  0.000   2.3
                              *** Initializing SOSCF ***
---------------------------------------S-O-S-C-F--------------------------------------
Iteration    Energy (Eh)           Delta-E    RMSDP     MaxDP     MaxGrad    Time(sec)
--------------------------------------------------------------------------------------
    9    -386.2372923737976862    -1.61e-02  7.18e-06  2.20e-04  8.94e-05     2.4
               *** Restarting incremental Fock matrix formation ***
   10    -386.2372924734225990    -9.96e-08  4.45e-06  9.64e-05  4.58e-05     2.7
                  *** Gradient check signals convergence ***

               *****************************************************
               *                     SUCCESS                       *
               *           SCF CONVERGED AFTER  10 CYCLES          *
               *****************************************************

             **** ENERGY FILE WAS UPDATED (sp_gas.en.tmp) ****

----------------
TOTAL SCF ENERGY
----------------

Total Energy       :       -386.23729247342260 Eh          -10510.05105 eV

Components:
Nuclear Repulsion  :        381.21822022121444 Eh           10373.47515 eV
Electronic Energy  :       -767.45551269463704 Eh          -20883.52620 eV
One Electron Energy:      -1279.60265177132146 Eh          -34819.75836 eV
Two Electron Energy:        512.14713907668443 Eh           13936.23216 eV

Virial components:
Potential Energy   :       -770.88448015460335 Eh          -20976.83315 eV
Kinetic Energy     :        384.64718768118070 Eh           10466.78210 eV
Virial Ratio       :          2.00413393063349

DFT components:
N(Alpha)           :       31.999997051081 electrons
N(Beta)            :       31.999997051081 electrons
N(Total)           :       63.999994102163 electrons
E(X)               :      -52.078604763848 Eh       
E(C)               :       -2.036912761656 Eh       
E(XC)              :      -54.115517525504 Eh       

---------------
SCF CONVERGENCE
---------------

  Last Energy change         ...    9.9625e-08  Tolerance :   1.0000e-06
  Last MAX-Density change    ...    9.6428e-05  Tolerance :   1.0000e-05
  Last RMS-Density change    ...    4.4468e-06  Tolerance :   1.0000e-06
  Last DIIS Error            ...    8.9382e-05  Tolerance :   1.0000e-06
  Last Orbital Gradient      ...    4.5770e-05  Tolerance :   3.3300e-04
  Last Orbital Rotation      ...    1.7742e-04  Tolerance :   3.3300e-04


----------------
ORBITAL ENERGIES
----------------

  NO   OCC          E(Eh)            E(eV) 
   0   2.0000     -18.999835      -517.0118 
   1   2.0000     -18.927417      -515.0412 
   2   2.0000     -10.151636      -276.2401 
   3   2.0000     -10.085998      -274.4540 
   4   2.0000     -10.041273      -273.2369 
   5   2.0000     -10.033431      -273.0235 
   6   2.0000     -10.029627      -272.9200 
   7   2.0000     -10.018663      -272.6217 
   8   2.0000      -1.072767       -29.1915 
   9   2.0000      -0.975421       -26.5426 
  10   2.0000      -0.778044       -21.1717 
  11   2.0000      -0.729169       -19.8417 
  12   2.0000      -0.686829       -18.6896 
  13   2.0000      -0.616066       -16.7640 
  14   2.0000      -0.554050       -15.0765 
  15   2.0000      -0.532005       -14.4766 
  16   2.0000      -0.465773       -12.6743 
  17   2.0000      -0.458693       -12.4817 
  18   2.0000      -0.448858       -12.2141 
  19   2.0000      -0.434628       -11.8268 
  20   2.0000      -0.406094       -11.0504 
  21   2.0000      -0.390657       -10.6303 
  22   2.0000      -0.386312       -10.5121 
  23   2.0000      -0.366756        -9.9799 
  24   2.0000      -0.347316        -9.4510 
  25   2.0000      -0.327675        -8.9165 
  26   2.0000      -0.322672        -8.7803 
  27   2.0000      -0.309762        -8.4290 
  28   2.0000      -0.300511        -8.1773 
  29   2.0000      -0.299759        -8.1569 
  30   2.0000      -0.272823        -7.4239 
  31   2.0000      -0.236053        -6.4233 
  32   0.0000      -0.014786        -0.4023 
  33   0.0000       0.067244         1.8298 
  34   0.0000       0.097911         2.6643 
  35   0.0000       0.099540         2.7086 
  36   0.0000       0.120567         3.2808 
  37   0.0000       0.125405         3.4124 
  38   0.0000       0.137021         3.7285 
  39   0.0000       0.139528         3.7968 
  40   0.0000       0.151207         4.1145 
  41   0.0000       0.161699         4.4000 
  42   0.0000       0.175484         4.7752 
*Only the first 10 virtual orbitals were printed.

                    ********************************
                    * MULLIKEN POPULATION ANALYSIS *
                    ********************************

-----------------------
MULLIKEN ATOMIC CHARGES
-----------------------
   0 C :   -0.466010
   1 C :   -0.235161
   2 C :   -0.274411
   3 C :   -0.331847
   4 C :    0.407384
   5 O :   -0.433864
   6 O :   -0.191902
   7 C :   -0.297838
   8 H :    0.144723
   9 H :    0.148064
  10 H :    0.142609
  11 H :    0.135801
  12 H :    0.138988
  13 H :    0.138670
  14 H :    0.168345
  15 H :    0.165269
  16 H :    0.162853
  17 H :    0.152495
  18 H :    0.149462
  19 H :    0.176369
Sum of atomic charges:   -0.0000000

--------------------------------
MULLIKEN REDUCED ORBITAL CHARGES
--------------------------------
  0 C s       :     3.328490  s :     3.328490
      pz      :     1.070775  p :     3.110449
      px      :     1.009098
      py      :     1.030576
      dz2     :     0.006031  d :     0.027071
      dxz     :     0.002015
      dyz     :     0.006724
      dx2y2   :     0.005462
      dxy     :     0.006839

  1 C s       :     3.218824  s :     3.218824
      pz      :     1.079974  p :     2.979192
      px      :     0.907575
      py      :     0.991643
      dz2     :     0.006812  d :     0.037145
      dxz     :     0.004537
      dyz     :     0.008436
      dx2y2   :     0.008246
      dxy     :     0.009115

  2 C s       :     3.239679  s :     3.239679
      pz      :     1.090468  p :     2.998021
      px      :     0.910025
      py      :     0.997528
      dz2     :     0.006722  d :     0.036711
      dxz     :     0.004555
      dyz     :     0.008471
      dx2y2   :     0.007749
      dxy     :     0.009215

  3 C s       :     3.253346  s :     3.253346
      pz      :     1.103733  p :     3.043672
      px      :     0.946119
      py      :     0.993819
      dz2     :     0.007026  d :     0.034829
      dxz     :     0.003400
      dyz     :     0.007729
      dx2y2   :     0.006956
      dxy     :     0.009719

  4 C s       :     3.139226  s :     3.139226
      pz      :     0.759837  p :     2.328362
      px      :     0.800203
      py      :     0.768321
      dz2     :     0.027763  d :     0.125028
      dxz     :     0.024593
      dyz     :     0.019234
      dx2y2   :     0.020396
      dxy     :     0.033042

  5 O s       :     3.840449  s :     3.840449
      pz      :     1.457585  p :     4.572765
      px      :     1.756146
      py      :     1.359034
      dz2     :     0.005245  d :     0.020650
      dxz     :     0.001565
      dyz     :     0.008547
      dx2y2   :     0.005893
      dxy     :    -0.000599

  6 O s       :     3.704502  s :     3.704502
      pz      :     1.584802  p :     4.460000
      px      :     1.202973
      py      :     1.672225
      dz2     :     0.009299  d :     0.027401
      dxz     :     0.005221
      dyz     :     0.006001
      dx2y2   :     0.002012
      dxy     :     0.004867

  7 C s       :     3.317100  s :     3.317100
      pz      :     1.105863  p :     2.937752
      px      :     0.783526
      py      :     1.048363
      dz2     :     0.007689  d :     0.042986
      dxz     :     0.010514
      dyz     :     0.002738
      dx2y2   :     0.012093
      dxy     :     0.009953

  8 H s       :     0.837023  s :     0.837023
      pz      :     0.006365  p :     0.018253
      px      :     0.003625
      py      :     0.008263

  9 H s       :     0.833605  s :     0.833605
      pz      :     0.003750  p :     0.018331
      px      :     0.009234
      py      :     0.005347

 10 H s       :     0.839117  s :     0.839117
      pz      :     0.009977  p :     0.018274
      px      :     0.003675
      py      :     0.004623

 11 H s       :     0.846331  s :     0.846331
      pz      :     0.006286  p :     0.017868
      px      :     0.003419
      py      :     0.008162

 12 H s       :     0.843143  s :     0.843143
      pz      :     0.009841  p :     0.017869
      px      :     0.003564
      py      :     0.004465

 13 H s       :     0.843470  s :     0.843470
      pz      :     0.009827  p :     0.017860
      px      :     0.003461
      py      :     0.004571

 14 H s       :     0.813846  s :     0.813846
      pz      :     0.006394  p :     0.017809
      px      :     0.003232
      py      :     0.008183

 15 H s       :     0.816640  s :     0.816640
      pz      :     0.009881  p :     0.018091
      px      :     0.003624
      py      :     0.004586

 16 H s       :     0.819301  s :     0.819301
      pz      :     0.006694  p :     0.017846
      px      :     0.003283
      py      :     0.007870

 17 H s       :     0.829816  s :     0.829816
      pz      :     0.007365  p :     0.017690
      px      :     0.005992
      py      :     0.004332

 18 H s       :     0.832811  s :     0.832811
      pz      :     0.010500  p :     0.017727
      px      :     0.003567
      py      :     0.003660

 19 H s       :     0.805399  s :     0.805399
      pz      :     0.003920  p :     0.018231
      px      :     0.002604
      py      :     0.011707


------------------------
MULLIKEN OVERLAP CHARGES
------------------------
B(  0-C ,  1-C ) :   0.4907 B(  0-C ,  2-C ) :  -0.1852 B(  0-C ,  8-H ) :   0.8531 
B(  0-C ,  9-H ) :   0.8145 B(  0-C , 10-H ) :   0.8515 B(  0-C , 11-H ) :  -0.0588 
B(  0-C , 12-H ) :  -0.0577 B(  1-C ,  2-C ) :   0.4581 B(  1-C ,  3-C ) :  -0.1344 
B(  1-C ,  8-H ) :  -0.0965 B(  1-C ,  9-H ) :  -0.0897 B(  1-C , 10-H ) :  -0.0824 
B(  1-C , 11-H ) :   0.8357 B(  1-C , 12-H ) :   0.8752 B(  1-C , 13-H ) :  -0.0535 
B(  1-C , 14-H ) :  -0.0745 B(  2-C ,  3-C ) :   0.3692 B(  2-C , 11-H ) :  -0.0737 
B(  2-C , 12-H ) :  -0.1157 B(  2-C , 13-H ) :   0.8070 B(  2-C , 14-H ) :   0.8609 
B(  2-C , 15-H ) :  -0.0959 B(  2-C , 16-H ) :  -0.0515 B(  3-C ,  4-C ) :   0.4814 
B(  3-C ,  5-O ) :  -0.1342 B(  3-C ,  6-O ) :  -0.0616 B(  3-C , 14-H ) :  -0.0593 
B(  3-C , 15-H ) :   0.8663 B(  3-C , 16-H ) :   0.8688 B(  4-C ,  5-O ) :   0.9436 
B(  4-C ,  6-O ) :   0.3895 B(  4-C ,  7-C ) :  -0.2001 B(  4-C , 15-H ) :  -0.0550 
B(  4-C , 16-H ) :  -0.1234 B(  5-O ,  6-O ) :  -0.2260 B(  6-O ,  7-C ) :   0.3525 
B(  6-O , 17-H ) :  -0.0690 B(  6-O , 18-H ) :  -0.0877 B(  6-O , 19-H ) :  -0.0580 
B(  7-C , 17-H ) :   0.7980 B(  7-C , 18-H ) :   0.7979 B(  7-C , 19-H ) :   0.8375 
B(  8-H , 10-H ) :  -0.0518 B( 11-H , 12-H ) :  -0.0541 B( 17-H , 19-H ) :  -0.0519 



                     *******************************
                     * LOEWDIN POPULATION ANALYSIS *
                     *******************************

----------------------
LOEWDIN ATOMIC CHARGES
----------------------
   0 C :   -0.422795
   1 C :   -0.313834
   2 C :   -0.282744
   3 C :   -0.227575
   4 C :    0.355622
   5 O :   -0.433883
   6 O :   -0.603577
   7 C :   -0.045741
   8 H :    0.151380
   9 H :    0.150912
  10 H :    0.150197
  11 H :    0.151347
  12 H :    0.152011
  13 H :    0.157963
  14 H :    0.168671
  15 H :    0.180306
  16 H :    0.177347
  17 H :    0.172980
  18 H :    0.175454
  19 H :    0.185959

-------------------------------
LOEWDIN REDUCED ORBITAL CHARGES
-------------------------------
  0 C s       :     2.973602  s :     2.973602
      pz      :     1.152055  p :     3.385827
      px      :     1.104945
      py      :     1.128828
      dz2     :     0.014888  d :     0.063366
      dxz     :     0.003896
      dyz     :     0.016328
      dx2y2   :     0.011856
      dxy     :     0.016398

  1 C s       :     2.938980  s :     2.938980
      pz      :     1.139722  p :     3.294331
      px      :     1.048924
      py      :     1.105685
      dz2     :     0.015975  d :     0.080522
      dxz     :     0.008278
      dyz     :     0.019419
      dx2y2   :     0.016692
      dxy     :     0.020157

  2 C s       :     2.934188  s :     2.934188
      pz      :     1.142956  p :     3.268972
      px      :     1.024474
      py      :     1.101542
      dz2     :     0.015857  d :     0.079585
      dxz     :     0.008151
      dyz     :     0.019148
      dx2y2   :     0.015888
      dxy     :     0.020540

  3 C s       :     2.923129  s :     2.923129
      pz      :     1.133587  p :     3.230404
      px      :     1.013174
      py      :     1.083643
      dz2     :     0.015192  d :     0.074043
      dxz     :     0.006123
      dyz     :     0.018522
      dx2y2   :     0.013813
      dxy     :     0.020392

  4 C s       :     2.737252  s :     2.737252
      pz      :     0.824468  p :     2.635142
      px      :     0.914934
      py      :     0.895740
      dz2     :     0.055027  d :     0.271983
      dxz     :     0.054404
      dyz     :     0.049615
      dx2y2   :     0.042227
      dxy     :     0.070711

  5 O s       :     3.548700  s :     3.548700
      pz      :     1.494049  p :     4.667812
      px      :     1.703324
      py      :     1.470439
      dz2     :     0.036599  d :     0.217371
      dxz     :     0.032553
      dyz     :     0.059921
      dx2y2   :     0.039679
      dxy     :     0.048619

  6 O s       :     3.469478  s :     3.469478
      pz      :     1.621391  p :     4.665729
      px      :     1.377469
      py      :     1.666869
      dz2     :     0.068206  d :     0.468370
      dxz     :     0.127120
      dyz     :     0.049037
      dx2y2   :     0.120497
      dxy     :     0.103509

  7 C s       :     2.907021  s :     2.907021
      pz      :     1.108201  p :     3.035302
      px      :     0.865434
      py      :     1.061667
      dz2     :     0.019417  d :     0.103418
      dxz     :     0.026042
      dyz     :     0.005353
      dx2y2   :     0.029377
      dxy     :     0.023229

  8 H s       :     0.805243  s :     0.805243
      pz      :     0.015337  p :     0.043377
      px      :     0.008004
      py      :     0.020036

  9 H s       :     0.805555  s :     0.805555
      pz      :     0.008162  p :     0.043533
      px      :     0.022591
      py      :     0.012781

 10 H s       :     0.806462  s :     0.806462
      pz      :     0.024695  p :     0.043340
      px      :     0.008232
      py      :     0.010413

 11 H s       :     0.805592  s :     0.805592
      pz      :     0.015247  p :     0.043061
      px      :     0.008016
      py      :     0.019797

 12 H s       :     0.804964  s :     0.804964
      pz      :     0.024314  p :     0.043025
      px      :     0.008333
      py      :     0.010377

 13 H s       :     0.798830  s :     0.798830
      pz      :     0.024383  p :     0.043207
      px      :     0.008125
      py      :     0.010698

 14 H s       :     0.787408  s :     0.787408
      pz      :     0.015885  p :     0.043922
      px      :     0.007481
      py      :     0.020555

 15 H s       :     0.775731  s :     0.775731
      pz      :     0.024764  p :     0.043963
      px      :     0.008701
      py      :     0.010498

 16 H s       :     0.778682  s :     0.778682
      pz      :     0.016862  p :     0.043970
      px      :     0.007678
      py      :     0.019431

 17 H s       :     0.786293  s :     0.786293
      pz      :     0.017443  p :     0.040726
      px      :     0.012877
      py      :     0.010406

 18 H s       :     0.784333  s :     0.784333
      pz      :     0.024953  p :     0.040213
      px      :     0.006832
      py      :     0.008428

 19 H s       :     0.770771  s :     0.770771
      pz      :     0.008563  p :     0.043270
      px      :     0.006475
      py      :     0.028231


---------------------------------
LOEWDIN BOND ORDERS (THRESH 0.050000)
---------------------------------
B(  0-C ,  1-C ) :   1.1436 B(  0-C ,  2-C ) :   0.0765 B(  0-C ,  8-H ) :   0.9294 
B(  0-C ,  9-H ) :   0.9299 B(  0-C , 10-H ) :   0.9299 B(  1-C ,  2-C ) :   1.1021 
B(  1-C ,  3-C ) :   0.0790 B(  1-C , 11-H ) :   0.8946 B(  1-C , 12-H ) :   0.8953 
B(  2-C ,  3-C ) :   1.0718 B(  2-C ,  4-C ) :   0.0802 B(  2-C , 13-H ) :   0.8885 
B(  2-C , 14-H ) :   0.8813 B(  3-C ,  4-C ) :   0.9232 B(  3-C ,  5-O ) :   0.1799 
B(  3-C ,  6-O ) :   0.1867 B(  3-C , 15-H ) :   0.8641 B(  3-C , 16-H ) :   0.8653 
B(  4-C ,  5-O ) :   2.1702 B(  4-C ,  6-O ) :   1.4570 B(  4-C ,  7-C ) :   0.0880 
B(  5-O ,  6-O ) :   0.4636 B(  5-O ,  7-C ) :   0.0711 B(  6-O ,  7-C ) :   1.3533 
B(  6-O , 17-H ) :   0.1002 B(  6-O , 18-H ) :   0.1001 B(  6-O , 19-H ) :   0.0962 
B(  7-C , 17-H ) :   0.8643 B(  7-C , 18-H ) :   0.8667 B(  7-C , 19-H ) :   0.8486 


------------------------------------------
LOEWDIN REDUCED ORBITAL POPULATIONS PER MO
-------------------------------------------
THRESHOLD FOR PRINTING IS 0.1%%
                      0         1         2         3         4         5   
                 -18.99984 -18.92742 -10.15164 -10.08600 -10.04127 -10.03343
                   2.00000   2.00000   2.00000   2.00000   2.00000   2.00000
                  --------  --------  --------  --------  --------  --------
 2 C  s               0.0       0.0       0.0       0.0       0.0      99.6
 3 C  s               0.0       0.0       0.0       0.0      99.7       0.0
 4 C  s               0.0       0.0      98.9       0.0       0.0       0.0
 5 O  s               0.0      99.9       0.0       0.0       0.0       0.0
 5 O  py              0.0       0.0       0.1       0.0       0.0       0.0
 5 O  dyz             0.0       0.0       0.2       0.0       0.0       0.0
 6 O  s              99.9       0.0       0.0       0.0       0.0       0.0
 6 O  dxz             0.0       0.0       0.2       0.0       0.0       0.0
 6 O  dxy             0.0       0.0       0.0       0.1       0.0       0.0
 7 C  s               0.0       0.0       0.0      99.4       0.0       0.0

                      6         7         8         9        10        11   
                 -10.02963 -10.01866  -1.07277  -0.97542  -0.77804  -0.72917
                   2.00000   2.00000   2.00000   2.00000   2.00000   2.00000
                  --------  --------  --------  --------  --------  --------
 0 C  s               0.0      99.7       0.0       0.0       6.0      12.2
 0 C  pz              0.0       0.0       0.0       0.0       0.1       0.1
 0 C  px              0.0       0.0       0.0       0.0       1.5       0.7
 0 C  py              0.0       0.0       0.0       0.0       0.4       0.4
 1 C  s              99.7       0.0       0.0       0.0      15.8      11.8
 1 C  pz              0.0       0.0       0.0       0.0       0.0       0.1
 1 C  px              0.0       0.1       0.0       0.0       1.0       1.2
 1 C  py              0.0       0.0       0.0       0.0       0.9       0.6
 2 C  s               0.0       0.0       0.1       0.0      21.6       0.4
 2 C  px              0.1       0.0       0.2       0.1       0.0       5.9
 2 C  py              0.0       0.0       0.0       0.0       1.5       0.0
 2 C  dxy             0.0       0.0       0.0       0.0       0.0       0.1
 3 C  s               0.0       0.0       1.0       0.3      16.7       7.8
 3 C  pz              0.0       0.0       0.0       0.1       0.2       0.0
 3 C  px              0.0       0.0       1.6       0.1       1.2       2.0
 3 C  py              0.0       0.0       0.4       0.4       0.8       0.0
 4 C  s               0.0       0.0      16.1       4.3       1.6       3.6
 4 C  pz              0.0       0.0       0.8      10.9       0.3       1.1
 4 C  px              0.0       0.0       4.3       0.6       4.2       2.2
 4 C  py              0.0       0.0       0.1      11.5       2.1       4.1
 4 C  dxz             0.0       0.0       0.4       0.4       0.0       0.0
 4 C  dyz             0.0       0.0       0.7       0.6       0.0       0.0
 4 C  dx2y2           0.0       0.0       0.0       0.6       0.0       0.0
 4 C  dxy             0.0       0.0       0.0       0.3       0.0       0.0
 5 O  s               0.0       0.0      11.4      42.9       0.9       1.4
 5 O  pz              0.0       0.0       1.2       1.2       0.1       0.1
 5 O  px              0.0       0.0       0.0       0.2       0.1       0.1
 5 O  py              0.0       0.0       1.8       2.4       0.1       0.4
 5 O  dxz             0.0       0.0       0.1       0.1       0.1       0.1
 5 O  dyz             0.0       0.0       1.1       0.1       0.1       0.2
 5 O  dx2y2           0.0       0.0       0.2       0.0       0.0       0.2
 5 O  dxy             0.0       0.0       0.0       0.1       0.2       0.2
 6 O  s               0.0       0.0      43.0      15.7       0.1       0.0
 6 O  pz              0.0       0.0       1.4       0.4       0.2       1.4
 6 O  px              0.0       0.0       0.1       0.6       1.8      11.1
 6 O  py              0.0       0.0       1.4       0.2       0.1       0.4
 6 O  dz2             0.0       0.0       0.0       0.2       0.0       0.1
 6 O  dxz             0.0       0.0       0.4       0.2       0.1       0.2
 6 O  dyz             0.0       0.0       0.3       0.6       0.0       0.0
 6 O  dx2y2           0.0       0.0       0.1       0.1       0.1       0.0
 6 O  dxy             0.0       0.0       0.0       0.4       0.0       0.4
 7 C  s               0.0       0.0       4.6       1.8       1.0       9.4
 7 C  pz              0.0       0.0       0.2       0.1       0.0       0.0
 7 C  px              0.0       0.0       4.7       1.1       0.1       0.1
 7 C  py              0.0       0.0       0.7       0.6       0.0       0.1
 7 C  dz2             0.0       0.0       0.1       0.1       0.0       0.0
 7 C  dx2y2           0.0       0.0       0.1       0.1       0.0       0.0
 7 C  dxy             0.0       0.0       0.2       0.1       0.0       0.0
 8 H  s               0.0       0.0       0.0       0.0       0.8       1.9
 8 H  py              0.0       0.0       0.0       0.0       0.0       0.1
 9 H  s               0.0       0.0       0.0       0.0       0.7       1.9
 9 H  px              0.0       0.0       0.0       0.0       0.0       0.1
10 H  s               0.0       0.0       0.0       0.0       0.8       1.9
10 H  pz              0.0       0.0       0.0       0.0       0.1       0.1
11 H  s               0.0       0.0       0.0       0.0       2.0       1.8
11 H  py              0.0       0.0       0.0       0.0       0.1       0.1
12 H  s               0.0       0.0       0.0       0.0       2.0       1.8
12 H  pz              0.0       0.0       0.0       0.0       0.2       0.1
13 H  s               0.0       0.0       0.0       0.0       2.8       0.1
13 H  pz              0.0       0.0       0.0       0.0       0.2       0.0
14 H  s               0.0       0.0       0.0       0.0       2.7       0.1
14 H  pz              0.0       0.0       0.0       0.0       0.1       0.0
14 H  py              0.0       0.0       0.0       0.0       0.2       0.0
15 H  s               0.0       0.0       0.0       0.0       2.3       1.2
15 H  pz              0.0       0.0       0.0       0.0       0.2       0.1
16 H  s               0.0       0.0       0.1       0.0       2.4       1.6
16 H  py              0.0       0.0       0.0       0.0       0.1       0.1
17 H  s               0.0       0.0       0.3       0.1       0.1       1.7
18 H  s               0.0       0.0       0.3       0.2       0.2       2.0
18 H  pz              0.0       0.0       0.0       0.0       0.0       0.2
19 H  s               0.0       0.0       0.4       0.1       0.1       1.6
19 H  py              0.0       0.0       0.0       0.0       0.0       0.1

                     12        13        14        15        16        17   
                  -0.68683  -0.61607  -0.55405  -0.53201  -0.46577  -0.45869
                   2.00000   2.00000   2.00000   2.00000   2.00000   2.00000
                  --------  --------  --------  --------  --------  --------
 0 C  s              10.4      14.3       4.6       0.0       0.2       0.0
 0 C  pz              0.0       0.1       0.6       0.0       0.5       1.7
 0 C  px              0.0       2.1       1.9       0.1       0.7       0.0
 0 C  py              0.1       0.4       4.8       0.1       0.7       0.5
 0 C  dxy             0.0       0.0       0.1       0.0       0.0       0.0
 1 C  s               2.1       2.5      12.8       0.0       0.7       0.0
 1 C  pz              0.1       0.2       0.7       0.1       0.3       5.4
 1 C  px              4.6       7.5       0.2       0.1       1.3       0.0
 1 C  py              0.1       0.2       9.2       0.7       0.0       1.6
 1 C  dxy             0.1       0.2       0.0       0.0       0.0       0.0
 2 C  s               4.4       9.2       7.5       1.1       0.0       0.1
 2 C  pz              0.1       0.1       0.4       0.7       0.2       8.7
 2 C  px              2.7       2.3       2.3       0.2       0.1       0.9
 2 C  py              0.1       0.2       7.1       2.2       4.4       1.4
 2 C  dxy             0.1       0.1       0.1       0.0       0.0       0.0
 3 C  s               6.3       6.9       0.3       2.8       1.9       0.0
 3 C  pz              0.0       0.5       0.4       1.0       0.3      13.3
 3 C  px              1.5       4.4       1.3       1.0       8.6       0.0
 3 C  py              0.2       0.9       3.2       2.5      11.9       0.2
 3 C  dz2             0.0       0.0       0.0       0.1       0.1       0.0
 3 C  dxy             0.0       0.1       0.1       0.0       0.2       0.0
 4 C  s               0.8       1.4       0.5       3.4       2.2       0.3
 4 C  pz              1.3       0.2       0.1       2.6       0.4       6.0
 4 C  px              2.6       3.7       0.1       1.2      12.0       1.1
 4 C  py              0.3       1.7       0.8       0.5       0.2       1.7
 4 C  dxy             0.1       0.1       0.0       0.0       0.0       0.0
 5 O  s               0.0       0.4       0.1       2.1       1.0       2.1
 5 O  pz              0.0       0.0       0.0       2.0       0.0       0.0
 5 O  px              0.1       0.3       0.0       0.3       9.0       0.0
 5 O  py              0.0       0.3       0.2       0.8       1.9       6.5
 5 O  dz2             0.0       0.1       0.0       0.1       0.1       0.5
 5 O  dxz             0.0       0.0       0.0       0.0       0.6       0.0
 5 O  dyz             0.1       0.0       0.0       0.3       0.0       0.0
 5 O  dx2y2           0.2       0.0       0.1       0.0       0.0       0.1
 5 O  dxy             0.1       0.2       0.0       0.0       0.6       0.0
 6 O  s               0.9       1.2       0.5       4.8       0.7       0.1
 6 O  pz              2.0       0.0       0.7       8.9       7.0      11.9
 6 O  px             11.6       0.1       0.6      13.5       0.1       4.3
 6 O  py              0.3       0.1       0.0       2.9       3.7       0.7
 6 O  dz2             0.5       0.2       0.0       0.2       0.0       0.4
 6 O  dxz             0.0       0.3       0.1       0.1       1.1       0.1
 6 O  dyz             0.0       0.0       0.0       0.1       0.2       0.0
 6 O  dx2y2           0.6       0.8       0.1       0.1       0.7       0.0
 6 O  dxy             1.0       0.3       0.1       0.2       0.3       0.0
 7 C  s              18.2       4.3       0.8       4.8       0.1       0.0
 7 C  pz              0.1       0.0       0.0       0.7       6.9       8.3
 7 C  px              0.4       1.2       1.1       9.0       0.5       0.2
 7 C  py              0.0       0.2       0.4       8.2       2.9       2.3
 7 C  dz2             0.0       0.0       0.0       0.1       0.0       0.0
 7 C  dxy             0.0       0.0       0.0       0.5       0.0       0.0
 8 H  s               2.0       4.0       2.9       0.0       0.2       0.5
 8 H  pz              0.1       0.1       0.1       0.0       0.0       0.0
 8 H  py              0.1       0.2       0.1       0.0       0.0       0.0
 9 H  s               2.1       4.7       1.6       0.1       0.2       0.0
 9 H  px              0.1       0.3       0.0       0.0       0.0       0.0
 9 H  py              0.0       0.1       0.1       0.0       0.0       0.0
10 H  s               2.0       4.0       2.9       0.0       0.5       0.3
10 H  pz              0.1       0.3       0.2       0.0       0.0       0.0
11 H  s               0.4       0.7       7.1       0.1       0.1       1.9
11 H  pz              0.0       0.0       0.3       0.0       0.0       0.0
11 H  py              0.0       0.0       0.2       0.0       0.0       0.1
12 H  s               0.4       0.6       7.1       0.1       0.7       0.7
12 H  pz              0.0       0.0       0.5       0.0       0.0       0.0
13 H  s               0.8       2.5       4.8       1.3       0.0       1.3
13 H  pz              0.1       0.2       0.3       0.1       0.0       0.0
14 H  s               0.8       2.3       4.5       0.7       0.8       2.7
14 H  pz              0.0       0.1       0.2       0.0       0.0       0.0
14 H  py              0.1       0.1       0.1       0.0       0.0       0.1
15 H  s               1.4       2.4       0.6       3.0       2.2       2.7
15 H  pz              0.1       0.2       0.0       0.2       0.2       0.0
16 H  s               0.9       2.0       0.5       1.4       5.0       2.9
16 H  pz              0.0       0.1       0.0       0.1       0.2       0.0
16 H  py              0.0       0.1       0.0       0.0       0.1       0.1
17 H  s               4.2       1.6       0.6       3.9       0.1       2.2
17 H  pz              0.2       0.1       0.0       0.1       0.0       0.0
17 H  px              0.1       0.0       0.0       0.0       0.0       0.1
17 H  py              0.0       0.0       0.0       0.1       0.0       0.0
18 H  s               4.8       1.6       0.3       1.4       3.3       2.0
18 H  pz              0.3       0.1       0.0       0.1       0.1       0.0
19 H  s               3.7       1.3       0.5       6.4       1.4       0.6
19 H  py              0.3       0.1       0.0       0.3       0.1       0.0

                     18        19        20        21        22        23   
                  -0.44886  -0.43463  -0.40609  -0.39066  -0.38631  -0.36676
                   2.00000   2.00000   2.00000   2.00000   2.00000   2.00000
                  --------  --------  --------  --------  --------  --------
 0 C  pz              1.6       5.6       2.7       9.3       6.1       5.1
 0 C  px              0.7       0.0      11.9       0.0       8.7       4.3
 0 C  py              0.0       1.4       5.0       4.9       0.3       9.4
 0 C  dz2             0.0       0.0       0.0       0.0       0.0       0.2
 0 C  dxy             0.0       0.0       0.1       0.0       0.1       0.0
 1 C  s               0.0       0.0       0.1       0.0       0.4       0.1
 1 C  pz              4.9      11.3       3.4       5.0       0.3       0.1
 1 C  px              0.3       0.0       2.7       0.7       2.7       2.9
 1 C  py              0.1       2.1       7.3       1.0       4.5       0.0
 2 C  s               0.1       0.0       0.1       0.0       0.5       0.5
 2 C  pz              5.9       7.0       0.2       1.5       3.0       4.2
 2 C  px              0.7       0.8      10.7       0.2       0.5       0.1
 2 C  py              0.1       0.4       0.0       2.6       2.7       5.0
 2 C  dz2             0.0       0.0       0.0       0.0       0.0       0.1
 3 C  s               0.1       0.0       0.0       0.0       0.2       0.1
 3 C  pz              2.0       0.2       5.2      11.1       3.3       0.0
 3 C  px              1.4       0.1       1.0       0.5       9.4       0.7
 3 C  py              1.3       1.1       5.3       2.7       0.2       2.4
 4 C  s               0.2       1.4       0.1       0.5       0.2       0.0
 4 C  pz              1.6       2.0       1.5       1.0       0.0       4.4
 4 C  px              0.4       0.2       0.5       0.9       4.4       2.8
 4 C  py              5.0       1.3       0.7       3.5       0.5       2.9
 4 C  dxz             0.1       0.0       0.0       0.1       0.0       0.1
 4 C  dyz             0.2       0.1       0.0       0.0       0.0       0.0
 4 C  dxy             0.1       0.0       0.0       0.0       0.1       0.0
 5 O  s               2.8       7.6       0.4       2.6       0.4       0.0
 5 O  pz              7.1       5.7       0.0       8.4       0.8       3.5
 5 O  px              0.3       0.8       0.1       0.0       0.3       3.6
 5 O  py              0.5      13.4       3.4       7.7       2.1       5.1
 5 O  dz2             0.3       0.0       0.0       0.1       0.0       0.2
 5 O  dxz             0.0       0.0       0.1       0.0       0.0       0.1
 5 O  dyz             0.1       0.2       0.0       0.1       0.0       0.0
 5 O  dx2y2           0.1       0.1       0.2       0.1       0.0       0.2
 5 O  dxy             0.1       0.0       0.0       0.1       0.1       0.1
 6 O  s               0.5       0.7       0.0       0.2       0.1       0.1
 6 O  pz              2.7       1.7       0.6       0.0       0.2       1.2
 6 O  px              0.1       8.3       0.2       0.1       3.8       0.5
 6 O  py             22.2       2.9       0.3       0.0       0.9       0.1
 6 O  dz2             0.1       0.0       0.2       0.0       0.4       0.5
 6 O  dxz             0.0       0.0       0.8       0.1       0.3       0.6
 6 O  dx2y2           0.9       0.0       0.2       0.2       0.0       0.2
 6 O  dxy             0.0       0.2       0.1       0.2       0.4       0.5
 7 C  s               0.2       0.3       0.0       0.0       0.1       0.0
 7 C  pz              1.8       3.0       8.5       1.4       9.8       6.5
 7 C  px              8.6       2.9       0.6       1.1       5.6       1.3
 7 C  py              8.7       0.8       1.5       5.5       2.3       1.9
 7 C  dz2             0.1       0.0       0.0       0.1       0.2       0.0
 7 C  dxz             0.0       0.0       0.1       0.0       0.0       0.2
 8 H  s               0.3       1.9       0.1       5.5       0.9       0.5
 8 H  py              0.0       0.1       0.0       0.1       0.0       0.0
 9 H  s               0.3       0.0       7.1       0.3       3.6       5.7
 9 H  px              0.0       0.0       0.1       0.0       0.0       0.1
10 H  s               0.4       1.0       2.4       1.6       1.7       5.7
10 H  pz              0.0       0.0       0.1       0.0       0.0       0.2
11 H  s               0.4       3.7       0.2       1.9       0.9       0.1
11 H  py              0.0       0.1       0.0       0.1       0.0       0.0
12 H  s               1.5       1.9       2.7       0.9       0.1       0.0
13 H  s               2.0       1.5       0.0       0.1       0.8       5.4
13 H  pz              0.0       0.0       0.0       0.0       0.0       0.1
13 H  px              0.0       0.0       0.1       0.0       0.0       0.0
14 H  s               0.3       1.8       0.1       1.7       0.1       0.5
15 H  s               0.7       0.3       3.3       2.4       1.2       0.1
16 H  s               1.0       0.2       0.0       5.0       2.0       0.7
16 H  py              0.0       0.0       0.0       0.1       0.1       0.0
17 H  s               6.0       0.0       3.8       0.2       0.0       5.3
17 H  pz              0.1       0.0       0.0       0.0       0.1       0.0
18 H  s               0.2       2.3       2.3       1.7       8.5       1.8
18 H  pz              0.0       0.0       0.0       0.0       0.2       0.0
19 H  s               2.4       0.3       0.3       3.4       2.2       0.6

                     24        25        26        27        28        29   
                  -0.34732  -0.32768  -0.32267  -0.30976  -0.30051  -0.29976
                   2.00000   2.00000   2.00000   2.00000   2.00000   2.00000
                  --------  --------  --------  --------  --------  --------
 0 C  s               0.1       0.0       0.0       0.7       0.1       0.1
 0 C  pz              0.5      12.9       3.9       1.2       4.1       1.7
 0 C  px              3.3       0.6       2.7       2.1       5.1       8.4
 0 C  py             13.8       0.7       0.6      11.7       1.1       0.0
 0 C  dz2             0.0       0.1       0.1       0.1       0.0       0.1
 0 C  dyz             0.1       0.2       0.1       0.0       0.1       0.2
 0 C  dx2y2           0.1       0.0       0.0       0.2       0.2       0.0
 0 C  dxy             0.0       0.0       0.0       0.0       0.2       0.1
 1 C  s               0.0       0.0       0.0       0.7       0.0       0.0
 1 C  pz              0.4       4.2       1.9       1.7      10.2       6.5
 1 C  px              8.2       0.5       1.3       0.1       5.7      10.5
 1 C  py              4.1       0.0       0.3      19.2       3.0       0.0
 1 C  dz2             0.0       0.0       0.1       0.3       0.0       0.1
 1 C  dyz             0.0       0.0       0.0       0.0       0.4       0.4
 1 C  dx2y2           0.0       0.0       0.0       0.5       0.2       0.0
 1 C  dxy             0.0       0.1       0.0       0.0       0.2       0.2
 2 C  s               0.1       0.1       0.1       0.8       0.1       0.1
 2 C  pz              1.0       7.0       1.5       1.8       7.7       5.4
 2 C  px              0.1       1.0       2.7       0.0       7.3      11.6
 2 C  py              8.1       0.6       0.1      16.3       1.8       0.1
 2 C  dz2             0.0       0.0       0.0       0.3       0.0       0.1
 2 C  dyz             0.0       0.1       0.0       0.0       0.3       0.4
 2 C  dx2y2           0.0       0.0       0.0       0.4       0.1       0.0
 2 C  dxy             0.0       0.0       0.0       0.1       0.2       0.2
 3 C  s               0.3       0.1       0.4       0.6       0.1       0.1
 3 C  pz              0.3       9.7       4.6       1.5       1.5       0.9
 3 C  px              0.0       0.4       0.3       3.0       2.6       5.2
 3 C  py              6.7       1.6       2.2       6.1       0.1       1.2
 3 C  dyz             0.0       0.4       0.0       0.0       0.1       0.2
 3 C  dx2y2           0.2       0.0       0.0       0.1       0.1       0.0
 3 C  dxy             0.0       0.0       0.0       0.0       0.1       0.1
 4 C  s               0.1       0.0       0.1       0.0       0.3       0.4
 4 C  pz              2.9       1.8       0.7       0.1       0.3       0.3
 4 C  px              0.7       0.1       0.2       0.1       1.0       0.8
 4 C  py              3.5       0.6       2.5       0.2       0.3       0.5
 4 C  dz2             0.1       0.0       0.1       0.0       0.0       0.0
 4 C  dxz             0.0       0.2       0.0       0.0       0.1       0.0
 4 C  dyz             0.0       0.2       0.1       0.0       0.1       0.1
 4 C  dx2y2           0.1       0.1       0.5       0.1       0.0       0.0
 5 O  s               0.1       0.5       0.7       0.0       0.2       0.1
 5 O  pz              9.2       0.2       4.0       1.4       0.4       0.1
 5 O  px              0.0       0.1       3.5       0.1       0.5       1.1
 5 O  py              1.9       5.2       1.4       0.4       1.2       1.4
 5 O  dz2             0.2       0.0       0.0       0.0       0.1       0.0
 5 O  dyz             0.0       0.1       0.2       0.0       0.0       0.1
 5 O  dx2y2           0.1       0.0       0.0       0.0       0.2       0.0
 6 O  s               0.2       0.4       2.9       0.0       0.3       0.9
 6 O  pz              0.1       1.2      12.3       0.2       0.2       0.6
 6 O  px              0.2       0.1       3.9       0.0       0.0       0.8
 6 O  py              2.0       6.4       9.1       0.2       5.5       5.0
 6 O  dz2             0.2       0.0       0.0       0.0       0.0       0.1
 6 O  dxz             0.0       0.0       0.8       0.0       0.0       0.2
 6 O  dx2y2           0.1       0.1       0.6       0.0       0.3       0.3
 6 O  dxy             0.3       0.5       0.0       0.0       0.0       0.0
 7 C  s               0.0       0.0       0.2       0.0       0.0       0.1
 7 C  pz              0.0       0.5       4.9       0.1       0.2       0.0
 7 C  px              1.4       0.4       1.3       0.0       0.1       0.6
 7 C  py              5.7       3.6       3.7       0.2       1.2       1.2
 7 C  dxz             0.0       0.0       0.4       0.0       0.0       0.0
 7 C  dx2y2           0.1       0.2       0.1       0.0       0.1       0.1
 8 H  s               6.1       5.2       0.3       2.2       4.2       0.8
 8 H  pz              0.1       0.0       0.0       0.1       0.0       0.0
 8 H  py              0.0       0.1       0.0       0.0       0.0       0.0
 9 H  s               0.1       0.5       2.4       0.6       3.9       4.1
 9 H  pz              0.0       0.1       0.0       0.0       0.0       0.0
 9 H  py              0.1       0.0       0.0       0.0       0.0       0.1
10 H  s               0.1       5.2       3.6       2.1       1.2       2.9
11 H  s               0.8       1.2       0.1       4.7       8.7       3.4
11 H  pz              0.0       0.0       0.0       0.2       0.0       0.0
12 H  s               0.4       1.6       1.9       5.2       4.1       6.3
12 H  py              0.0       0.0       0.0       0.1       0.1       0.0
13 H  s               0.0       2.7       0.7       4.8       3.4       4.9
14 H  s               3.4       3.7       0.3       3.1       5.5       3.9
14 H  pz              0.1       0.0       0.0       0.1       0.0       0.0
14 H  px              0.0       0.0       0.0       0.0       0.1       0.1
15 H  s               2.0       5.3       3.3       1.9       0.6       1.5
16 H  s               2.6       6.0       0.2       0.6       0.8       1.5
17 H  s               1.8       0.2       1.7       0.1       0.4       0.0
17 H  py              0.0       0.0       0.1       0.0       0.0       0.0
18 H  s               0.3       1.1       3.8       0.0       0.0       0.0
19 H  s               3.6       3.0       3.2       0.1       0.8       0.8

                     30        31        32        33        34        35   
                  -0.27282  -0.23605  -0.01479   0.06724   0.09791   0.09954
                   2.00000   2.00000   0.00000   0.00000   0.00000   0.00000
                  --------  --------  --------  --------  --------  --------
 0 C  s               0.0       0.0       0.0       0.5       9.4       9.6
 0 C  pz              0.0       0.0       0.0       0.0       0.0       0.2
 0 C  px              0.1       0.3       0.0       0.1       0.7       1.0
 0 C  py              0.0       0.0       0.0       0.2       0.4       0.9
 0 C  dxy             0.0       0.0       0.0       0.0       0.3       0.4
 1 C  s               0.0       0.1       0.1       0.1       7.7      10.4
 1 C  pz              0.1       0.0       0.1       0.1       0.1       0.0
 1 C  px              0.2       0.6       0.4       0.9       2.5       0.2
 1 C  py              0.1       0.0       0.2       0.0       0.4       1.6
 1 C  dz2             0.0       0.0       0.0       0.0       0.0       0.2
 1 C  dxy             0.0       0.0       0.0       0.2       0.2       0.0
 2 C  s               0.0       0.1       1.4       1.2       0.6       9.1
 2 C  pz              0.3       0.1       0.0       0.3       0.0       0.4
 2 C  px              0.2       0.3       1.4       2.9       7.0       1.2
 2 C  py              0.2       0.0       1.1       0.7       0.3       1.3
 2 C  dz2             0.0       0.0       0.0       0.0       0.1       0.1
 2 C  dxy             0.0       0.0       0.0       0.2       0.9       0.2
 3 C  s               0.0       0.5       0.1       6.9       1.3       1.8
 3 C  pz              0.2       0.3       0.0       0.1       0.1       0.2
 3 C  px              0.1       4.3       0.7       1.7       3.3       0.5
 3 C  py              0.0       2.5       0.0       0.5       0.6       1.6
 3 C  dz2             0.0       0.0       0.2       0.0       0.0       0.1
 3 C  dxz             0.0       0.0       0.7       0.0       0.0       0.0
 3 C  dyz             0.0       0.0       0.2       0.1       0.0       0.3
 3 C  dx2y2           0.0       0.1       0.4       0.1       0.2       0.0
[...]
 2 C  dxy             0.3       0.0       0.0       0.0       0.0       0.0
 3 C  s               0.8       0.0       0.0       0.0       6.0      22.1
 3 C  px              0.9       0.0       0.1       0.0       0.0       0.0
 3 C  py              3.2       0.0       0.1       0.0       0.0       0.0
 3 C  dz2             4.7       0.0       0.0       0.0       0.0       0.0
 3 C  dxz             0.4       0.0       0.0       0.0       0.0       0.0
 3 C  dyz             0.5       0.0       0.2       0.1       0.0       0.0
 3 C  dx2y2           2.8       0.0       0.1       0.0       0.0       0.0
 3 C  dxy             1.3       0.1       0.2       0.0       0.0       0.0
 4 C  s               1.4       0.2       2.7       5.2       0.1       0.0
 4 C  pz              0.4       0.6       2.9       2.8       0.0       0.0
 4 C  px              0.3       0.4       3.4       0.2       0.0       0.0
 4 C  py              0.6       0.3       0.7       5.0       0.0       0.0
 4 C  dz2             4.0       0.1       0.7       0.0       0.0       0.0
 4 C  dxz             0.0       0.9       6.6       0.3       0.0       0.0
 4 C  dyz             1.2       0.2       1.5       4.1       0.0       0.0
 4 C  dx2y2           3.2       0.1       0.6       1.8       0.0       0.0
 4 C  dxy             5.1       0.5       3.4       0.4       0.0       0.0
 5 O  s               1.3       1.0       0.6      18.4       0.0       0.0
 5 O  pz              1.8       0.5       0.0       7.8       0.0       0.0
 5 O  px              2.3       0.1       0.3       0.7       0.0       0.0
 5 O  py              0.1       0.4       0.3      13.6       0.0       0.0
 5 O  dz2             2.0       0.1       0.6       0.0       0.0       0.0
 5 O  dxz             4.9       0.0       0.1       1.1       0.0       0.0
 5 O  dyz             0.8       1.2       0.0      22.0       0.0       0.0
 5 O  dx2y2           0.5       0.5       0.1       9.3       0.0       0.0
 5 O  dxy             5.7       0.0       1.6       1.8       0.0       0.0
 6 O  s               3.9      23.8       6.7       0.8       0.0       0.0
 6 O  pz              2.1       0.4       8.5       0.1       0.0       0.0
 6 O  px              0.0       7.8      21.4       0.5       0.0       0.0
 6 O  py              2.3       6.0       0.4       0.2       0.0       0.0
 6 O  dz2             0.2       4.7       2.1       0.5       0.0       0.0
 6 O  dxz             0.0       4.8      13.1       0.1       0.0       0.0
 6 O  dyz             3.9       0.4       4.0       0.0       0.0       0.0
 6 O  dx2y2           1.9      10.4       0.6       0.5       0.0       0.0
 6 O  dxy             0.1       6.7      10.2       0.9       0.0       0.0
 7 C  s               0.1       1.8       0.6       0.2       2.0      18.6
 7 C  px              0.0       6.8       1.3       0.3       0.0       0.0
 7 C  py              0.0       1.2       0.5       0.1       0.0       0.0
 7 C  dz2             0.1       3.5       0.5       0.1       0.0       0.0
 7 C  dxz             0.5       0.3       0.0       0.0       0.0       0.0
 7 C  dx2y2           0.4       2.9       0.9       0.1       0.0       0.0
 7 C  dxy             0.2       7.0       1.1       0.3       0.0       0.0
11 H  px              0.2       0.0       0.0       0.0       0.0       0.0
11 H  py              0.1       0.0       0.0       0.0       0.0       0.0
12 H  s               0.3       0.0       0.0       0.0       0.0       0.0
12 H  pz              0.8       0.0       0.0       0.0       0.0       0.0
13 H  s               1.2       0.0       0.0       0.0       0.0       0.0
13 H  pz              3.0       0.0       0.0       0.0       0.0       0.0
13 H  py              0.3       0.0       0.0       0.0       0.0       0.0
14 H  s               0.3       0.0       0.0       0.0       0.0       0.0
14 H  pz              0.6       0.0       0.0       0.0       0.0       0.0
14 H  py              0.4       0.0       0.0       0.0       0.0       0.0
15 H  s               0.8       0.0       0.0       0.0       0.0       0.0
15 H  pz              2.3       0.0       0.0       0.0       0.0       0.0
15 H  py              0.2       0.0       0.0       0.0       0.0       0.0
16 H  s               1.3       0.0       0.1       0.0       0.0       0.0
16 H  pz              1.9       0.0       0.0       0.0       0.0       0.0
16 H  px              0.1       0.0       0.1       0.0       0.0       0.0
16 H  py              1.9       0.1       0.0       0.0       0.0       0.0
17 H  s               0.0       0.4       0.0       0.0       0.0       0.0
17 H  pz              0.0       0.7       0.0       0.0       0.0       0.0
17 H  py              0.1       0.4       0.0       0.0       0.0       0.0
18 H  s               0.1       0.3       0.1       0.0       0.0       0.0
18 H  pz              0.3       0.6       0.1       0.0       0.0       0.0
18 H  px              0.0       0.1       0.0       0.0       0.0       0.0
18 H  py              0.0       0.2       0.0       0.0       0.0       0.0
19 H  s               0.1       0.2       0.1       0.0       0.0       0.0
19 H  px              0.5       0.2       0.1       0.0       0.0       0.0
19 H  py              0.1       0.2       0.1       0.0       0.0       0.0

                    216       217       218       219       220       221   
                  21.97728  21.99044  22.04336  22.26242  43.66255  43.70042
                   0.00000   0.00000   0.00000   0.00000   0.00000   0.00000
                  --------  --------  --------  --------  --------  --------
 0 C  s              10.7       3.0       1.7       0.0       0.0       0.0
 1 C  s              35.7      31.1       3.0       0.0       0.0       0.0
 2 C  s               0.7      56.2       5.3       1.2       0.0       0.0
 3 C  s               3.8       0.2      67.4       0.0       0.0       0.0
 4 C  s               0.3       1.2       0.0      97.3       0.0       0.0
 5 O  s               0.0       0.0       0.0       0.2      77.8      22.1
 6 O  s               0.0       0.0       0.1       0.2      22.1      77.8
 7 C  s              48.5       8.1      22.1       0.4       0.0       0.0



                      *****************************
                      * MAYER POPULATION ANALYSIS *
                      *****************************

  NA   - Mulliken gross atomic population
  ZA   - Total nuclear charge
  QA   - Mulliken gross atomic charge
  VA   - Mayer's total valence
  BVA  - Mayer's bonded valence
  FA   - Mayer's free valence

  ATOM       NA         ZA         QA         VA         BVA        FA
  0 C      6.4660     6.0000    -0.4660     3.7968     3.7968    -0.0000
  1 C      6.2352     6.0000    -0.2352     3.6669     3.6669     0.0000
  2 C      6.2744     6.0000    -0.2744     3.6922     3.6922    -0.0000
  3 C      6.3318     6.0000    -0.3318     3.8365     3.8365    -0.0000
  4 C      5.5926     6.0000     0.4074     3.7739     3.7739    -0.0000
  5 O      8.4339     8.0000    -0.4339     1.9342     1.9342    -0.0000
  6 O      8.1919     8.0000    -0.1919     1.9587     1.9587     0.0000
  7 C      6.2978     6.0000    -0.2978     3.7734     3.7734    -0.0000
  8 H      0.8553     1.0000     0.1447     0.9643     0.9643    -0.0000
  9 H      0.8519     1.0000     0.1481     0.9622     0.9622    -0.0000
 10 H      0.8574     1.0000     0.1426     0.9649     0.9649    -0.0000
 11 H      0.8642     1.0000     0.1358     0.9617     0.9617    -0.0000
 12 H      0.8610     1.0000     0.1390     0.9627     0.9627    -0.0000
 13 H      0.8613     1.0000     0.1387     0.9646     0.9646    -0.0000
 14 H      0.8317     1.0000     0.1683     0.9575     0.9575    -0.0000
 15 H      0.8347     1.0000     0.1653     0.9590     0.9590     0.0000
 16 H      0.8371     1.0000     0.1629     0.9618     0.9618    -0.0000
 17 H      0.8475     1.0000     0.1525     0.9562     0.9562    -0.0000
 18 H      0.8505     1.0000     0.1495     0.9565     0.9565     0.0000
 19 H      0.8236     1.0000     0.1764     0.9581     0.9581    -0.0000

  Mayer bond orders larger than 0.100000
B(  0-C ,  1-C ) :   0.9031 B(  0-C ,  8-H ) :   0.9825 B(  0-C ,  9-H ) :   0.9751 
B(  0-C , 10-H ) :   0.9826 B(  1-C ,  2-C ) :   0.9189 B(  1-C , 11-H ) :   0.9684 
B(  1-C , 12-H ) :   0.9792 B(  2-C ,  3-C ) :   0.9183 B(  2-C , 13-H ) :   0.9621 
B(  2-C , 14-H ) :   0.9685 B(  3-C ,  4-C ) :   0.9708 B(  3-C , 15-H ) :   0.9651 
B(  3-C , 16-H ) :   0.9814 B(  4-C ,  5-O ) :   1.8142 B(  4-C ,  6-O ) :   1.0539 
B(  6-O ,  7-C ) :   0.8465 B(  7-C , 17-H ) :   0.9594 B(  7-C , 18-H ) :   0.9700 
B(  7-C , 19-H ) :   0.9651 

-------
TIMINGS
-------

Total SCF time: 0 days 0 hours 0 min 25 sec 

Total time                  ....      25.060 sec
Sum of individual times     ....      24.526 sec  ( 97.9%)

SCF preparation             ....       0.173 sec  (  0.7%)
Fock matrix formation       ....      23.323 sec  ( 93.1%)
  Startup                   ....       0.073 sec  (  0.3% of F)
  Split-RI-J                ....       4.499 sec  ( 19.3% of F)
  XC integration            ....      18.173 sec  ( 77.9% of F)
    Basis function eval.    ....       3.290 sec  ( 18.1% of XC)
    Density eval.           ....       5.502 sec  ( 30.3% of XC)
    XC-Functional eval.     ....       2.468 sec  ( 13.6% of XC)
    XC-Potential eval.      ....       5.864 sec  ( 32.3% of XC)
Diagonalization             ....       0.000 sec  (  0.0%)
Density matrix formation    ....       0.254 sec  (  1.0%)
Total Energy calculation    ....       0.035 sec  (  0.1%)
Population analysis         ....       0.131 sec  (  0.5%)
Orbital Transformation      ....       0.065 sec  (  0.3%)
Orbital Orthonormalization  ....       0.000 sec  (  0.0%)
DIIS solution               ....       0.487 sec  (  1.9%)
  MO trafo                  ....       0.000 sec  (  0.0 % of DIIS)
  Orb grad                  ....       0.000 sec  (  0.0 % of DIIS)
  Energy W gradient         ....       0.000 sec  (  0.0 % of DIIS)
  DIIS error                ....       0.016 sec  (  3.3 % of DIIS)
  DIIS work                 ....       0.417 sec  ( 85.6 % of DIIS)
  Form Q                    ....       0.000 sec  (  0.0 % of DIIS)
  Form QpQm                 ....       0.000 sec  (  0.0 % of DIIS)
  Exp/Cayley                ....       0.000 sec  (  0.0 % of DIIS)
  Orb update                ....       0.000 sec  (  0.0 % of DIIS)
  Wake-sleep                ....       0.024 sec  (  4.9 % of DIIS)
SOSCF solution              ....       0.057 sec  (  0.2%)
  MO trafo                  ....       0.046 sec  ( 79.5 % of SOSCF)
  Orb grad                  ....       0.001 sec  (  0.9 % of SOSCF)
  Rot update                ....       0.000 sec  (  0.1 % of SOSCF)
  Step                      ....       0.011 sec  ( 19.4 % of SOSCF)
Finished LeanSCF after  25.1 sec

Maximum memory used throughout the entire LEANSCF-calculation: 23.3 MB


-------------------------------------------------------------------------------
                          DFT DISPERSION CORRECTION                            
                                                                               
                                DFTD4 V3.4.0                                   
-------------------------------------------------------------------------------
The R2SCAN3C composite method is recognized
Using three-body term ABC
Active option DFTDOPT                   ...         5   

-------------------------   ----------------
Dispersion correction           -0.004876615
-------------------------   ----------------

------------------   -----------------
gCP correction             0.011957043
------------------   -----------------

-------------------------   --------------------
FINAL SINGLE POINT ENERGY      -386.230212045250
-------------------------   --------------------


------------------------------------------------------------------------------
                              ORCA PROPERTY CALCULATIONS
------------------------------------------------------------------------------

GBWName                                 ... sp_gas.gbw
Number of atoms                         ...     20
Number of basis functions               ...    222
Max core memory                         ...   1024 MB

Electric properties:
Dipole moment                           ... YES
Quadrupole moment                       ...  NO
Static polarizability (Dipole/Dipole)   ...  NO
Static polarizability (Dipole/Quad.)    ...  NO
Static polarizability (Quad./Quad.)     ...  NO
Static polarizability (Velocity)        ...  NO

Atomic electric properties:
Dipole moment                           ...  NO
Quadrupole moment                       ...  NO
Static polarizability                   ...  NO

Choice of electric origin               ... Center of mass
Position of electric origin             ...    -0.000038    -0.000005     0.000008

General magnetic properties:
Magnetizability                         ...  NO

EPR properties:
g-Tensor (aka g-matrix)                 ...  NO
Zero-Field splitting spin-orbit         ...  NO
Zero-field splitting spin-spin          ...  NO
Hyperfine couplings                     ...  NO (   0 nuclei)
Quadrupole couplings                    ...  NO (   0 nuclei)
Contact density                         ...  NO (   0 nuclei)

NMR properties:
Chemical shifts                         ...  NO (   0 nuclei)
Spin-rotation constants                 ...  NO (   0 nuclei)
Spin-spin couplings                     ...  NO (   0 nuclei,    0 pairs)

Choice of magnetic origin               ... GIAO
Position of magnetic origin             ...     0.000000     0.000000     0.000000

Properties with geometric perturbations:
SCF Hessian                             ...  NO
IR spectrum                             ...  NO
VCD spectrum                            ...  NO
X-ray spectroscopy properties:
SCF XES/XAS/RIXS spectra                ...  NO


-------------
DIPOLE MOMENT
-------------

Method             : SCF
Type of density    : Electron Density
Multiplicity       :   1
Irrep              :   0
Energy             :  -386.2372924734225990 Eh
Relativity type    : 
Basis              : AO
                                X                 Y                 Z
Electronic contribution:      9.362927182       0.323448110      -1.963448996
Nuclear contribution   :     -9.333048765      -0.826739004       2.517649498
                        -----------------------------------------
Total Dipole Moment    :      0.029878417      -0.503290894       0.554200502
                        -----------------------------------------
Magnitude (a.u.)       :      0.749221356
Magnitude (Debye)      :      1.904369344



--------------------
Rotational spectrum 
--------------------
 
Rotational constants in cm-1:             0.199511             0.025542             0.024618 
Rotational constants in MHz :          5981.179630           765.740141           738.034064 

Dipole components along the rotational axes: 
x,y,z [a.u.] :     0.011104    -0.746965     0.057033 
x,y,z [Debye]:     0.028224    -1.898634     0.144967 

 

Dipole moment calculation done in   0.0 sec 

Maximum memory used throughout the entire PROP-calculation: 13.4 MB

--------------------------------
SUGGESTED CITATIONS FOR THIS RUN
--------------------------------

Below you find a list of papers that are relevant to this ORCA run
We neither can nor want to force you to cite these papers, but we appreciate if you do
You receive ORCA, which is the product of decades of hard work by many enthusiastic individuals, for free
The only thing we kindly ask in return is that you cite our papers,
We deeply appreciate it, if you show your appreciation for ORCA by not just citing the generic ORCA reference.

Please note that relegating all ORCA citations to the supporting information does *not* help us.
SI sections are not indexed - citations you put there will not count into any citation statistics
But we need these citations in order to attract the funding resources that allow us to do what we are doing

Therefore, if you are a happy ORCA user, please consider citing a few of the papers listed below in the main body of your paper

In addition to the list printed below, the program has created the file sp_gas.bibtex that contains the list in bibtex format
You can import this file easily into all common literature databanks and citation aid programs


List of essential papers. We consider these as the minimum necessary citations

  1. Neese,F.
     Software update: the ORCA program system, version 5.0
     WIRES Comput. Molec. Sci., 2022 12(1)e1606
     doi.org/10.1002/wcms.1606
  2. Grimme,S.; Hansen,A.; Ehlert,S.; Mewes,J.
     r2SCAN-3c: A 'Swiss army knife' composite electronic-structure method
     J. Chem. Phys., 2021 154 064103
     doi.org/10.1063/5.0040021

List of papers to cite with high priority. The work reported in these papers was absolutely
necessary for this run to complete.
Our perspective: the developers of density functionals and basis sets usually get cited in chemistry papers
Good! But without the algorithms to do something with them, the functionals or basis sets would not do anything.
Hence, in our opinion, the algorithm design and method developments papers are equally worthy of getting cited

  1. Neese,F.
     An improvement of the resolution of the identity approximation for the formation of the Coulomb matrix
     J. Comp. Chem., 2003 24(14)1740-1747
     doi.org/10.1002/jcc.10318
  2. Neese,F.
     The SHARK Integral Generation and Digestion System
     J. Comp. Chem., 2022  1-16
     doi.org/10.1002/jcc.26942
  3. Lehtola,S.; Steigemann,C.; Oliveira,M.; Marques,M.
     Recent developments in Libxc - A comprehensive library of functionals for density functional theory
     Software X, 2018 7 
     doi.org/10.1016/j.softx.2017.11.002
  4. Caldeweyher,E.; Bannwarth,C.; Grimme,S.
     Extension of the D3 dispersion coefficient model
     J. Chem. Phys., 2017 147 034112-XXXX
     doi.org/10.1063/1.4993215
  5. Caldeweyher,E.; Ehlert,S.; Hansen,A.; Neugebauer,H.; Spicher,S.; Bannwarth,C.; Grimme,S.
     A generally applicable atomic-charge dependent London dispersion correction
     J. Chem. Phys., 2019 150 154122-XXXX
     doi.org/10.1063/1.5090222
  6. Caldeweyher,E.; Mewes,J.; Ehlert,S.; Grimme,S.
     Extension and evaluation of the D4 London-dispersion model for periodic systems
     Phys. Chem. Chem. Phys., 2020 22(16)8499-8512
     doi.org/10.1039/D0CP00502A

List of suggested additional citations. These are papers that are important in the 'surrounding' of 
of this run, or papers that preceded the highly important papers. If you like your results we are grateful for a citation.

  1. Neese,F.
     The ORCA program system
     WIRES Comput. Molec. Sci., 2012 2(1)73-78
     doi.org/10.1002/wcms.81
  2. Neese,F.
     Software update: the ORCA program system, version 4.0
     WIRES Comput. Molec. Sci., 2018 8(1)1-6
     doi.org/10.1002/wcms.1327
  3. Neese,F.; Wennmohs,F.; Becker,U.; Riplinger,C.
     The ORCA quantum chemistry program package
     J. Chem. Phys., 2020 152 Art. No. L224108
     doi.org/10.1063/5.0004608

List of optional additional citations

  1. Neese,F.
     Approximate second-order SCF convergence for spin unrestricted wavefunctions
     Chem. Phys. Lett., 2000 325(1-3)93-98
     doi.org/10.1016/s0009-2614(00)00662-x

Timings for individual modules:

Sum of individual times          ...       26.761 sec (=   0.446 min)
Startup calculation              ...        1.190 sec (=   0.020 min)   4.4 %
SCF iterations                   ...       25.462 sec (=   0.424 min)  95.1 %
Property calculations            ...        0.109 sec (=   0.002 min)   0.4 %
                             ****ORCA TERMINATED NORMALLY****
TOTAL RUN TIME: 0 days 0 hours 0 minutes 27 seconds 525 msec
