
                                 *****************
                                 * O   R   C   A *
                                 *****************

                                            #,                                       
                                            ###                                      
                                            ####                                     
                                            #####                                    
                                            ######                                   
                                           ########,                                 
                                     ,,################,,,,,                         
                               ,,#################################,,                 
                          ,,##########################################,,             
                       ,#########################################, ''#####,          
                    ,#############################################,,   '####,        
                  ,##################################################,,,,####,       
                ,###########''''           ''''###############################       
              ,#####''   ,,,,##########,,,,          '''####'''          '####       
            ,##' ,,,,###########################,,,                        '##       
           ' ,,###''''                  '''############,,,                           
         ,,##''                                '''############,,,,        ,,,,,,###''
      ,#''                                            '''#######################'''  
     '                                                          ''''####''''         
             ,#######,   #######,   ,#######,      ##                                
            ,#'     '#,  ##    ##  ,#'     '#,    #''#        ,####,   ,####,        
            ##       ##  ##   ,#'  ##            #'  '#       #'       #'  '#        
            ##       ##  #######   ##           ,######,      #####,   #    #        
            '#,     ,#'  ##    ##  '#,     ,#' ,#      #,     #,   #   #,  ,#        
             '#######'   ##     ##  '#######'  #'      '#     '####' # '####'        



                #########################################################
                #                        -***-                          #
                #          Department of theory and spectroscopy        #
                #                                                       #
                #                      Frank Neese                      #
                #                                                       #
                #     Directorship, Architecture, Infrastructure        #
                #                    SHARK, DRIVERS                     #
                #        Core code/Algorithms in most modules           #
                #                                                       #
                #        Max Planck Institute fuer Kohlenforschung      #
                #                Kaiser Wilhelm Platz 1                 #
                #                 D-45470 Muelheim/Ruhr                 #
                #                      Germany                          #
                #                                                       #
                #                  All rights reserved                  #
                #                        -***-                          #
                #########################################################


                         Program Version 6.0.0  -   RELEASE  -


 With contributions from (in alphabetic order):
   Daniel Aravena         : Magnetic Suceptibility
   Michael Atanasov       : Ab Initio Ligand Field Theory (pilot matlab implementation)
   Alexander A. Auer      : GIAO ZORA, VPT2 properties, NMR spectrum
   Ute Becker             : All parallelization in ORCA, NUMFREQ, NUMCALC
   Giovanni Bistoni       : ED, misc. LED, open-shell LED, HFLD
   Martin Brehm           : Molecular dynamics
   Dmytro Bykov           : pre 5.0 version of the SCF Hessian
   Marcos Casanova-Páez   : Triplet and SCS-CIS(D). UHF-(DLPNO)-IP/EA/STEOM-CCSD. UHF-CVS-IP/STEOM-CCSD
   Vijay G. Chilkuri      : MRCI spin determinant printing, contributions to CSF-ICE
   Pauline Colinet        : FMM embedding
   Dipayan Datta          : RHF DLPNO-CCSD density
   Achintya Kumar Dutta   : EOM-CC, STEOM-CC
   Nicolas Foglia         : Exact transition moments, OPA infrastructure, MCD improvements
   Dmitry Ganyushin       : Spin-Orbit,Spin-Spin,Magnetic field MRCI
   Miquel Garcia          : C-PCM and meta-GGA Hessian, CCSD/C-PCM, Gaussian charge scheme
   Tiago L. C. Gouveia    : GS-ROHF, GS-ROCIS
   Yang Guo               : DLPNO-NEVPT2, F12-NEVPT2, CIM, IAO-localization
   Andreas Hansen         : Spin unrestricted coupled pair/coupled cluster methods
   Ingolf Harden          : AUTO-CI MPn and infrastructure 
   Benjamin Helmich-Paris : MC-RPA, TRAH-(SCF,CASSCF), AVAS, COSX integrals, SCF dyn. polar.
   Lee Huntington         : MR-EOM, pCC
   Robert Izsak           : Overlap fitted RIJCOSX, COSX-SCS-MP3, EOM
   Riya Kayal             : Wick's Theorem for AUTO-CI, AUTO-CI UHF-CCSDT
   Emily Kempfer          : AUTO-CI, RHF CISDT and CCSDT
   Christian Kollmar      : KDIIS, OOCD, Brueckner-CCSD(T), CCSD density, CASPT2, CASPT2-K, improved NEVPT2
   Axel Koslowski         : Symmetry handling
   Simone Kossmann        : Meta GGA functionals, TD-DFT gradient, OOMP2, (MP2 Hessian; deprecated post 5.0)
   Lucas Lang             : DCDCAS
   Marvin Lechner         : AUTO-CI (C++ implementation), FIC-MRCC
   Spencer Leger          : CASSCF response
   Dagmar Lenk            : GEPOL surface, SMD, ORCA-2-JSON
   Dimitrios Liakos       : Extrapolation schemes; Compound Job, initial MDCI parallelization
   Dimitrios Manganas     : Further ROCIS development; embedding schemes. LFT, Crystal Embedding
   Dimitrios Pantazis     : SARC Basis sets
   Anastasios Papadopoulos: AUTO-CI, single reference methods and gradients
   Taras Petrenko         : pre 6.0 DFT Hessian and TD-DFT gradient, (ASA, deprecated), ECA, 1-Electron XAS/XES, NRVS
   Peter Pinski           : DLPNO-MP2, DLPNO-MP2 Gradient
   Christoph Reimann      : Effective Core Potentials
   Marius Retegan         : Local ZFS, SOC
   Christoph Riplinger    : Optimizer, TS searches, QM/MM, DLPNO-CCSD(T), (RO)-DLPNO pert. Triples
   Michael Roemelt        : Original ROCIS implementation
   Masaaki Saitow         : Open-shell DLPNO-CCSD energy and density
   Barbara Sandhoefer     : DKH picture change effects
   Kantharuban Sivalingam : CASSCF convergence/infrastructure, NEVPT2 and variants, FIC-MRCI
   Bernardo de Souza      : ESD, SOC TD-DFT
   Georgi Stoychev        : AutoAux, RI-MP2 NMR, DLPNO-MP2 response, X2C
   Van Anh Tran           : RI-MP2 g-tensors
   Willem Van den Heuvel  : Paramagnetic NMR
   Zikuan Wang            : NOTCH, Electric field optimization 
   Frank Wennmohs         : Technical directorship and infrastructure
   Hang Xu                : AUTO-CI-Response properties 


 We gratefully acknowledge several colleagues who have allowed us to
 interface, adapt or use parts of their codes:
   Stefan Grimme, W. Hujo, H. Kruse, P. Pracht,  : VdW corrections, initial TS optimization,
                  C. Bannwarth, S. Ehlert,         DFT functionals, gCP, sTDA/sTD-DF
                  L. Wittmann, M. Mueller
   Ed Valeev, F. Pavosevic, A. Kumar             : LibInt (2-el integral package), F12 methods
   Garnet Chan, S. Sharma, J. Yang, R. Olivares  : DMRG
   Ulf Ekstrom                                   : XCFun DFT Library
   Mihaly Kallay                                 : mrcc  (arbitrary order and MRCC methods)
   Frank Weinhold                                : gennbo (NPA and NBO analysis)
   Simon Mueller                                 : openCOSMO-RS
   Christopher J. Cramer and Donald G. Truhlar   : smd solvation model
   Lars Goerigk                                  : TD-DFT with DH, B97 family of functionals
   V. Asgeirsson, H. Jonsson                     : NEB implementation
   FAccTs GmbH                                   : IRC, NEB, NEB-TS, DLPNO-Multilevel, CI-OPT
                                                   MM, QMMM, 2- and 3-layer-ONIOM, Crystal-QMMM,
                                                   LR-CPCM, SF, NACMEs, symmetry and pop. for TD-DFT,
                                                   nearIR, NL-DFT gradient (VV10), updates on ESD,
                                                   ML-optimized integration grids, MBIS, APM,
                                                   GOAT, DOCKER, SOLVATOR, interface openCOSMO-RS
   S Lehtola, MJT Oliveira, MAL Marques          : LibXC Library
   Liviu Ungur et al                             : ANISO software


 Your calculation uses the libint2 library for the computation of 2-el integrals
 For citations please refer to: http://libint.valeyev.net

 Your ORCA version has been built with support for libXC version: 6.2.2
 For citations please refer to: https://libxc.gitlab.io

 This ORCA versions uses:
   CBLAS   interface :  Fast vector & matrix operations
   LAPACKE interface :  Fast linear algebra routines
   SCALAPACK package :  Parallel linear algebra routines
   Shared memory     :  Shared parallel matrices
   BLAS/LAPACK       :  OpenBLAS 0.3.27  USE64BITINT DYNAMIC_ARCH NO_AFFINITY SkylakeX SINGLE_THREADED
        Core in use  :  SkylakeX
   Copyright (c) 2011-2014, The OpenBLAS Project


Your calculation utilizes the geometrical counterpoise correction gCP
Please cite in your paper:
H.Kruse, S. Grimme J.Chem.Phys., 136, (2012), 154101 
   

Your calculation utilizes the atom-pairwise dispersion correction
based on EEQ partial charges (D4)


Your calculation utilizes the SMD solvation module
Please cite in your paper:
A.V. Marenich, C.J. Cramer, D.G. Truhlar J. Phys. Chem. B, 113, (2009), 6378 

================================================================================

----- Orbital basis set information -----
Your calculation utilizes the basis: def2-mTZVPP
   Stefan Grimme, Andreas Hansen, Sebastian Ehlert, and Jan-Michael Mewes 
   J. Chem. Phys. 154, 064103 (2021). DOI: 10.1063/5.0040021

----- AuxJ basis set information -----
Your calculation utilizes the auxiliary basis: def2/J
   F. Weigend, Phys. Chem. Chem. Phys. 8, 1057 (2006).

================================================================================
                                        WARNINGS
                       Please study these warnings very carefully!
================================================================================

Using LibXC functional ID 497 : Re-regularized SCAN exchange by Furness et al
[ 1]  J. W. Furness, A. D. Kaplan, J. Ning, J. P. Perdew, and J. Sun.,  J. Phys. Chem. Lett. 11, 8208-8215 (2020)
[ 2]  J. W. Furness, A. D. Kaplan, J. Ning, J. P. Perdew, and J. Sun.,  J. Phys. Chem. Lett. 11, 9248-9248 (2020)
Using LibXC functional ID 498 : Re-regularized SCAN correlation by Furness et al
[ 1]  J. W. Furness, A. D. Kaplan, J. Ning, J. P. Perdew, and J. Sun.,  J. Phys. Chem. Lett. 11, 8208-8215 (2020)
[ 2]  J. W. Furness, A. D. Kaplan, J. Ning, J. P. Perdew, and J. Sun.,  J. Phys. Chem. Lett. 11, 9248-9248 (2020)
Using LibXC functional ID 497 : Re-regularized SCAN exchange by Furness et al
[ 1]  J. W. Furness, A. D. Kaplan, J. Ning, J. P. Perdew, and J. Sun.,  J. Phys. Chem. Lett. 11, 8208-8215 (2020)
[ 2]  J. W. Furness, A. D. Kaplan, J. Ning, J. P. Perdew, and J. Sun.,  J. Phys. Chem. Lett. 11, 9248-9248 (2020)
Using LibXC functional ID 498 : Re-regularized SCAN correlation by Furness et al
[ 1]  J. W. Furness, A. D. Kaplan, J. Ning, J. P. Perdew, and J. Sun.,  J. Phys. Chem. Lett. 11, 8208-8215 (2020)
[ 2]  J. W. Furness, A. D. Kaplan, J. Ning, J. P. Perdew, and J. Sun.,  J. Phys. Chem. Lett. 11, 9248-9248 (2020)

================================================================================
                                       INPUT FILE
================================================================================
NAME = sp_solv.inp
|  1> ! r2scan-3c def2/J RI DEFGRID2 scfconv6 printgap
|  2> %output
|  3>     printlevel normal
|  4> end
|  5> %cpcm
|  6>     smd true
|  7>     smdsolvent "water"
|  8> end
|  9> * xyz 0 1
| 10> C -3.8301766721 0.3208396193 0.3904489742
| 11> C -2.6691765043 -0.5879942083 0.0047841937
| 12> C -1.3357398706 0.1527609554 0.0656999716
| 13> C -0.1627314551 -0.7612133377 -0.307417507
| 14> C 1.1209480367 0.024701624 -0.3365963876
| 15> O 1.3318982776 0.9845941129 -1.0484093113
| 16> O 2.0034813802 -0.445205267 0.5368258691
| 17> C 3.2731655698 0.2070692556 0.6386709419
| 18> H -3.8854588655 1.173458045 -0.2824699398
| 19> H -4.7709535312 -0.2208731338 0.3383461964
| 20> H -3.7026431118 0.6933019919 1.4042104066
| 21> H -2.6369070808 -1.4437978127 0.6815866522
| 22> H -2.8252998591 -0.9670496514 -1.0068387268
| 23> H -1.1818028539 0.5428171256 1.074169302
| 24> H -1.3503009809 1.0016056269 -0.6213878137
| 25> H -0.3313013851 -1.1681187909 -1.3059850574
| 26> H -0.0607682952 -1.5773953241 0.4063867583
| 27> H 3.9516610401 -0.2031166961 -0.1094105026
| 28> H 3.6372330092 0.0009572295 1.6407567222
| 29> H 3.1556472514 1.2784578392 0.4723061991
| 30> *
| 31> 
| 32>                          ****END OF INPUT****
================================================================================

                       ****************************
                       * Single Point Calculation *
                       ****************************

---------------------------------
CARTESIAN COORDINATES (ANGSTROEM)
---------------------------------
  C     -3.830177    0.320840    0.390449
  C     -2.669177   -0.587994    0.004784
  C     -1.335740    0.152761    0.065700
  C     -0.162731   -0.761213   -0.307418
  C      1.120948    0.024702   -0.336596
  O      1.331898    0.984594   -1.048409
  O      2.003481   -0.445205    0.536826
  C      3.273166    0.207069    0.638671
  H     -3.885459    1.173458   -0.282470
  H     -4.770954   -0.220873    0.338346
  H     -3.702643    0.693302    1.404210
  H     -2.636907   -1.443798    0.681587
  H     -2.825300   -0.967050   -1.006839
  H     -1.181803    0.542817    1.074169
  H     -1.350301    1.001606   -0.621388
  H     -0.331301   -1.168119   -1.305985
  H     -0.060768   -1.577395    0.406387
  H      3.951661   -0.203117   -0.109411
  H      3.637233    0.000957    1.640757
  H      3.155647    1.278458    0.472306

----------------------------
CARTESIAN COORDINATES (A.U.)
----------------------------
  NO LB      ZA    FRAG     MASS         X           Y           Z
   0 C     6.0000    0    12.011   -7.237985    0.606299    0.737842
   1 C     6.0000    0    12.011   -5.044013   -1.111148    0.009041
   2 C     6.0000    0    12.011   -2.524183    0.288676    0.124155
   3 C     6.0000    0    12.011   -0.307518   -1.438485   -0.580935
   4 C     6.0000    0    12.011    2.118285    0.046679   -0.636075
   5 O     8.0000    0    15.999    2.516923    1.860613   -1.981206
   6 O     8.0000    0    15.999    3.786031   -0.841316    1.014454
   7 C     6.0000    0    12.011    6.185387    0.391304    1.206913
   8 H     1.0000    0     1.008   -7.342453    2.217514   -0.533791
   9 H     1.0000    0     1.008   -9.015796   -0.417390    0.639382
  10 H     1.0000    0     1.008   -6.996981    1.310151    2.653573
  11 H     1.0000    0     1.008   -4.983032   -2.728382    1.288012
  12 H     1.0000    0     1.008   -5.339043   -1.827459   -1.902649
  13 H     1.0000    0     1.008   -2.233284    1.025776    2.029886
  14 H     1.0000    0     1.008   -2.551699    1.892760   -1.174253
  15 H     1.0000    0     1.008   -0.626069   -2.207425   -2.467954
  16 H     1.0000    0     1.008   -0.114835   -2.980845    0.767960
  17 H     1.0000    0     1.008    7.467557   -0.383835   -0.206756
  18 H     1.0000    0     1.008    6.873374    0.001809    3.100581
  19 H     1.0000    0     1.008    5.963309    2.415935    0.892529

--------------------------------
INTERNAL COORDINATES (ANGSTROEM)
--------------------------------
 C      0   0   0     0.000000000000     0.00000000     0.00000000
 C      1   0   0     1.524020222549     0.00000000     0.00000000
 C      2   1   0     1.526591694147   111.46606807     0.00000000
 C      3   2   1     1.533138742619   111.67335824   179.40992415
 C      4   3   2     1.505439062787   110.23659887   175.80453658
 O      5   4   3     1.213495460531   124.92812400   300.79563986
 O      5   4   3     1.327608386196   111.67252246   119.68091030
 C      7   5   4     1.431059891481   118.37777932   180.63822859
 H      1   2   3     1.087581797185   110.46614051    59.74735387
 H      1   2   3     1.086843367254   110.49067790   179.79884101
 H      1   2   3     1.087522537618   110.53602765   299.88180134
 H      2   1   3     1.091559752294   109.46060830   120.98931968
 H      2   1   3     1.091530331296   109.43037337   238.98878492
 H      3   2   1     1.092177097077   109.46624831    58.28850050
 H      3   2   1     1.092171656369   109.90001402   300.11099979
 H      4   3   2     1.091386742569   109.07223447    57.41454003
 H      4   3   2     1.089066595788   111.03222800   296.59114132
 H      8   7   5     1.090061679812   109.38364983   274.30340266
 H      8   7   5     1.085911220503   106.05850072   154.90391511
 H      8   7   5     1.090578415280   109.95702564    34.45294989

---------------------------
INTERNAL COORDINATES (A.U.)
---------------------------
 C      0   0   0     0.000000000000     0.00000000     0.00000000
 C      1   0   0     2.879980843176     0.00000000     0.00000000
 C      2   1   0     2.884840220257   111.46606807     0.00000000
 C      3   2   1     2.897212348854   111.67335824   179.40992415
 C      4   3   2     2.844867539974   110.23659887   175.80453658
 O      5   4   3     2.293174085160   124.92812400   300.79563986
 O      5   4   3     2.508816263007   111.67252246   119.68091030
 C      7   5   4     2.704311276139   118.37777932   180.63822859
 H      1   2   3     2.055231744918   110.46614051    59.74735387
 H      1   2   3     2.053836314579   110.49067790   179.79884101
 H      1   2   3     2.055119760565   110.53602765   299.88180134
 H      2   1   3     2.062748990647   109.46060830   120.98931968
 H      2   1   3     2.062693393017   109.43037337   238.98878492
 H      3   2   1     2.063915603216   109.46624831    58.28850050
 H      3   2   1     2.063905321768   109.90001402   300.11099979
 H      4   3   2     2.062422049648   109.07223447    57.41454003
 H      4   3   2     2.058037607641   111.03222800   296.59114132
 H      8   7   5     2.059918043927   109.38364983   274.30340266
 H      8   7   5     2.052074812502   106.05850072   154.90391511
 H      8   7   5     2.060894532445   109.95702564    34.45294989

---------------------
BASIS SET INFORMATION
---------------------
There are 3 groups of distinct atoms

 Group   1 Type C   : 11s6p1d contracted to 5s3p1d pattern {62111/411/1}
 Group   2 Type O   : 11s6p2d contracted to 5s3p2d pattern {62111/411/11}
 Group   3 Type H   : 4s1p contracted to 2s1p pattern {31/1}

Atom   0C    basis set group =>   1
Atom   1C    basis set group =>   1
Atom   2C    basis set group =>   1
Atom   3C    basis set group =>   1
Atom   4C    basis set group =>   1
Atom   5O    basis set group =>   2
Atom   6O    basis set group =>   2
Atom   7C    basis set group =>   1
Atom   8H    basis set group =>   3
Atom   9H    basis set group =>   3
Atom  10H    basis set group =>   3
Atom  11H    basis set group =>   3
Atom  12H    basis set group =>   3
Atom  13H    basis set group =>   3
Atom  14H    basis set group =>   3
Atom  15H    basis set group =>   3
Atom  16H    basis set group =>   3
Atom  17H    basis set group =>   3
Atom  18H    basis set group =>   3
Atom  19H    basis set group =>   3
---------------------------------
AUXILIARY/J BASIS SET INFORMATION
---------------------------------
There are 3 groups of distinct atoms

 Group   1 Type C   : 12s5p4d2f1g contracted to 6s4p3d1f1g pattern {711111/2111/211/2/1}
 Group   2 Type O   : 12s5p4d2f1g contracted to 6s4p3d1f1g pattern {711111/2111/211/2/1}
 Group   3 Type H   : 5s2p1d contracted to 3s1p1d pattern {311/2/1}

Atom   0C    basis set group =>   1
Atom   1C    basis set group =>   1
Atom   2C    basis set group =>   1
Atom   3C    basis set group =>   1
Atom   4C    basis set group =>   1
Atom   5O    basis set group =>   2
Atom   6O    basis set group =>   2
Atom   7C    basis set group =>   1
Atom   8H    basis set group =>   3
Atom   9H    basis set group =>   3
Atom  10H    basis set group =>   3
Atom  11H    basis set group =>   3
Atom  12H    basis set group =>   3
Atom  13H    basis set group =>   3
Atom  14H    basis set group =>   3
Atom  15H    basis set group =>   3
Atom  16H    basis set group =>   3
Atom  17H    basis set group =>   3
Atom  18H    basis set group =>   3
Atom  19H    basis set group =>   3

Checking for AutoStart:
The File: sp_solv.gbw exists
Trying to determine its content:
     ... Fine, the file contains calculation information
     ... Fine, the calculation information was read
     ... Fine, the file contains a basis set
     ... Fine, the basis set was read
     ... Fine, the file contains a geometry
     ... Fine, the geometry was read
     ... Fine, the file contains a set of orbitals
     ... Fine, the orbitals can be read
     => possible old guess file was deleted
     => GBW file was renamed to GES file
     => GES file is set as startup file
     => Guess is set to MORead
     ... now leaving AutoStart

------------------------------------------------------------------------------
                             ORCA STARTUP CALCULATIONS
                           -- RI-GTO INTEGRALS CHOSEN --
------------------------------------------------------------------------------
------------------------------------------------------------------------------
                   ___                                                        
                  /   \      - P O W E R E D   B Y -                         
                 /     \                                                     
                 |  |  |   _    _      __       _____    __    __             
                 |  |  |  | |  | |    /  \     |  _  \  |  |  /  |          
                  \  \/   | |  | |   /    \    | | | |  |  | /  /          
                 / \  \   | |__| |  /  /\  \   | |_| |  |  |/  /          
                |  |  |   |  __  | /  /__\  \  |    /   |      \           
                |  |  |   | |  | | |   __   |  |    \   |  |\   \          
                \     /   | |  | | |  |  |  |  | |\  \  |  | \   \       
                 \___/    |_|  |_| |__|  |__|  |_| \__\ |__|  \__/        
                                                                              
                      - O R C A' S   B I G   F R I E N D -                    
                                      &                                       
                       - I N T E G R A L  F E E D E R -                       
                                                                              
 v1 FN, 2020, v2 2021, v3 2022-2024                                           
------------------------------------------------------------------------------


----------------------
SHARK INTEGRAL PACKAGE
----------------------

Number of atoms                             ...     20
Number of basis functions                   ...    222
Number of shells                            ...    110
Maximum angular momentum                    ...      2
Integral batch strategy                     ... SHARK/LIBINT Hybrid
RI-J (if used) integral strategy            ... SPLIT-RIJ (Revised 2003 algorithm where possible)
Printlevel                                  ...      1
Contraction scheme used                     ... SEGMENTED contraction
Prescreening option                         ... SCHWARTZ
   Thresh                                   ... 1.000e-10
   Tcut                                     ... 1.000e-11
   Tpresel                                  ... 1.000e-11 
Coulomb Range Separation                    ... NOT USED
Exchange Range Separation                   ... NOT USED
Multipole approximations                    ... NOT USED
Finite Nucleus Model                        ... NOT USED
CABS basis                                  ... NOT available
Auxiliary Coulomb fitting basis             ... AVAILABLE
   # of basis functions in Aux-J            ...    524
   # of shells in Aux-J                     ...    180
   Maximum angular momentum in Aux-J        ...      4
Auxiliary J/K fitting basis                 ... NOT available
Auxiliary Correlation fitting basis         ... NOT available
Auxiliary 'external' fitting basis          ... NOT available

Checking pre-screening integrals            ... done (  0.0 sec) Dimension = 110
Check shell pair data                       ... done (  0.0 sec)
Shell pair information
Shell pair cut-off parameter TPreSel        ...   1.0e-11
Total number of shell pairs                 ...      6105
Shell pairs after pre-screening             ...      5113
Total number of primitive shell pairs       ...     21533
Primitive shell pairs kept                  ...     12779
          la=0 lb=0:   1711 shell pairs
          la=1 lb=0:   1935 shell pairs
          la=1 lb=1:    567 shell pairs
          la=2 lb=0:    542 shell pairs
          la=2 lb=1:    310 shell pairs
          la=2 lb=2:     48 shell pairs

Calculating one electron integrals          ... done (  0.0 sec)
Calculating RI/J V-Matrix + Cholesky decomp.... done (  0.1 sec)
Calculating Nuclear repulsion               ... done (  0.0 sec) ENN=    381.218220221214 Eh

Diagonalization of the overlap matrix:
Smallest eigenvalue                        ... 1.085e-04
Time for diagonalization                   ...    0.005 sec
Threshold for overlap eigenvalues          ... 1.000e-07
Number of eigenvalues below threshold      ... 0
Time for construction of square roots      ...    0.022 sec
Total time needed                          ...    0.038 sec

-------------------
DFT GRID GENERATION
-------------------

General Integration Accuracy     IntAcc      ... 4.388
Radial Grid Type                 RadialGrid  ... OptM3 with GC (2021)
Angular Grid (max. ang.)         AngularGrid ... 4 (Lebedev-302)
Angular grid pruning method      GridPruning ... 4 (adaptive)
Weight generation scheme         WeightScheme... mBecke (2022)
Basis function cutoff            BFCut       ... 1.0000e-10
Integration weight cutoff        WCut        ... 1.0000e-14
Partially contracted basis set               ... off
Rotationally invariant grid construction     ... off
Angular grids for H and He will be reduced by one unit
Diffuse basis detected: some atoms will have their outermost
                        angular grid increased by 1.

Total number of grid points                  ...    87462
Total number of batches                      ...     1376
Average number of points per batch           ...       63
Average number of grid points per atom       ...     4373
Initializing property integral containers    ... done (  0.0 sec)

SHARK setup successfully completed in   1.2 seconds

Maximum memory used throughout the entire STARTUP-calculation: 39.1 MB
-------------------------------------------------------------------------------
                                 ORCA GUESS
                   Start orbitals & Density for SCF / CASSCF
-------------------------------------------------------------------------------

------------
SCF SETTINGS
------------
Hamiltonian:
 Density Functional     Method          .... DFT(GTOs)
  Functional kind                       .... Exchange
  Functional name                       .... Re-regularized SCAN exchange by Furness et al
  Functional family                     .... MGGA
  Functional refs                              
    [ 0] J. W. Furness, A. D. Kaplan, J. Ning, J. P. Perdew, and J. Sun.,  J. Phys. Chem. Lett. 11, 8208-8215 (2020), doi: 10.1021/acs.jpclett.0c02405
    [ 1] J. W. Furness, A. D. Kaplan, J. Ning, J. P. Perdew, and J. Sun.,  J. Phys. Chem. Lett. 11, 9248-9248 (2020), doi: 10.1021/acs.jpclett.0c03077
  Functional external parameters        .... 6
    Parameter  0 _c1        =  6.670000e-01 : c1 parameter        
    Parameter  1 _c2        =  8.000000e-01 : c2 parameter        
    Parameter  2 _d         =  1.240000e+00 : d parameter         
    Parameter  3 _k1        =  6.500000e-02 : k1 parameter        
    Parameter  4 _eta       =  1.000000e-03 : eta parameter       
    Parameter  5 _dp2       =  3.610000e-01 : dp2 parameter       
  Functional kind                       .... Correlation
  Functional name                       .... Re-regularized SCAN correlation by Furness et al
  Functional family                     .... MGGA
  Functional refs                              
    [ 0] J. W. Furness, A. D. Kaplan, J. Ning, J. P. Perdew, and J. Sun.,  J. Phys. Chem. Lett. 11, 8208-8215 (2020), doi: 10.1021/acs.jpclett.0c02405
    [ 1] J. W. Furness, A. D. Kaplan, J. Ning, J. P. Perdew, and J. Sun.,  J. Phys. Chem. Lett. 11, 9248-9248 (2020), doi: 10.1021/acs.jpclett.0c03077
  Functional external parameters        .... 1
    Parameter  0 _eta       =  1.000000e-03 : Regularization parameter
 Gradients option       PostSCFGGA      .... off
 RI-approximation to the Coulomb term is turned on
   Number of AuxJ basis functions       .... 524


General Settings:
 Integral files         IntName         .... sp_solv
 Hartree-Fock type      HFTyp           .... RHF
 Total Charge           Charge          ....    0
 Multiplicity           Mult            ....    1
 Number of Electrons    NEL             ....   64
 Basis Dimension        Dim             ....  222
 Nuclear Repulsion      ENuc            ....    381.2182202212 Eh

Convergence Acceleration:
 AO-DIIS                CNVDIIS         .... on
   Start iteration      DIISMaxIt       ....    12
   Startup error        DIISStart       ....  0.200000
   # of expansion vecs  DIISMaxEq       ....     5
   Bias factor          DIISBfac        ....   1.050
   Max. coefficient     DIISMaxC        ....  10.000
 MO-DIIS                CNVKDIIS        .... off
 Trust-Rad. Augm. Hess. CNVTRAH         .... auto
   Auto Start mean grad. ratio tolernc. ....  1.125000
   Auto Start start iteration           ....     1
   Auto Start num. interpolation iter.  ....    10
   Max. Number of Micro iterations      ....    24
   Max. Number of Macro iterations      .... Maxiter - #DIIS iter
   Number of Davidson start vectors     ....     2
   Converg. threshold    (grad. norm)   ....   3.330e-04
   Grad. Scal. Fac. for Micro threshold ....   0.100
   Minimum threshold for Micro iter.    ....   1.000e-02
   NR start threshold (gradient norm)   ....   1.000e-04
   Initial trust radius                 ....   0.400
   Minimum AH scaling param. (alpha)    ....   1.000
   Maximum AH scaling param. (alpha)    .... 1000.000
   Quad. conv. algorithm                .... NR
   White noise on init. David. guess    .... on
   Maximum white noise                  ....   0.010
   Pseudo random numbers                .... off
   Inactive MOs                         .... canonical
   Orbital update algorithm             .... Taylor
   Preconditioner                       .... Diag
   Full preconditioner red. dimension   ....   250
   COSX micro iterations for RIJONX calc.... off
 SOSCF                  CNVSOSCF        .... on
   Start iteration      SOSCFMaxIt      ....   150
   Startup grad/error   SOSCFStart      ....  0.003300
   Hessian update       SOSCFHessUp     .... L-BFGS
 Level Shifting         CNVShift        .... on
   Level shift para.    LevelShift      ....    0.2500
   Turn off err/grad.   ShiftErr        ....    0.0010
 Zerner damping         CNVZerner       .... off
 Static damping         CNVDamp         .... on
   Fraction old density DampFac         ....    0.7000
   Max. Damping (<1)    DampMax         ....    0.9800
   Min. Damping (>=0)   DampMin         ....    0.0000
   Turn off err/grad.   DampErr         ....    0.1000

SCF Procedure:
 Maximum # iterations   MaxIter         ....   125
 SCF integral mode      SCFMode         .... Direct
   Integral package                     .... SHARK and LIBINT hybrid scheme
 Reset frequency        DirectResetFreq ....    20
 Integral Threshold     Thresh          ....  1.000e-10 Eh
 Primitive CutOff       TCut            ....  1.000e-11 Eh

Convergence Tolerance:
 Convergence Check Mode ConvCheckMode   .... Total+1el-Energy
 Convergence forced     ConvForced      .... 0
 Energy Change          TolE            ....  1.000e-06 Eh
 1-El. energy change                    ....  1.000e-03 Eh
 Orbital Gradient       TolG            ....  3.330e-04
 Orbital Rotation angle TolX            ....  3.330e-04
 DIIS Error             TolErr          ....  1.000e-06

---------------------
INITIAL GUESS: MOREAD
---------------------
Guess MOs are being read from file: sp_solv.ges
Input Geometry matches current geometry (good)
Atom 0: N(Shells)= 9 and 6 - projection required
Input basis set needs projection
NBasis(read)= 136
NBasis(calc)= 222
Basis set overlap was calculated
Using GuessMode=FMatrix for the initial guess
C*T matrix was formed
Effective Fockian was calculated
Effective Fockian was diagonalized
Initial density was built
                      ------------------
                      INITIAL GUESS DONE (   0.0 sec)
                      ------------------
             **** ENERGY FILE WAS UPDATED (sp_solv.en.tmp) ****
Finished Guess after   0.3 sec
Maximum memory used throughout the entire GUESS-calculation: 14.7 MB

-------------------------------------------------------------------------------------------
                                      ORCA LEAN-SCF
                              memory conserving SCF solver
-------------------------------------------------------------------------------------------

--------------------
CPCM SOLVATION MODEL
--------------------
CPCM parameters:
  Epsilon                                         ...      78.3550
  Refrac                                          ...       1.3328
  Rsolv                                           ...       1.3000
  Surface type                                    ... GAUSSIAN VDW
  Discretization scheme                           ... Constant charge density
    Threshold for H atoms                         ...       5.0000 (charges/Ang^2)
    Threshold for non-H atoms                     ...       5.0000 (charges/Ang^2)
  Epsilon function type                           ...         CPCM
Solvent:                                          ... WATER
SMD-CDS solvent descriptors:
  Soln                                            ...       1.3328
  Soln25                                          ...       1.3323
  Sola                                            ...       0.0000
  Solb                                            ...       0.0000
  Solg                                            ...       0.0000
  Solc                                            ...       0.0000
  Solh                                            ...       0.0000
Radii:
  Scheme                                          ... Element-dependent radii
  Radius for C  used is    3.4960 Bohr (=   1.8500 Ang.)
  Radius for O  used is    2.8724 Bohr (=   1.5200 Ang.)
  Radius for H  used is    2.2677 Bohr (=   1.2000 Ang.)
Calculating surface                               ...        done! (  0.0s)
Cavity surface points                             ...         1482
Cavity Volume                                     ...     878.4707
Cavity Surface-area                               ...     588.6287
Calculating surface distance matrix               ...        done! (  0.0s)
Performing Cholesky decomposition & store         ...        done! (  0.1s)
Overall time for CPCM initialization              ...                 0.1s

----------------------------------------D-I-I-S--------------------------------------------
Iteration    Energy (Eh)           Delta-E    RMSDP     MaxDP     DIISErr   Damp  Time(sec)
-------------------------------------------------------------------------------------------
               ***  Starting incremental Fock matrix formation  ***
    1    -386.0525134130481320     0.00e+00  3.68e-03  1.34e-01  6.25e-01  0.700   3.2
    2    -386.1112255709799683    -5.87e-02  2.95e-03  9.34e-02  4.40e-01  0.700   3.0
    3    -386.1527715281354176    -4.15e-02  2.15e-03  6.60e-02  3.09e-01  0.700   2.9
    4    -386.1819747722447573    -2.92e-02  1.54e-03  4.65e-02  2.17e-01  0.700   2.9
                               ***Turning on AO-DIIS***
    5    -386.2024809072117932    -2.05e-02  1.11e-03  3.34e-02  1.52e-01  0.700   2.8
    6    -386.2168580881206026    -1.44e-02  7.87e-04  2.36e-02  1.06e-01  0.700   2.8
    7    -386.2269507979734726    -1.01e-02  5.55e-04  1.67e-02  7.41e-02  0.700   2.8
    8    -386.2340243977010914    -7.07e-03  1.30e-03  3.88e-02  5.20e-02  0.000   2.8
                              *** Initializing SOSCF ***
---------------------------------------S-O-S-C-F--------------------------------------
Iteration    Energy (Eh)           Delta-E    RMSDP     MaxDP     MaxGrad    Time(sec)
--------------------------------------------------------------------------------------
    9    -386.2505626639314187    -1.65e-02  1.13e-05  2.97e-04  1.84e-04     2.9
               *** Restarting incremental Fock matrix formation ***
   10    -386.2505628231974697    -1.59e-07  6.77e-06  1.76e-04  5.07e-05     3.2
                  *** Gradient check signals convergence ***

               *****************************************************
               *                     SUCCESS                       *
               *           SCF CONVERGED AFTER  10 CYCLES          *
               *****************************************************


SMD CDS free energy correction energy :                 5.43806     Kcal/mol
Total Energy after SMD CDS correction =              -386.241896717 Eh
             **** ENERGY FILE WAS UPDATED (sp_solv.en.tmp) ****

----------------
TOTAL SCF ENERGY
----------------

Total Energy       :       -386.24189671650981 Eh          -10510.17634 eV

Components:
Nuclear Repulsion  :        381.21822022121444 Eh           10373.47515 eV
Electronic Energy  :       -767.45275088757069 Eh          -20883.45105 eV
One Electron Energy:      -1279.75228206380461 Eh          -34823.83000 eV
Two Electron Energy:        512.29953117623393 Eh           13940.37896 eV
CPCM Dielectric    :         -0.01603215684120 Eh              -0.43626 eV
SMD CDS (Gcds)     :          0.00866610668768 Eh               0.23582 eV

Virial components:
Potential Energy   :       -770.88779897265272 Eh          -20976.92346 eV
Kinetic Energy     :        384.64590225614296 Eh           10466.74712 eV
Virial Ratio       :          2.00414925637061

DFT components:
N(Alpha)           :       31.999996691556 electrons
N(Beta)            :       31.999996691556 electrons
N(Total)           :       63.999993383113 electrons
E(X)               :      -52.084397329457 Eh       
E(C)               :       -2.037156088682 Eh       
E(XC)              :      -54.121553418139 Eh       

CPCM Solvation Model Properties:
Surface-charge          :         -0.04806419000468
Corrected charge        :          0.00000000000000
Outlying charge corr.   :          0.00017132147862 Eh               0.00466 eV
Free-energy (cav+disp)  :          0.00866610668768 Eh               0.23582 eV

---------------
SCF CONVERGENCE
---------------

  Last Energy change         ...    1.5927e-07  Tolerance :   1.0000e-06
  Last MAX-Density change    ...    1.7575e-04  Tolerance :   1.0000e-05
  Last RMS-Density change    ...    6.7690e-06  Tolerance :   1.0000e-06
  Last DIIS Error            ...    1.8383e-04  Tolerance :   1.0000e-06
  Last Orbital Gradient      ...    5.0678e-05  Tolerance :   3.3300e-04
  Last Orbital Rotation      ...    1.1823e-04  Tolerance :   3.3300e-04


----------------
ORBITAL ENERGIES
----------------

  NO   OCC          E(Eh)            E(eV) 
   0   2.0000     -19.005122      -517.1557 
   1   2.0000     -18.943401      -515.4761 
   2   2.0000     -10.162184      -276.5271 
   3   2.0000     -10.075764      -274.1755 
   4   2.0000     -10.035190      -273.0714 
   5   2.0000     -10.026119      -272.8246 
   6   2.0000     -10.019124      -272.6342 
   7   2.0000     -10.008684      -272.3501 
   8   2.0000      -1.079722       -29.3807 
   9   2.0000      -0.989129       -26.9156 
  10   2.0000      -0.771354       -20.9896 
  11   2.0000      -0.723651       -19.6915 
  12   2.0000      -0.680137       -18.5075 
  13   2.0000      -0.608787       -16.5659 
  14   2.0000      -0.545586       -14.8462 
  15   2.0000      -0.530209       -14.4277 
  16   2.0000      -0.467523       -12.7220 
  17   2.0000      -0.459248       -12.4968 
  18   2.0000      -0.451379       -12.2827 
  19   2.0000      -0.433852       -11.8057 
  20   2.0000      -0.399048       -10.8586 
  21   2.0000      -0.389200       -10.5907 
  22   2.0000      -0.378635       -10.3032 
  23   2.0000      -0.363581        -9.8936 
  24   2.0000      -0.343072        -9.3355 
  25   2.0000      -0.325695        -8.8626 
  26   2.0000      -0.317689        -8.6448 
  27   2.0000      -0.301525        -8.2049 
  28   2.0000      -0.295205        -8.0329 
  29   2.0000      -0.290288        -7.8991 
  30   2.0000      -0.280417        -7.6305 
  31   2.0000      -0.252122        -6.8606 
  32   0.0000      -0.022663        -0.6167 
  33   0.0000       0.071879         1.9559 
  34   0.0000       0.106380         2.8947 
  35   0.0000       0.109121         2.9693 
  36   0.0000       0.130641         3.5549 
  37   0.0000       0.132714         3.6113 
  38   0.0000       0.145359         3.9554 
  39   0.0000       0.149563         4.0698 
  40   0.0000       0.160091         4.3563 
  41   0.0000       0.168211         4.5773 
  42   0.0000       0.181307         4.9336 
*Only the first 10 virtual orbitals were printed.

                    ********************************
                    * MULLIKEN POPULATION ANALYSIS *
                    ********************************

-----------------------
MULLIKEN ATOMIC CHARGES
-----------------------
   0 C :   -0.510093
   1 C :   -0.248526
   2 C :   -0.276161
   3 C :   -0.354496
   4 C :    0.450701
   5 O :   -0.519416
   6 O :   -0.208046
   7 C :   -0.324069
   8 H :    0.154112
   9 H :    0.158435
  10 H :    0.155000
  11 H :    0.148821
  12 H :    0.151244
  13 H :    0.157103
  14 H :    0.160707
  15 H :    0.191999
  16 H :    0.177639
  17 H :    0.179539
  18 H :    0.176883
  19 H :    0.178623
Sum of atomic charges:   -0.0000000

--------------------------------
MULLIKEN REDUCED ORBITAL CHARGES
--------------------------------
  0 C s       :     3.345461  s :     3.345461
      pz      :     1.080945  p :     3.137573
      px      :     1.018467
      py      :     1.038161
      dz2     :     0.006022  d :     0.027058
      dxz     :     0.002013
      dyz     :     0.006750
      dx2y2   :     0.005484
      dxy     :     0.006788

  1 C s       :     3.230695  s :     3.230695
      pz      :     1.084231  p :     2.980772
      px      :     0.903164
      py      :     0.993376
      dz2     :     0.006823  d :     0.037060
      dxz     :     0.004516
      dyz     :     0.008409
      dx2y2   :     0.008195
      dxy     :     0.009117

  2 C s       :     3.242877  s :     3.242877
      pz      :     1.089540  p :     2.996550
      px      :     0.913500
      py      :     0.993510
      dz2     :     0.006649  d :     0.036733
      dxz     :     0.004635
      dyz     :     0.008574
      dx2y2   :     0.007741
      dxy     :     0.009135

  3 C s       :     3.280195  s :     3.280195
      pz      :     1.117052  p :     3.039677
      px      :     0.931452
      py      :     0.991173
      dz2     :     0.007151  d :     0.034623
      dxz     :     0.003296
      dyz     :     0.007530
      dx2y2   :     0.006834
      dxy     :     0.009813

  4 C s       :     3.134947  s :     3.134947
      pz      :     0.742691  p :     2.289334
      px      :     0.795743
      py      :     0.750901
      dz2     :     0.027681  d :     0.125019
      dxz     :     0.024526
      dyz     :     0.019498
      dx2y2   :     0.020899
      dxy     :     0.032415

  5 O s       :     3.833020  s :     3.833020
      pz      :     1.493485  p :     4.663193
      px      :     1.778159
      py      :     1.391549
      dz2     :     0.004570  d :     0.023202
      dxz     :     0.002929
      dyz     :     0.008633
      dx2y2   :     0.006263
      dxy     :     0.000808

  6 O s       :     3.706017  s :     3.706017
      pz      :     1.579792  p :     4.465637
      px      :     1.211748
      py      :     1.674097
      dz2     :     0.009537  d :     0.036392
      dxz     :     0.008777
      dyz     :     0.006152
      dx2y2   :     0.005521
      dxy     :     0.006406

  7 C s       :     3.341908  s :     3.341908
      pz      :     1.134749  p :     2.939844
      px      :     0.767128
      py      :     1.037968
      dz2     :     0.007665  d :     0.042317
      dxz     :     0.010107
      dyz     :     0.002741
      dx2y2   :     0.011875
      dxy     :     0.009930

  8 H s       :     0.827601  s :     0.827601
      pz      :     0.006412  p :     0.018286
      px      :     0.003610
      py      :     0.008264

  9 H s       :     0.823192  s :     0.823192
      pz      :     0.003746  p :     0.018373
      px      :     0.009247
      py      :     0.005380

 10 H s       :     0.826708  s :     0.826708
      pz      :     0.010035  p :     0.018292
      px      :     0.003664
      py      :     0.004593

 11 H s       :     0.833272  s :     0.833272
      pz      :     0.006341  p :     0.017906
      px      :     0.003374
      py      :     0.008191

 12 H s       :     0.830861  s :     0.830861
      pz      :     0.009933  p :     0.017895
      px      :     0.003516
      py      :     0.004446

 13 H s       :     0.825039  s :     0.825039
      pz      :     0.009948  p :     0.017858
      px      :     0.003405
      py      :     0.004505

 14 H s       :     0.821404  s :     0.821404
      pz      :     0.006423  p :     0.017890
      px      :     0.003280
      py      :     0.008187

 15 H s       :     0.789851  s :     0.789851
      pz      :     0.009995  p :     0.018151
      px      :     0.003563
      py      :     0.004592

 16 H s       :     0.804440  s :     0.804440
      pz      :     0.006769  p :     0.017921
      px      :     0.003169
      py      :     0.007983

 17 H s       :     0.802681  s :     0.802681
      pz      :     0.007369  p :     0.017780
      px      :     0.006114
      py      :     0.004297

 18 H s       :     0.805219  s :     0.805219
      pz      :     0.010759  p :     0.017898
      px      :     0.003576
      py      :     0.003562

 19 H s       :     0.803135  s :     0.803135
      pz      :     0.003878  p :     0.018242
      px      :     0.002516
      py      :     0.011847


------------------------
MULLIKEN OVERLAP CHARGES
------------------------
B(  0-C ,  1-C ) :   0.4611 B(  0-C ,  2-C ) :  -0.1795 B(  0-C ,  8-H ) :   0.8547 
B(  0-C ,  9-H ) :   0.8120 B(  0-C , 10-H ) :   0.8518 B(  0-C , 11-H ) :  -0.0557 
B(  0-C , 12-H ) :  -0.0603 B(  1-C ,  2-C ) :   0.4562 B(  1-C ,  3-C ) :  -0.1267 
B(  1-C ,  8-H ) :  -0.0962 B(  1-C ,  9-H ) :  -0.0867 B(  1-C , 10-H ) :  -0.0824 
B(  1-C , 11-H ) :   0.8439 B(  1-C , 12-H ) :   0.8828 B(  1-C , 14-H ) :  -0.0712 
B(  2-C ,  3-C ) :   0.3723 B(  2-C ,  4-C ) :  -0.0521 B(  2-C , 11-H ) :  -0.0746 
B(  2-C , 12-H ) :  -0.1133 B(  2-C , 13-H ) :   0.8138 B(  2-C , 14-H ) :   0.8670 
B(  2-C , 15-H ) :  -0.1014 B(  3-C ,  4-C ) :   0.5006 B(  3-C ,  5-O ) :  -0.1333 
B(  3-C , 14-H ) :  -0.0663 B(  3-C , 15-H ) :   0.8689 B(  3-C , 16-H ) :   0.8606 
B(  4-C ,  5-O ) :   0.9288 B(  4-C ,  6-O ) :   0.4191 B(  4-C ,  7-C ) :  -0.1883 
B(  4-C , 15-H ) :  -0.0523 B(  4-C , 16-H ) :  -0.1214 B(  5-O ,  6-O ) :  -0.2154 
B(  6-O ,  7-C ) :   0.3422 B(  6-O , 17-H ) :  -0.0666 B(  6-O , 18-H ) :  -0.0779 
B(  6-O , 19-H ) :  -0.0583 B(  7-C , 17-H ) :   0.8032 B(  7-C , 18-H ) :   0.7961 
B(  7-C , 19-H ) :   0.8293 B(  8-H , 10-H ) :  -0.0527 B( 11-H , 12-H ) :  -0.0541 
B( 13-H , 14-H ) :  -0.0512 B( 17-H , 19-H ) :  -0.0533 


                     *******************************
                     * LOEWDIN POPULATION ANALYSIS *
                     *******************************

----------------------
LOEWDIN ATOMIC CHARGES
----------------------
   0 C :   -0.431181
   1 C :   -0.313042
   2 C :   -0.282956
   3 C :   -0.225035
   4 C :    0.365450
   5 O :   -0.495861
   6 O :   -0.604964
   7 C :   -0.041954
   8 H :    0.152907
   9 H :    0.153475
  10 H :    0.152941
  11 H :    0.155526
  12 H :    0.155422
  13 H :    0.163166
  14 H :    0.164879
  15 H :    0.189537
  16 H :    0.184685
  17 H :    0.182408
  18 H :    0.187582
  19 H :    0.187015

-------------------------------
LOEWDIN REDUCED ORBITAL CHARGES
-------------------------------
  0 C s       :     2.974491  s :     2.974491
      pz      :     1.154845  p :     3.393667
      px      :     1.107434
      py      :     1.131388
      dz2     :     0.014758  d :     0.063024
      dxz     :     0.003890
      dyz     :     0.016306
      dx2y2   :     0.011833
      dxy     :     0.016237

  1 C s       :     2.938654  s :     2.938654
      pz      :     1.142409  p :     3.294271
      px      :     1.045121
      py      :     1.106740
      dz2     :     0.015896  d :     0.080117
      dxz     :     0.008260
      dyz     :     0.019200
      dx2y2   :     0.016571
      dxy     :     0.020190

  2 C s       :     2.934391  s :     2.934391
      pz      :     1.144122  p :     3.269018
      px      :     1.024804
      py      :     1.100092
      dz2     :     0.015588  d :     0.079547
      dxz     :     0.008291
      dyz     :     0.019425
      dx2y2   :     0.015865
      dxy     :     0.020377

  3 C s       :     2.923283  s :     2.923283
      pz      :     1.139288  p :     3.228465
      px      :     1.005162
      py      :     1.084016
      dz2     :     0.015281  d :     0.073287
      dxz     :     0.005904
      dyz     :     0.017885
      dx2y2   :     0.013604
      dxy     :     0.020613

  4 C s       :     2.739566  s :     2.739566
      pz      :     0.815374  p :     2.623648
      px      :     0.918866
      py      :     0.889408
      dz2     :     0.054811  d :     0.271336
      dxz     :     0.054086
      dyz     :     0.050117
      dx2y2   :     0.043136
      dxy     :     0.069187

  5 O s       :     3.544115  s :     3.544115
      pz      :     1.520392  p :     4.732201
      px      :     1.718713
      py      :     1.493096
      dz2     :     0.035965  d :     0.219545
      dxz     :     0.033804
      dyz     :     0.059610
      dx2y2   :     0.039735
      dxy     :     0.050431

  6 O s       :     3.469311  s :     3.469311
      pz      :     1.614798  p :     4.664622
      px      :     1.384487
      py      :     1.665337
      dz2     :     0.066392  d :     0.471032
      dxz     :     0.129636
      dyz     :     0.049263
      dx2y2   :     0.122324
      dxy     :     0.103416

  7 C s       :     2.908534  s :     2.908534
      pz      :     1.118508  p :     3.031678
      px      :     0.856292
      py      :     1.056879
      dz2     :     0.019189  d :     0.101742
      dxz     :     0.024933
      dyz     :     0.005313
      dx2y2   :     0.029056
      dxy     :     0.023250

  8 H s       :     0.803380  s :     0.803380
      pz      :     0.015521  p :     0.043713
      px      :     0.008066
      py      :     0.020127

  9 H s       :     0.802627  s :     0.802627
      pz      :     0.008248  p :     0.043898
      px      :     0.022718
      py      :     0.012931

 10 H s       :     0.803321  s :     0.803321
      pz      :     0.024976  p :     0.043738
      px      :     0.008300
      py      :     0.010461

 11 H s       :     0.801127  s :     0.801127
      pz      :     0.015485  p :     0.043346
      px      :     0.007907
      py      :     0.019954

 12 H s       :     0.801247  s :     0.801247
      pz      :     0.024660  p :     0.043331
      px      :     0.008242
      py      :     0.010429

 13 H s       :     0.793198  s :     0.793198
      pz      :     0.024946  p :     0.043637
      px      :     0.008101
      py      :     0.010590

 14 H s       :     0.791257  s :     0.791257
      pz      :     0.015925  p :     0.043864
      px      :     0.007590
      py      :     0.020349

 15 H s       :     0.765821  s :     0.765821
      pz      :     0.025397  p :     0.044642
      px      :     0.008546
      py      :     0.010698

 16 H s       :     0.771028  s :     0.771028
      pz      :     0.017162  p :     0.044287
      px      :     0.007369
      py      :     0.019756

 17 H s       :     0.776176  s :     0.776176
      pz      :     0.017692  p :     0.041416
      px      :     0.013261
      py      :     0.010462

 18 H s       :     0.771381  s :     0.771381
      pz      :     0.025899  p :     0.041038
      px      :     0.006897
      py      :     0.008242

 19 H s       :     0.769752  s :     0.769752
      pz      :     0.008693  p :     0.043233
      px      :     0.006216
      py      :     0.028324


---------------------------------
LOEWDIN BOND ORDERS (THRESH 0.050000)
---------------------------------
B(  0-C ,  1-C ) :   1.1432 B(  0-C ,  2-C ) :   0.0763 B(  0-C ,  8-H ) :   0.9291 
B(  0-C ,  9-H ) :   0.9292 B(  0-C , 10-H ) :   0.9292 B(  1-C ,  2-C ) :   1.1004 
B(  1-C ,  3-C ) :   0.0784 B(  1-C , 11-H ) :   0.8936 B(  1-C , 12-H ) :   0.8946 
B(  2-C ,  3-C ) :   1.0695 B(  2-C ,  4-C ) :   0.0823 B(  2-C , 13-H ) :   0.8870 
B(  2-C , 14-H ) :   0.8824 B(  3-C ,  4-C ) :   0.9297 B(  3-C ,  5-O ) :   0.1815 
B(  3-C ,  6-O ) :   0.1876 B(  3-C , 15-H ) :   0.8583 B(  3-C , 16-H ) :   0.8614 
B(  4-C ,  5-O ) :   2.1373 B(  4-C ,  6-O ) :   1.4724 B(  4-C ,  7-C ) :   0.0891 
B(  5-O ,  6-O ) :   0.4576 B(  5-O ,  7-C ) :   0.0710 B(  6-O ,  7-C ) :   1.3539 
B(  6-O , 17-H ) :   0.0998 B(  6-O , 18-H ) :   0.1005 B(  6-O , 19-H ) :   0.0965 
B(  7-C , 17-H ) :   0.8595 B(  7-C , 18-H ) :   0.8604 B(  7-C , 19-H ) :   0.8466 


------------------------------------------
LOEWDIN REDUCED ORBITAL POPULATIONS PER MO
-------------------------------------------
THRESHOLD FOR PRINTING IS 0.1%%
                      0         1         2         3         4         5   
                 -19.00512 -18.94340 -10.16218 -10.07576 -10.03519 -10.02612
                   2.00000   2.00000   2.00000   2.00000   2.00000   2.00000
                  --------  --------  --------  --------  --------  --------
 2 C  s               0.0       0.0       0.0       0.0       0.0      99.7
 3 C  s               0.0       0.0       0.0       0.0      99.7       0.0
 4 C  s               0.0       0.0      98.9       0.0       0.0       0.0
 5 O  s               0.0      99.9       0.0       0.0       0.0       0.0
 5 O  py              0.0       0.0       0.1       0.0       0.0       0.0
 5 O  dyz             0.0       0.0       0.2       0.0       0.0       0.0
 6 O  s              99.9       0.0       0.0       0.0       0.0       0.0
 6 O  dxz             0.0       0.0       0.2       0.0       0.0       0.0
 6 O  dxy             0.0       0.0       0.0       0.1       0.0       0.0
 7 C  s               0.0       0.0       0.0      99.4       0.0       0.0

                      6         7         8         9        10        11   
                 -10.01912 -10.00868  -1.07972  -0.98913  -0.77135  -0.72365
                   2.00000   2.00000   2.00000   2.00000   2.00000   2.00000
                  --------  --------  --------  --------  --------  --------
 0 C  s               0.0      99.7       0.0       0.0       5.1      12.1
 0 C  px              0.0       0.0       0.0       0.0       1.3       0.8
 0 C  py              0.0       0.0       0.0       0.0       0.4       0.4
 1 C  s              99.7       0.0       0.0       0.0      14.0      13.1
 1 C  pz              0.0       0.0       0.0       0.0       0.0       0.1
 1 C  px              0.0       0.1       0.0       0.0       1.1       0.8
 1 C  py              0.0       0.0       0.0       0.0       0.8       0.7
 2 C  s               0.0       0.0       0.1       0.0      21.1       1.0
 2 C  pz              0.0       0.0       0.0       0.0       0.1       0.1
 2 C  px              0.1       0.0       0.2       0.1       0.0       5.6
 2 C  py              0.0       0.0       0.0       0.0       1.5       0.0
 2 C  dxy             0.0       0.0       0.0       0.0       0.0       0.1
 3 C  s               0.0       0.0       1.0       0.2      18.2       5.9
 3 C  pz              0.0       0.0       0.0       0.1       0.2       0.0
 3 C  px              0.0       0.0       1.6       0.1       0.9       2.5
 3 C  py              0.0       0.0       0.5       0.3       0.9       0.0
 4 C  s               0.0       0.0      17.0       3.2       2.1       3.8
 4 C  pz              0.0       0.0       0.5      11.3       0.3       1.0
 4 C  px              0.0       0.0       4.2       0.8       4.7       1.8
 4 C  py              0.0       0.0       0.3      11.5       2.4       3.8
 4 C  dxz             0.0       0.0       0.3       0.5       0.0       0.0
 4 C  dyz             0.0       0.0       0.8       0.5       0.0       0.0
 4 C  dx2y2           0.0       0.0       0.0       0.6       0.0       0.0
 4 C  dxy             0.0       0.0       0.0       0.3       0.0       0.0
 5 O  s               0.0       0.0      14.3      40.8       1.0       1.2
 5 O  pz              0.0       0.0       1.3       1.0       0.1       0.1
 5 O  px              0.0       0.0       0.0       0.2       0.2       0.1
 5 O  py              0.0       0.0       2.0       2.0       0.2       0.4
 5 O  dxz             0.0       0.0       0.0       0.1       0.1       0.1
 5 O  dyz             0.0       0.0       1.1       0.1       0.1       0.2
 5 O  dx2y2           0.0       0.0       0.2       0.0       0.0       0.2
 5 O  dxy             0.0       0.0       0.0       0.1       0.2       0.2
 6 O  s               0.0       0.0      40.0      18.9       0.1       0.0
 6 O  pz              0.0       0.0       1.4       0.3       0.2       1.6
 6 O  px              0.0       0.0       0.1       0.5       2.4      11.8
 6 O  py              0.0       0.0       1.3       0.2       0.1       0.4
 6 O  dz2             0.0       0.0       0.0       0.2       0.0       0.1
 6 O  dxz             0.0       0.0       0.4       0.2       0.2       0.2
 6 O  dyz             0.0       0.0       0.4       0.6       0.0       0.0
 6 O  dx2y2           0.0       0.0       0.0       0.1       0.1       0.0
 6 O  dxy             0.0       0.0       0.0       0.3       0.0       0.4
 7 C  s               0.0       0.0       4.2       2.0       1.3       9.5
 7 C  pz              0.0       0.0       0.2       0.1       0.0       0.0
 7 C  px              0.0       0.0       4.4       1.4       0.1       0.2
 7 C  py              0.0       0.0       0.6       0.6       0.0       0.1
 7 C  dz2             0.0       0.0       0.1       0.1       0.0       0.0
 7 C  dx2y2           0.0       0.0       0.1       0.1       0.0       0.0
 7 C  dxy             0.0       0.0       0.2       0.1       0.0       0.0
 8 H  s               0.0       0.0       0.0       0.0       0.6       1.9
 8 H  py              0.0       0.0       0.0       0.0       0.0       0.1
 9 H  s               0.0       0.0       0.0       0.0       0.6       1.9
 9 H  px              0.0       0.0       0.0       0.0       0.0       0.1
10 H  s               0.0       0.0       0.0       0.0       0.6       1.9
10 H  pz              0.0       0.0       0.0       0.0       0.0       0.1
11 H  s               0.0       0.0       0.0       0.0       1.7       2.0
11 H  py              0.0       0.0       0.0       0.0       0.1       0.1
12 H  s               0.0       0.0       0.0       0.0       1.7       2.0
12 H  pz              0.0       0.0       0.0       0.0       0.1       0.2
13 H  s               0.0       0.0       0.0       0.0       2.7       0.2
13 H  pz              0.0       0.0       0.0       0.0       0.2       0.0
14 H  s               0.0       0.0       0.0       0.0       2.7       0.2
14 H  py              0.0       0.0       0.0       0.0       0.2       0.0
15 H  s               0.0       0.0       0.0       0.0       2.5       0.9
15 H  pz              0.0       0.0       0.0       0.0       0.2       0.1
16 H  s               0.0       0.0       0.1       0.0       2.6       1.3
16 H  pz              0.0       0.0       0.0       0.0       0.1       0.0
16 H  py              0.0       0.0       0.0       0.0       0.1       0.1
17 H  s               0.0       0.0       0.3       0.1       0.2       1.7
18 H  s               0.0       0.0       0.2       0.2       0.2       2.0
18 H  pz              0.0       0.0       0.0       0.0       0.0       0.2
19 H  s               0.0       0.0       0.3       0.1       0.2       1.6
19 H  py              0.0       0.0       0.0       0.0       0.0       0.1

                     12        13        14        15        16        17   
                  -0.68014  -0.60879  -0.54559  -0.53021  -0.46752  -0.45925
                   2.00000   2.00000   2.00000   2.00000   2.00000   2.00000
                  --------  --------  --------  --------  --------  --------
 0 C  s              11.1      14.4       4.8       0.0       0.2       0.0
 0 C  pz              0.0       0.1       0.6       0.0       0.4       0.2
 0 C  px              0.0       2.0       2.1       0.0       0.6       0.1
 0 C  py              0.1       0.4       4.7       0.2       0.5       0.5
 0 C  dxy             0.0       0.0       0.1       0.0       0.0       0.0
 1 C  s               2.6       2.2      12.9       0.2       0.7       0.2
 1 C  pz              0.1       0.2       0.6       0.1       0.4       1.4
 1 C  px              4.6       7.7       0.1       0.2       0.9       0.2
 1 C  py              0.2       0.1       8.4       1.1       0.0       0.5
 1 C  dxy             0.1       0.3       0.0       0.0       0.0       0.0
 2 C  s               4.2       9.8       6.5       1.7       0.0       0.1
 2 C  pz              0.1       0.1       0.3       0.6       0.5       3.7
 2 C  px              3.2       2.1       2.6       0.1       0.1       0.2
 2 C  py              0.1       0.3       6.6       2.7       3.6       0.0
 3 C  s               6.9       6.3       0.2       2.8       2.2       0.1
 3 C  pz              0.0       0.5       0.3       0.9       1.5       8.9
 3 C  px              1.3       4.6       1.3       0.5       6.0       1.5
 3 C  py              0.2       0.9       2.7       2.8      11.8       0.3
 3 C  dz2             0.0       0.0       0.0       0.1       0.1       0.0
 3 C  dxy             0.0       0.2       0.1       0.0       0.2       0.0
 4 C  s               0.8       1.4       0.7       3.2       3.3       0.3
 4 C  pz              1.2       0.3       0.1       2.4       1.7       6.6
 4 C  px              2.9       3.9       0.2       1.4       9.3       4.1
 4 C  py              0.2       1.6       0.8       0.3       0.2       0.8
 4 C  dx2y2           0.0       0.0       0.0       0.0       0.0       0.1
 4 C  dxy             0.1       0.1       0.0       0.0       0.0       0.0
 5 O  s               0.0       0.4       0.2       2.6       5.1       4.5
 5 O  pz              0.1       0.0       0.0       3.1       1.9       0.9
 5 O  px              0.1       0.3       0.1       0.4      10.9       0.9
 5 O  py              0.0       0.4       0.4       1.2       9.9      13.4
 5 O  dz2             0.0       0.1       0.0       0.1       0.1       0.3
 5 O  dxz             0.0       0.0       0.0       0.0       0.5       0.2
 5 O  dyz             0.1       0.0       0.0       0.3       0.1       0.1
 5 O  dx2y2           0.1       0.0       0.1       0.0       0.0       0.1
 5 O  dxy             0.1       0.2       0.0       0.0       0.6       0.1
 6 O  s               0.7       1.2       0.9       5.1       0.3       0.6
 6 O  pz              2.1       0.0       1.4       9.0       3.6      14.9
 6 O  px             11.7       0.1       1.0      10.7       0.8       8.7
 6 O  py              0.3       0.1       0.1       4.3       1.1       0.5
 6 O  dz2             0.5       0.2       0.0       0.1       0.0       0.5
 6 O  dxz             0.0       0.3       0.1       0.1       0.8       0.2
 6 O  dyz             0.1       0.0       0.0       0.1       0.1       0.2
 6 O  dx2y2           0.6       0.8       0.1       0.1       0.4       0.1
 6 O  dxy             0.9       0.3       0.1       0.1       0.5       0.0
 7 C  s              16.9       4.6       1.2       4.9       0.0       0.4
 7 C  pz              0.1       0.0       0.1       0.8       2.9       9.4
 7 C  px              0.3       1.1       1.5       7.2       0.0       1.0
 7 C  py              0.0       0.2       0.7       7.8       2.7       0.9
 7 C  dz2             0.0       0.0       0.0       0.1       0.0       0.0
 7 C  dxy             0.0       0.0       0.1       0.5       0.0       0.0
 8 H  s               2.1       3.9       2.9       0.0       0.1       0.3
 8 H  pz              0.1       0.1       0.1       0.0       0.0       0.0
 8 H  py              0.1       0.2       0.1       0.0       0.0       0.0
 9 H  s               2.2       4.7       1.7       0.0       0.2       0.0
 9 H  px              0.1       0.3       0.0       0.0       0.0       0.0
 9 H  py              0.0       0.1       0.1       0.0       0.0       0.0
10 H  s               2.1       3.9       2.9       0.0       0.4       0.0
10 H  pz              0.2       0.3       0.2       0.0       0.0       0.0
11 H  s               0.5       0.6       6.8       0.3       0.0       0.8
11 H  pz              0.0       0.0       0.3       0.0       0.0       0.0
11 H  py              0.0       0.0       0.2       0.0       0.0       0.0
12 H  s               0.5       0.5       6.8       0.4       0.7       0.0
12 H  pz              0.0       0.0       0.5       0.0       0.0       0.0
13 H  s               0.7       2.6       4.1       1.6       0.0       0.6
13 H  pz              0.1       0.2       0.3       0.1       0.0       0.0
14 H  s               0.8       2.5       4.1       1.0       0.8       0.6
14 H  pz              0.0       0.1       0.2       0.1       0.0       0.0
14 H  py              0.1       0.1       0.1       0.0       0.0       0.0
15 H  s               1.5       2.2       0.4       2.7       1.3       3.5
15 H  pz              0.1       0.1       0.0       0.2       0.1       0.1
16 H  s               1.0       1.8       0.4       1.5       6.4       0.6
16 H  pz              0.0       0.1       0.0       0.1       0.2       0.0
16 H  py              0.1       0.1       0.0       0.0       0.1       0.1
17 H  s               3.8       1.6       0.9       3.5       0.1       0.5
17 H  pz              0.2       0.1       0.0       0.1       0.0       0.0
17 H  px              0.1       0.0       0.0       0.0       0.0       0.1
17 H  py              0.0       0.0       0.0       0.1       0.0       0.0
18 H  s               4.3       1.6       0.4       1.2       1.0       4.0
18 H  pz              0.3       0.1       0.0       0.1       0.0       0.1
19 H  s               3.4       1.4       0.9       6.3       1.3       0.4
19 H  py              0.3       0.1       0.0       0.3       0.0       0.0

                     18        19        20        21        22        23   
                  -0.45138  -0.43385  -0.39905  -0.38920  -0.37863  -0.36358
                   2.00000   2.00000   2.00000   2.00000   2.00000   2.00000
                  --------  --------  --------  --------  --------  --------
 0 C  pz              0.0       7.6       0.8       7.2       9.9       6.0
 0 C  px              0.6       0.1       8.7       2.3       8.4       5.1
 0 C  py              0.1       0.7       6.2       2.0       1.9       6.4
 0 C  dz2             0.0       0.0       0.0       0.0       0.0       0.1
 0 C  dxy             0.0       0.0       0.0       0.0       0.1       0.0
 1 C  s               0.0       0.0       0.1       0.1       0.3       0.1
 1 C  pz              0.0      18.3       1.1       7.0       1.4       0.5
 1 C  px              0.1       0.2       3.3       0.6       1.3       2.4
 1 C  py              1.1       1.4       7.7       0.0       5.8       0.3
 2 C  s               0.2       0.0       0.0       0.1       0.4       0.4
 2 C  pz              0.1      18.4       0.2       0.0       3.6       3.9
 2 C  px              1.4       0.2      10.5       0.1       1.0       0.7
 2 C  py              1.7       1.3       0.0       2.9       1.1       2.9
 2 C  dz2             0.0       0.0       0.0       0.0       0.0       0.1
 3 C  s               0.5       0.0       0.0       0.0       0.2       0.0
 3 C  pz              0.0       5.4       2.3       9.5       6.7       0.7
 3 C  px              2.4       0.1       0.3       3.1       7.5       0.7
 3 C  py              0.1       0.2       7.7       2.0       0.9       0.5
 4 C  s               0.2       0.3       0.1       0.2       0.1       0.0
 4 C  pz              2.7       1.5       1.3       1.1       0.1       4.4
 4 C  px              0.3       0.0       1.3       1.9       2.9       1.7
 4 C  py              9.1       0.7       0.7       3.7       0.0       3.3
 4 C  dz2             0.0       0.0       0.1       0.0       0.1       0.1
 4 C  dxz             0.0       0.1       0.0       0.1       0.1       0.1
 4 C  dyz             0.1       0.0       0.0       0.1       0.0       0.0
 4 C  dx2y2           0.0       0.0       0.1       0.2       0.0       0.1
 4 C  dxy             0.1       0.0       0.0       0.0       0.1       0.0
 5 O  s               3.3       1.7       0.3       0.9       0.0       0.0
 5 O  pz             13.7       1.5       0.0       7.8       0.1       7.2
 5 O  px              0.2       0.0       0.5       0.1       0.3       4.4
 5 O  py              0.9       6.6       4.8       3.4       0.7       6.8
 5 O  dz2             0.5       0.0       0.0       0.1       0.0       0.2
 5 O  dyz             0.1       0.0       0.0       0.1       0.0       0.0
 5 O  dx2y2           0.2       0.1       0.2       0.0       0.0       0.1
 5 O  dxy             0.0       0.0       0.0       0.2       0.0       0.0
 6 O  s               0.6       0.1       0.0       0.0       0.3       0.1
 6 O  pz              3.9       0.9       1.9       0.1       0.1       0.3
 6 O  px              0.3       3.5       1.1       0.5       4.1       0.4
 6 O  py             26.1       0.2       0.0       2.5       1.0       0.0
 6 O  dz2             0.1       0.0       0.3       0.0       0.3       0.5
 6 O  dxz             0.0       0.0       0.9       0.0       0.2       0.6
 6 O  dx2y2           0.9       0.1       0.1       0.2       0.0       0.2
 6 O  dxy             0.0       0.0       0.1       0.3       0.2       0.7
 7 C  s               0.4       0.1       0.0       0.0       0.1       0.0
 7 C  pz              1.4       0.9      13.0       1.9       7.4       6.1
 7 C  px             10.1       0.1       0.1       5.4       3.7       2.2
 7 C  py              5.9       2.5       1.0       7.3       0.4       3.2
 7 C  dz2             0.1       0.0       0.0       0.1       0.1       0.0
 7 C  dxz             0.0       0.0       0.0       0.0       0.0       0.1
 8 H  s               0.0       1.8       0.5       3.5       2.8       0.1
 9 H  s               0.3       0.0       5.8       0.3       4.4       5.2
 9 H  px              0.0       0.0       0.1       0.0       0.1       0.1
10 H  s               0.0       1.7       1.3       1.5       2.2       5.4
10 H  pz              0.0       0.0       0.1       0.0       0.0       0.1
11 H  s               0.1       4.0       0.7       1.5       1.8       0.0
11 H  py              0.0       0.2       0.0       0.1       0.0       0.0
12 H  s               0.1       3.9       1.7       1.5       0.3       0.3
13 H  s               0.4       4.0       0.0       0.0       0.7       4.5
13 H  pz              0.0       0.1       0.0       0.0       0.0       0.1
13 H  px              0.0       0.0       0.1       0.0       0.0       0.0
14 H  s               0.6       4.0       0.1       0.6       0.4       0.2
14 H  py              0.0       0.2       0.0       0.0       0.1       0.0
15 H  s               0.2       1.5       2.3       1.8       2.0       0.2
16 H  s               0.0       1.1       0.6       3.7       3.8       0.5
16 H  py              0.0       0.0       0.0       0.1       0.1       0.0
17 H  s               5.9       0.3       3.6       1.2       0.1       6.0
17 H  pz              0.2       0.0       0.0       0.1       0.0       0.1
17 H  px              0.0       0.0       0.1       0.0       0.1       0.1
18 H  s               0.4       0.3       4.4       3.2       5.7       1.2
18 H  pz              0.0       0.0       0.1       0.1       0.1       0.0
19 H  s               1.2       1.0       0.1       4.0       0.5       1.1
19 H  py              0.1       0.0       0.0       0.1       0.0       0.0

                     24        25        26        27        28        29   
                  -0.34307  -0.32570  -0.31769  -0.30153  -0.29521  -0.29029
                   2.00000   2.00000   2.00000   2.00000   2.00000   2.00000
                  --------  --------  --------  --------  --------  --------
 0 C  s               0.1       0.0       0.0       0.8       0.1       0.0
 0 C  pz              0.1       1.8      15.1       1.1       0.3       6.3
 0 C  px              1.8       1.4       0.8       4.1      13.9       0.3
 0 C  py             16.5       1.1       0.0      12.5       1.6       0.3
 0 C  dz2             0.1       0.0       0.2       0.1       0.1       0.1
 0 C  dyz             0.1       0.0       0.2       0.0       0.0       0.3
 0 C  dx2y2           0.1       0.0       0.0       0.1       0.3       0.0
 0 C  dxy             0.0       0.0       0.0       0.0       0.3       0.0
 1 C  s               0.0       0.0       0.0       0.6       0.1       0.0
 1 C  pz              0.7       0.3       4.6       1.4       0.3      17.8
 1 C  px              9.3       0.4       0.1       0.8      15.8       0.6
 1 C  py              3.0       0.0       0.0      19.7       2.9       0.8
 1 C  dz2             0.0       0.0       0.1       0.2       0.0       0.2
 1 C  dyz             0.0       0.0       0.1       0.0       0.0       0.7
 1 C  dx2y2           0.0       0.0       0.0       0.4       0.1       0.0
 1 C  dxy             0.0       0.0       0.0       0.1       0.4       0.0
 2 C  s               0.1       0.1       0.0       0.7       0.3       0.0
 2 C  pz              0.2       1.4       9.5       1.3       0.1      12.0
 2 C  px              0.2       1.3       0.2       0.2      19.6       0.5
 2 C  py             12.4       0.5       0.4      14.3       1.3       0.4
 2 C  dz2             0.0       0.0       0.1       0.2       0.0       0.1
 2 C  dyz             0.0       0.0       0.2       0.0       0.0       0.6
 2 C  dx2y2           0.0       0.0       0.0       0.4       0.0       0.0
 2 C  dxy             0.0       0.0       0.0       0.1       0.3       0.0
 3 C  s               0.3       0.3       0.1       0.6       0.3       0.0
 3 C  pz              0.9       0.7      14.4       1.0       0.0       2.1
 3 C  px              0.3       0.0       0.6       4.4       4.8       0.1
 3 C  py              8.6       3.0       0.1       6.1       1.5       0.1
 3 C  dz2             0.1       0.0       0.2       0.0       0.0       0.1
 3 C  dyz             0.0       0.1       0.3       0.0       0.0       0.2
 3 C  dx2y2           0.2       0.0       0.0       0.1       0.1       0.0
 3 C  dxy             0.0       0.0       0.0       0.0       0.2       0.0
 4 C  s               0.1       0.2       0.1       0.0       0.5       0.0
 4 C  pz              1.5       2.0       0.1       0.0       0.2       0.0
 4 C  px              0.9       0.1       0.0       0.1       1.3       0.0
 4 C  py              1.9       1.6       0.6       0.0       0.4       0.0
 4 C  dxz             0.0       0.0       0.2       0.0       0.1       0.0
 4 C  dyz             0.0       0.3       0.0       0.0       0.0       0.0
 4 C  dx2y2           0.1       0.5       0.1       0.1       0.0       0.0
 5 O  s               0.0       0.6       0.0       0.0       0.1       0.0
 5 O  pz              8.2       1.8       1.2       1.4       0.5       0.3
 5 O  px              0.2       1.6       1.5       0.4       4.3       0.5
 5 O  py              2.0       4.4       0.4       1.0       1.0       0.2
 5 O  dyz             0.0       0.3       0.0       0.0       0.1       0.0
 5 O  dx2y2           0.0       0.1       0.0       0.0       0.1       0.0
 6 O  s               0.1       2.7       0.8       0.1       0.5       0.1
 6 O  pz              0.0       8.8       2.2       0.1       0.0       1.9
 6 O  px              0.0       1.5       2.1       0.1       0.2       0.7
 6 O  py              0.6      17.7       0.7       0.2       6.8       0.3
 6 O  dxz             0.0       0.9       0.2       0.0       0.1       0.1
 6 O  dyz             0.0       0.1       0.0       0.0       0.1       0.0
 6 O  dx2y2           0.0       1.0       0.2       0.0       0.4       0.0
 6 O  dxy             0.1       0.4       0.2       0.0       0.0       0.1
 7 C  s               0.0       0.2       0.0       0.0       0.1       0.0
 7 C  pz              0.1       5.9       1.2       0.0       0.1       0.4
 7 C  px              0.9       0.2       1.0       0.0       0.3       0.2
 7 C  py              4.0      10.6       0.2       0.1       1.2       0.1
 7 C  dz2             0.0       0.2       0.0       0.0       0.0       0.0
 7 C  dxz             0.0       0.3       0.1       0.0       0.0       0.0
 7 C  dx2y2           0.1       0.4       0.0       0.0       0.1       0.0
 8 H  s               6.1       1.5       3.8       2.5       1.6       3.8
 8 H  pz              0.1       0.0       0.0       0.1       0.0       0.0
 8 H  px              0.0       0.0       0.0       0.0       0.1       0.0
 8 H  py              0.0       0.0       0.1       0.0       0.0       0.0
 9 H  s               0.4       1.3       0.6       0.2       9.8       0.1
 9 H  pz              0.0       0.0       0.1       0.0       0.0       0.0
10 H  s               0.6       0.3       8.4       1.8       0.3       4.7
10 H  px              0.0       0.0       0.0       0.1       0.1       0.0
11 H  s               0.5       0.2       0.8       5.3       1.6       9.9
11 H  pz              0.0       0.0       0.0       0.2       0.0       0.0
[...]
 3 C  dx2y2           2.9       0.0       0.1       0.0       0.0       0.0
 3 C  dxy             0.1       0.1       0.2       0.0       0.0       0.0
 4 C  s               0.7       0.2       2.7       5.2       0.1       0.0
 4 C  pz              0.2       0.6       2.8       2.8       0.0       0.0
 4 C  px              0.5       0.4       3.4       0.2       0.0       0.0
 4 C  py              0.4       0.4       0.7       5.0       0.0       0.0
 4 C  dz2             1.9       0.1       0.7       0.0       0.0       0.0
 4 C  dxz             0.0       0.9       6.5       0.3       0.0       0.0
 4 C  dyz             0.4       0.2       1.6       4.1       0.0       0.0
 4 C  dx2y2           1.5       0.1       0.6       1.9       0.0       0.0
 4 C  dxy             1.6       0.5       3.4       0.5       0.0       0.0
 5 O  s               0.7       1.1       0.6      18.4       0.0       0.0
 5 O  pz              0.7       0.5       0.0       7.7       0.0       0.0
 5 O  px              0.4       0.1       0.3       0.7       0.0       0.0
 5 O  py              0.1       0.5       0.3      13.5       0.0       0.0
 5 O  dz2             0.6       0.1       0.5       0.0       0.0       0.0
 5 O  dxz             1.2       0.0       0.1       1.1       0.0       0.0
 5 O  dyz             0.2       1.3       0.0      21.8       0.0       0.0
 5 O  dx2y2           0.4       0.6       0.1       9.3       0.0       0.0
 5 O  dxy             1.2       0.0       1.6       1.7       0.0       0.0
 6 O  s               2.0      24.0       6.5       0.9       0.0       0.0
 6 O  pz              0.8       0.4       8.4       0.1       0.0       0.0
 6 O  px              0.0       7.5      21.6       0.6       0.0       0.0
 6 O  py              0.6       6.0       0.4       0.2       0.0       0.0
 6 O  dz2             0.1       4.5       2.2       0.5       0.0       0.0
 6 O  dxz             0.0       4.9      13.0       0.1       0.0       0.0
 6 O  dyz             1.3       0.4       4.0       0.0       0.0       0.0
 6 O  dx2y2           0.4      10.4       0.6       0.5       0.0       0.0
 6 O  dxy             0.1       6.4      10.2       1.0       0.0       0.0
 7 C  s               0.0       1.8       0.6       0.2       2.0      18.2
 7 C  px              0.0       6.8       1.3       0.3       0.0       0.0
 7 C  py              0.0       1.1       0.6       0.1       0.0       0.0
 7 C  dz2             0.1       3.5       0.6       0.2       0.0       0.0
 7 C  dxz             0.3       0.3       0.0       0.0       0.0       0.0
 7 C  dx2y2           0.2       2.9       0.9       0.2       0.0       0.0
 7 C  dxy             0.0       7.0       1.1       0.3       0.0       0.0
11 H  s               0.5       0.0       0.0       0.0       0.0       0.0
11 H  pz              0.8       0.0       0.0       0.0       0.0       0.0
11 H  px              0.2       0.0       0.0       0.0       0.0       0.0
11 H  py              0.8       0.0       0.0       0.0       0.0       0.0
12 H  s               0.8       0.0       0.0       0.0       0.0       0.0
12 H  pz              2.5       0.0       0.0       0.0       0.0       0.0
12 H  py              0.1       0.0       0.0       0.0       0.0       0.0
13 H  s               2.2       0.0       0.0       0.0       0.0       0.0
13 H  pz              5.9       0.0       0.0       0.0       0.0       0.0
13 H  px              0.1       0.0       0.0       0.0       0.0       0.0
13 H  py              0.3       0.0       0.0       0.0       0.0       0.0
14 H  s               1.2       0.0       0.0       0.0       0.0       0.0
14 H  pz              2.4       0.0       0.0       0.0       0.0       0.0
14 H  py              1.5       0.0       0.0       0.0       0.0       0.0
15 H  s               0.6       0.0       0.0       0.0       0.0       0.0
15 H  pz              2.2       0.0       0.0       0.0       0.0       0.0
15 H  py              0.1       0.0       0.0       0.0       0.0       0.0
16 H  s               1.8       0.0       0.1       0.0       0.0       0.0
16 H  pz              2.6       0.0       0.1       0.0       0.0       0.0
16 H  py              2.6       0.1       0.0       0.0       0.0       0.0
17 H  s               0.0       0.5       0.0       0.0       0.0       0.0
17 H  pz              0.0       0.7       0.0       0.0       0.0       0.0
17 H  py              0.1       0.4       0.0       0.0       0.0       0.0
18 H  s               0.1       0.3       0.1       0.0       0.0       0.0
18 H  pz              0.2       0.6       0.1       0.0       0.0       0.0
18 H  px              0.0       0.1       0.0       0.0       0.0       0.0
18 H  py              0.0       0.2       0.0       0.0       0.0       0.0
19 H  s               0.0       0.2       0.1       0.0       0.0       0.0
19 H  px              0.2       0.2       0.1       0.0       0.0       0.0
19 H  py              0.1       0.2       0.1       0.0       0.0       0.0

                    216       217       218       219       220       221   
                  21.98732  21.99888  22.05070  22.25263  43.64795  43.69318
                   0.00000   0.00000   0.00000   0.00000   0.00000   0.00000
                  --------  --------  --------  --------  --------  --------
 0 C  s              11.5       2.6       1.8       0.0       0.0       0.0
 1 C  s              33.4      34.4       3.2       0.0       0.0       0.0
 2 C  s               1.4      54.8       5.0       1.4       0.0       0.0
 3 C  s               4.1       0.3      65.6       0.0       0.0       0.0
 4 C  s               0.4       1.4       0.0      97.1       0.0       0.0
 5 O  s               0.0       0.0       0.0       0.2      85.9      14.0
 6 O  s               0.0       0.0       0.1       0.1      14.0      85.9
 7 C  s              48.7       6.4      23.9       0.5       0.0       0.0



                      *****************************
                      * MAYER POPULATION ANALYSIS *
                      *****************************

  NA   - Mulliken gross atomic population
  ZA   - Total nuclear charge
  QA   - Mulliken gross atomic charge
  VA   - Mayer's total valence
  BVA  - Mayer's bonded valence
  FA   - Mayer's free valence

  ATOM       NA         ZA         QA         VA         BVA        FA
  0 C      6.5101     6.0000    -0.5101     3.7786     3.7786    -0.0000
  1 C      6.2485     6.0000    -0.2485     3.6540     3.6540    -0.0000
  2 C      6.2762     6.0000    -0.2762     3.6801     3.6801    -0.0000
  3 C      6.3545     6.0000    -0.3545     3.8063     3.8063    -0.0000
  4 C      5.5493     6.0000     0.4507     3.7402     3.7402    -0.0000
  5 O      8.5194     8.0000    -0.5194     1.8753     1.8753    -0.0000
  6 O      8.2080     8.0000    -0.2080     1.9798     1.9798    -0.0000
  7 C      6.3241     6.0000    -0.3241     3.7352     3.7352    -0.0000
  8 H      0.8459     1.0000     0.1541     0.9608     0.9608    -0.0000
  9 H      0.8416     1.0000     0.1584     0.9588     0.9588    -0.0000
 10 H      0.8450     1.0000     0.1550     0.9609     0.9609    -0.0000
 11 H      0.8512     1.0000     0.1488     0.9588     0.9588    -0.0000
 12 H      0.8488     1.0000     0.1512     0.9594     0.9594    -0.0000
 13 H      0.8429     1.0000     0.1571     0.9591     0.9591    -0.0000
 14 H      0.8393     1.0000     0.1607     0.9582     0.9582    -0.0000
 15 H      0.8080     1.0000     0.1920     0.9496     0.9496     0.0000
 16 H      0.8224     1.0000     0.1776     0.9569     0.9569    -0.0000
 17 H      0.8205     1.0000     0.1795     0.9481     0.9481    -0.0000
 18 H      0.8231     1.0000     0.1769     0.9509     0.9509    -0.0000
 19 H      0.8214     1.0000     0.1786     0.9549     0.9549    -0.0000

  Mayer bond orders larger than 0.100000
B(  0-C ,  1-C ) :   0.8898 B(  0-C ,  8-H ) :   0.9812 B(  0-C ,  9-H ) :   0.9722 
B(  0-C , 10-H ) :   0.9805 B(  1-C ,  2-C ) :   0.9176 B(  1-C , 11-H ) :   0.9681 
B(  1-C , 12-H ) :   0.9792 B(  2-C ,  3-C ) :   0.9057 B(  2-C , 13-H ) :   0.9582 
B(  2-C , 14-H ) :   0.9710 B(  3-C ,  4-C ) :   0.9707 B(  3-C , 15-H ) :   0.9574 
B(  3-C , 16-H ) :   0.9730 B(  4-C ,  5-O ) :   1.7504 B(  4-C ,  6-O ) :   1.0795 
B(  6-O ,  7-C ) :   0.8297 B(  7-C , 17-H ) :   0.9520 B(  7-C , 18-H ) :   0.9601 
B(  7-C , 19-H ) :   0.9611 

-------
TIMINGS
-------

Total SCF time: 0 days 0 hours 0 min 30 sec 

Total time                  ....      30.155 sec
Sum of individual times     ....      29.632 sec  ( 98.3%)

SCF preparation             ....       0.347 sec  (  1.2%)
Fock matrix formation       ....      28.073 sec  ( 93.1%)
  Startup                   ....       0.069 sec  (  0.2% of F)
  Split-RI-J                ....       4.453 sec  ( 15.9% of F)
  XC integration            ....      18.069 sec  ( 64.4% of F)
    Basis function eval.    ....       3.280 sec  ( 18.2% of XC)
    Density eval.           ....       5.458 sec  ( 30.2% of XC)
    XC-Functional eval.     ....       2.465 sec  ( 13.6% of XC)
    XC-Potential eval.      ....       5.867 sec  ( 32.5% of XC)
  CPCM terms                ....       4.912 sec  ( 17.5% of F)
Diagonalization             ....       0.000 sec  (  0.0%)
Density matrix formation    ....       0.264 sec  (  0.9%)
Total Energy calculation    ....       0.046 sec  (  0.2%)
Population analysis         ....       0.125 sec  (  0.4%)
Orbital Transformation      ....       0.275 sec  (  0.9%)
Orbital Orthonormalization  ....       0.000 sec  (  0.0%)
DIIS solution               ....       0.447 sec  (  1.5%)
  MO trafo                  ....       0.000 sec  (  0.0 % of DIIS)
  Orb grad                  ....       0.000 sec  (  0.0 % of DIIS)
  Energy W gradient         ....       0.000 sec  (  0.0 % of DIIS)
  DIIS error                ....       0.016 sec  (  3.6 % of DIIS)
  DIIS work                 ....       0.366 sec  ( 82.0 % of DIIS)
  Form Q                    ....       0.000 sec  (  0.0 % of DIIS)
  Form QpQm                 ....       0.000 sec  (  0.0 % of DIIS)
  Exp/Cayley                ....       0.000 sec  (  0.0 % of DIIS)
  Orb update                ....       0.000 sec  (  0.0 % of DIIS)
  Wake-sleep                ....       0.028 sec  (  6.4 % of DIIS)
SOSCF solution              ....       0.055 sec  (  0.2%)
  MO trafo                  ....       0.042 sec  ( 76.7 % of SOSCF)
  Orb grad                  ....       0.001 sec  (  1.0 % of SOSCF)
  Rot update                ....       0.000 sec  (  0.1 % of SOSCF)
  Step                      ....       0.012 sec  ( 22.0 % of SOSCF)
Finished LeanSCF after  30.3 sec

Maximum memory used throughout the entire LEANSCF-calculation: 29.7 MB


-------------------------------------------------------------------------------
                          DFT DISPERSION CORRECTION                            
                                                                               
                                DFTD4 V3.4.0                                   
-------------------------------------------------------------------------------
The R2SCAN3C composite method is recognized
Using three-body term ABC
Active option DFTDOPT                   ...         5   

-------------------------   ----------------
Dispersion correction           -0.004876615
-------------------------   ----------------

------------------   -----------------
gCP correction             0.011957043
------------------   -----------------

-------------------------   --------------------
FINAL SINGLE POINT ENERGY      -386.234816288337
-------------------------   --------------------


------------------------------------------------------------------------------
                              ORCA PROPERTY CALCULATIONS
------------------------------------------------------------------------------

GBWName                                 ... sp_solv.gbw
Number of atoms                         ...     20
Number of basis functions               ...    222
Max core memory                         ...   1024 MB

Electric properties:
Dipole moment                           ... YES
Quadrupole moment                       ...  NO
Static polarizability (Dipole/Dipole)   ...  NO
Static polarizability (Dipole/Quad.)    ...  NO
Static polarizability (Quad./Quad.)     ...  NO
Static polarizability (Velocity)        ...  NO

Atomic electric properties:
Dipole moment                           ...  NO
Quadrupole moment                       ...  NO
Static polarizability                   ...  NO

Choice of electric origin               ... Center of mass
Position of electric origin             ...    -0.000038    -0.000005     0.000008

General magnetic properties:
Magnetizability                         ...  NO

EPR properties:
g-Tensor (aka g-matrix)                 ...  NO
Zero-Field splitting spin-orbit         ...  NO
Zero-field splitting spin-spin          ...  NO
Hyperfine couplings                     ...  NO (   0 nuclei)
Quadrupole couplings                    ...  NO (   0 nuclei)
Contact density                         ...  NO (   0 nuclei)

NMR properties:
Chemical shifts                         ...  NO (   0 nuclei)
Spin-rotation constants                 ...  NO (   0 nuclei)
Spin-spin couplings                     ...  NO (   0 nuclei,    0 pairs)

Choice of magnetic origin               ... GIAO
Position of magnetic origin             ...     0.000000     0.000000     0.000000

Properties with geometric perturbations:
SCF Hessian                             ...  NO
IR spectrum                             ...  NO
VCD spectrum                            ...  NO
X-ray spectroscopy properties:
SCF XES/XAS/RIXS spectra                ...  NO


-------------
DIPOLE MOMENT
-------------

Method             : SCF
Type of density    : Electron Density
Multiplicity       :   1
Irrep              :   0
Energy             :  -386.2418967165098138 Eh
Relativity type    : 
Basis              : AO
                                X                 Y                 Z
Electronic contribution:      9.384677116       0.051029996      -1.731295952
Nuclear contribution   :     -9.333048765      -0.826739004       2.517649498
                        -----------------------------------------
Total Dipole Moment    :      0.051628351      -0.775709007       0.786353546
                        -----------------------------------------
Magnitude (a.u.)       :      1.105776582
Magnitude (Debye)      :      2.810660705



--------------------
Rotational spectrum 
--------------------
 
Rotational constants in cm-1:             0.199511             0.025542             0.024618 
Rotational constants in MHz :          5981.179630           765.740141           738.034064 

Dipole components along the rotational axes: 
x,y,z [a.u.] :     0.022827    -1.104872     0.038460 
x,y,z [Debye]:     0.058022    -2.808361     0.097758 

 

Dipole moment calculation done in   0.0 sec 

Maximum memory used throughout the entire PROP-calculation: 13.4 MB

--------------------------------
SUGGESTED CITATIONS FOR THIS RUN
--------------------------------

Below you find a list of papers that are relevant to this ORCA run
We neither can nor want to force you to cite these papers, but we appreciate if you do
You receive ORCA, which is the product of decades of hard work by many enthusiastic individuals, for free
The only thing we kindly ask in return is that you cite our papers,
We deeply appreciate it, if you show your appreciation for ORCA by not just citing the generic ORCA reference.

Please note that relegating all ORCA citations to the supporting information does *not* help us.
SI sections are not indexed - citations you put there will not count into any citation statistics
But we need these citations in order to attract the funding resources that allow us to do what we are doing

Therefore, if you are a happy ORCA user, please consider citing a few of the papers listed below in the main body of your paper

In addition to the list printed below, the program has created the file sp_solv.bibtex that contains the list in bibtex format
You can import this file easily into all common literature databanks and citation aid programs


List of essential papers. We consider these as the minimum necessary citations

  1. Neese,F.
     Software update: the ORCA program system, version 5.0
     WIRES Comput. Molec. Sci., 2022 12(1)e1606
     doi.org/10.1002/wcms.1606
  2. Grimme,S.; Hansen,A.; Ehlert,S.; Mewes,J.
     r2SCAN-3c: A 'Swiss army knife' composite electronic-structure method
     J. Chem. Phys., 2021 154 064103
     doi.org/10.1063/5.0040021

List of papers to cite with high priority. The work reported in these papers was absolutely
necessary for this run to complete.
Our perspective: the developers of density functionals and basis sets usually get cited in chemistry papers
Good! But without the algorithms to do something with them, the functionals or basis sets would not do anything.
Hence, in our opinion, the algorithm design and method developments papers are equally worthy of getting cited

  1. Neese,F.
     An improvement of the resolution of the identity approximation for the formation of the Coulomb matrix
     J. Comp. Chem., 2003 24(14)1740-1747
     doi.org/10.1002/jcc.10318
  2. Garcia-Rates,M.; Neese,F.
     Effect of the Solute Cavity on the Solvation Energy and its Derivatives within the Framework of the Gaussian Charge Scheme
     J. Comput. Chem., 2020 41 922-939
     doi.org/10.1002/jcc.26139
  3. Neese,F.
     The SHARK Integral Generation and Digestion System
     J. Comp. Chem., 2022  1-16
     doi.org/10.1002/jcc.26942
  4. Lehtola,S.; Steigemann,C.; Oliveira,M.; Marques,M.
     Recent developments in Libxc - A comprehensive library of functionals for density functional theory
     Software X, 2018 7 
     doi.org/10.1016/j.softx.2017.11.002
  5. Caldeweyher,E.; Bannwarth,C.; Grimme,S.
     Extension of the D3 dispersion coefficient model
     J. Chem. Phys., 2017 147 034112-XXXX
     doi.org/10.1063/1.4993215
  6. Caldeweyher,E.; Ehlert,S.; Hansen,A.; Neugebauer,H.; Spicher,S.; Bannwarth,C.; Grimme,S.
     A generally applicable atomic-charge dependent London dispersion correction
     J. Chem. Phys., 2019 150 154122-XXXX
     doi.org/10.1063/1.5090222
  7. Caldeweyher,E.; Mewes,J.; Ehlert,S.; Grimme,S.
     Extension and evaluation of the D4 London-dispersion model for periodic systems
     Phys. Chem. Chem. Phys., 2020 22(16)8499-8512
     doi.org/10.1039/D0CP00502A

List of suggested additional citations. These are papers that are important in the 'surrounding' of 
of this run, or papers that preceded the highly important papers. If you like your results we are grateful for a citation.

  1. Neese,F.
     The ORCA program system
     WIRES Comput. Molec. Sci., 2012 2(1)73-78
     doi.org/10.1002/wcms.81
  2. Neese,F.
     Software update: the ORCA program system, version 4.0
     WIRES Comput. Molec. Sci., 2018 8(1)1-6
     doi.org/10.1002/wcms.1327
  3. Neese,F.; Wennmohs,F.; Becker,U.; Riplinger,C.
     The ORCA quantum chemistry program package
     J. Chem. Phys., 2020 152 Art. No. L224108
     doi.org/10.1063/5.0004608

List of optional additional citations

  1. Neese,F.
     Approximate second-order SCF convergence for spin unrestricted wavefunctions
     Chem. Phys. Lett., 2000 325(1-3)93-98
     doi.org/10.1016/s0009-2614(00)00662-x

Timings for individual modules:

Sum of individual times          ...       31.974 sec (=   0.533 min)
Startup calculation              ...        1.247 sec (=   0.021 min)   3.9 %
SCF iterations                   ...       30.617 sec (=   0.510 min)  95.8 %
Property calculations            ...        0.110 sec (=   0.002 min)   0.3 %
                             ****ORCA TERMINATED NORMALLY****
TOTAL RUN TIME: 0 days 0 hours 0 minutes 32 seconds 735 msec
