      -----------------------------------------------------------      
     |                   =====================                   |     
     |                           x T B                           |     
     |                   =====================                   |     
     |                         S. Grimme                         |     
     |          Mulliken Center for Theoretical Chemistry        |     
     |                    University of Bonn                     |     
      -----------------------------------------------------------      

   * xtb version 6.7.1 (edcfbbe) compiled by 'albert@albert-system' on 2024-07-22

   xtb is free software: you can redistribute it and/or modify it under
   the terms of the GNU Lesser General Public License as published by
   the Free Software Foundation, either version 3 of the License, or
   (at your option) any later version.
   
   xtb is distributed in the hope that it will be useful,
   but WITHOUT ANY WARRANTY; without even the implied warranty of
   MERCHANTABILITY or FITNESS FOR A PARTICULAR PURPOSE.  See the
   GNU Lesser General Public License for more details.
   
   Cite this work as:
   * C. Bannwarth, E. Caldeweyher, S. Ehlert, A. Hansen, P. Pracht,
     J. Seibert, S. Spicher, S. Grimme, WIREs Comput. Mol. Sci., 2020, 11,
     e01493. DOI: 10.1002/wcms.1493
   
   for GFN2-xTB:
   * C. Bannwarth, S. Ehlert and S. Grimme., J. Chem. Theory Comput., 2019,
     15, 1652-1671. DOI: 10.1021/acs.jctc.8b01176
   for GFN1-xTB:
   * S. Grimme, C. Bannwarth, P. Shushkov, J. Chem. Theory Comput., 2017,
     13, 1989-2009. DOI: 10.1021/acs.jctc.7b00118
   for GFN0-xTB:
   * P. Pracht, E. Caldeweyher, S. Ehlert, S. Grimme, ChemRxiv, 2019, preprint.
     DOI: 10.26434/chemrxiv.8326202.v1
   for GFN-FF:
   * S. Spicher and S. Grimme, Angew. Chem. Int. Ed., 2020, 59, 15665-15673.
     DOI: 10.1002/anie.202004239
   
   for ALPB and GBSA implicit solvation:
   * S. Ehlert, M. Stahn, S. Spicher, S. Grimme, J. Chem. Theory Comput.,
     2021, 17, 4250-4261. DOI: 10.1021/acs.jctc.1c00471
   
   for ddCOSMO and CPCM-X implicit solvation:
   * M. Stahn, S. Ehlert, S. Grimme, J. Phys. Chem. A,
     2023, XX, XXXX-XXXX. DOI: 10.1021/acs.jpca.3c04382
   
   for DFT-D4:
   * E. Caldeweyher, C. Bannwarth and S. Grimme, J. Chem. Phys., 2017,
     147, 034112. DOI: 10.1063/1.4993215
   * E. Caldeweyher, S. Ehlert, A. Hansen, H. Neugebauer, S. Spicher,
     C. Bannwarth and S. Grimme, J. Chem. Phys., 2019, 150, 154122.
     DOI: 10.1063/1.5090222
   * E. Caldeweyher, J.-M. Mewes, S. Ehlert and S. Grimme, Phys. Chem. Chem. Phys.
     2020, 22, 8499-8512. DOI: 10.1039/D0CP00502A
   
   for sTDA-xTB:
   * S. Grimme and C. Bannwarth, J. Chem. Phys., 2016, 145, 054103.
     DOI: 10.1063/1.4959605
   
   in the mass-spec context:
   * V. Asgeirsson, C. Bauer and S. Grimme, Chem. Sci., 2017, 8, 4879.
     DOI: 10.1039/c7sc00601b
   * J. Koopman and S. Grimme, ACS Omega 2019, 4, 12, 15120-15133.
     DOI: 10.1021/acsomega.9b02011
   
   for metadynamics refer to:
   * S. Grimme, J. Chem. Theory Comput., 2019, 155, 2847-2862
     DOI: 10.1021/acs.jctc.9b00143
   
   for SPH calculations refer to:
   * S. Spicher and S. Grimme, J. Chem. Theory Comput., 2021, 17, 1701-1714
     DOI: 10.1021/acs.jctc.0c01306
   
   for ONIOM refer to:
   * C. Plett, A. Katbashev, S. Ehlert, S. Grimme, M. Bursch,
     Phys. Chem. Chem. Phys., 2023, 25, 17860-17868. DOI: 10.1039/D3CP02178E
   
   for DIPRO refer to:
   * J. Kohn, N. Gildemeister, S. Grimme, D. Fazzi, A. Hansen,
     J. Chem. Phys., 2023, just accepted.
   
   for PTB refer to:
   * S. Grimme, M. Mueller, A. Hansen, J. Chem. Phys., 2023, 158, 124111.
     DOI: 10.1063/5.0137838
   
   with help from (in alphabetical order)
   P. Atkinson, C. Bannwarth, F. Bohle, G. Brandenburg, E. Caldeweyher
   M. Checinski, S. Dohm, S. Ehlert, S. Ehrlich, I. Gerasimov, C. Hölzer
   A. Katbashev, J. Kohn, J. Koopman, C. Lavigne, S. Lehtola, F. März, M. Müller,
   F. Musil, H. Neugebauer, J. Pisarek, C. Plett, P. Pracht, F. Pultar,
   J. Seibert, P. Shushkov, S. Spicher, M. Stahn, M. Steiner, T. Strunk,
   J. Stückrath, T. Rose, and J. Unsleber
   
 * started run on 2025/04/11 at 12:31:12.647     
   ID    Z sym.   atoms
    1    6 C      1-3, 5-7
    2    7 N      4
    3    1 H      8-22

           -------------------------------------------------
          |                Calculation Setup                |
           -------------------------------------------------

          program call               : /srv/scratch/z5358697/.xtb/bin/xtb xtb_opt.coord --opt normal --orca -I xtb_opt-xcontrol-inp
          hostname                   : k062
          coordinate file            : xtb_opt.coord
          omp threads                :                    12

           -------------------------------------------------
          |                   Orca driver                   |
           -------------------------------------------------
orca executable           : /apps/z_install_tree/linux-rocky8-ivybridge/gcc-12.2.0/orca-6.0.0-srtngmq3qlimg2qxbl6avaaiffipurdx/bin/orca
orca input file           : xtb_opt.inp
orca input line           : 
orca parallel             : true
orca number of threads    : 12
                         * ORCA takes the control...
  ------------------------------------------------------------------------

                                 *****************
                                 * O   R   C   A *
                                 *****************

                                            #,                                       
                                            ###                                      
                                            ####                                     
                                            #####                                    
                                            ######                                   
                                           ########,                                 
                                     ,,################,,,,,                         
                               ,,#################################,,                 
                          ,,##########################################,,             
                       ,#########################################, ''#####,          
                    ,#############################################,,   '####,        
                  ,##################################################,,,,####,       
                ,###########''''           ''''###############################       
              ,#####''   ,,,,##########,,,,          '''####'''          '####       
            ,##' ,,,,###########################,,,                        '##       
           ' ,,###''''                  '''############,,,                           
         ,,##''                                '''############,,,,        ,,,,,,###''
      ,#''                                            '''#######################'''  
     '                                                          ''''####''''         
             ,#######,   #######,   ,#######,      ##                                
            ,#'     '#,  ##    ##  ,#'     '#,    #''#        ,####,   ,####,        
            ##       ##  ##   ,#'  ##            #'  '#       #'       #'  '#        
            ##       ##  #######   ##           ,######,      #####,   #    #        
            '#,     ,#'  ##    ##  '#,     ,#' ,#      #,     #,   #   #,  ,#        
             '#######'   ##     ##  '#######'  #'      '#     '####' # '####'        



                #########################################################
                #                        -***-                          #
                #          Department of theory and spectroscopy        #
                #                                                       #
                #                      Frank Neese                      #
                #                                                       #
                #     Directorship, Architecture, Infrastructure        #
                #                    SHARK, DRIVERS                     #
                #        Core code/Algorithms in most modules           #
                #                                                       #
                #        Max Planck Institute fuer Kohlenforschung      #
                #                Kaiser Wilhelm Platz 1                 #
                #                 D-45470 Muelheim/Ruhr                 #
                #                      Germany                          #
                #                                                       #
                #                  All rights reserved                  #
                #                        -***-                          #
                #########################################################


                         Program Version 6.0.0  -   RELEASE  -


 With contributions from (in alphabetic order):
   Daniel Aravena         : Magnetic Suceptibility
   Michael Atanasov       : Ab Initio Ligand Field Theory (pilot matlab implementation)
   Alexander A. Auer      : GIAO ZORA, VPT2 properties, NMR spectrum
   Ute Becker             : All parallelization in ORCA, NUMFREQ, NUMCALC
   Giovanni Bistoni       : ED, misc. LED, open-shell LED, HFLD
   Martin Brehm           : Molecular dynamics
   Dmytro Bykov           : pre 5.0 version of the SCF Hessian
   Marcos Casanova-Páez   : Triplet and SCS-CIS(D). UHF-(DLPNO)-IP/EA/STEOM-CCSD. UHF-CVS-IP/STEOM-CCSD
   Vijay G. Chilkuri      : MRCI spin determinant printing, contributions to CSF-ICE
   Pauline Colinet        : FMM embedding
   Dipayan Datta          : RHF DLPNO-CCSD density
   Achintya Kumar Dutta   : EOM-CC, STEOM-CC
   Nicolas Foglia         : Exact transition moments, OPA infrastructure, MCD improvements
   Dmitry Ganyushin       : Spin-Orbit,Spin-Spin,Magnetic field MRCI
   Miquel Garcia          : C-PCM and meta-GGA Hessian, CCSD/C-PCM, Gaussian charge scheme
   Tiago L. C. Gouveia    : GS-ROHF, GS-ROCIS
   Yang Guo               : DLPNO-NEVPT2, F12-NEVPT2, CIM, IAO-localization
   Andreas Hansen         : Spin unrestricted coupled pair/coupled cluster methods
   Ingolf Harden          : AUTO-CI MPn and infrastructure 
   Benjamin Helmich-Paris : MC-RPA, TRAH-(SCF,CASSCF), AVAS, COSX integrals, SCF dyn. polar.
   Lee Huntington         : MR-EOM, pCC
   Robert Izsak           : Overlap fitted RIJCOSX, COSX-SCS-MP3, EOM
   Riya Kayal             : Wick's Theorem for AUTO-CI, AUTO-CI UHF-CCSDT
   Emily Kempfer          : AUTO-CI, RHF CISDT and CCSDT
   Christian Kollmar      : KDIIS, OOCD, Brueckner-CCSD(T), CCSD density, CASPT2, CASPT2-K, improved NEVPT2
   Axel Koslowski         : Symmetry handling
   Simone Kossmann        : Meta GGA functionals, TD-DFT gradient, OOMP2, (MP2 Hessian; deprecated post 5.0)
   Lucas Lang             : DCDCAS
   Marvin Lechner         : AUTO-CI (C++ implementation), FIC-MRCC
   Spencer Leger          : CASSCF response
   Dagmar Lenk            : GEPOL surface, SMD, ORCA-2-JSON
   Dimitrios Liakos       : Extrapolation schemes; Compound Job, initial MDCI parallelization
   Dimitrios Manganas     : Further ROCIS development; embedding schemes. LFT, Crystal Embedding
   Dimitrios Pantazis     : SARC Basis sets
   Anastasios Papadopoulos: AUTO-CI, single reference methods and gradients
   Taras Petrenko         : pre 6.0 DFT Hessian and TD-DFT gradient, (ASA, deprecated), ECA, 1-Electron XAS/XES, NRVS
   Peter Pinski           : DLPNO-MP2, DLPNO-MP2 Gradient
   Christoph Reimann      : Effective Core Potentials
   Marius Retegan         : Local ZFS, SOC
   Christoph Riplinger    : Optimizer, TS searches, QM/MM, DLPNO-CCSD(T), (RO)-DLPNO pert. Triples
   Michael Roemelt        : Original ROCIS implementation
   Masaaki Saitow         : Open-shell DLPNO-CCSD energy and density
   Barbara Sandhoefer     : DKH picture change effects
   Kantharuban Sivalingam : CASSCF convergence/infrastructure, NEVPT2 and variants, FIC-MRCI
   Bernardo de Souza      : ESD, SOC TD-DFT
   Georgi Stoychev        : AutoAux, RI-MP2 NMR, DLPNO-MP2 response, X2C
   Van Anh Tran           : RI-MP2 g-tensors
   Willem Van den Heuvel  : Paramagnetic NMR
   Zikuan Wang            : NOTCH, Electric field optimization 
   Frank Wennmohs         : Technical directorship and infrastructure
   Hang Xu                : AUTO-CI-Response properties 


 We gratefully acknowledge several colleagues who have allowed us to
 interface, adapt or use parts of their codes:
   Stefan Grimme, W. Hujo, H. Kruse, P. Pracht,  : VdW corrections, initial TS optimization,
                  C. Bannwarth, S. Ehlert,         DFT functionals, gCP, sTDA/sTD-DF
                  L. Wittmann, M. Mueller
   Ed Valeev, F. Pavosevic, A. Kumar             : LibInt (2-el integral package), F12 methods
   Garnet Chan, S. Sharma, J. Yang, R. Olivares  : DMRG
   Ulf Ekstrom                                   : XCFun DFT Library
   Mihaly Kallay                                 : mrcc  (arbitrary order and MRCC methods)
   Frank Weinhold                                : gennbo (NPA and NBO analysis)
   Simon Mueller                                 : openCOSMO-RS
   Christopher J. Cramer and Donald G. Truhlar   : smd solvation model
   Lars Goerigk                                  : TD-DFT with DH, B97 family of functionals
   V. Asgeirsson, H. Jonsson                     : NEB implementation
   FAccTs GmbH                                   : IRC, NEB, NEB-TS, DLPNO-Multilevel, CI-OPT
                                                   MM, QMMM, 2- and 3-layer-ONIOM, Crystal-QMMM,
                                                   LR-CPCM, SF, NACMEs, symmetry and pop. for TD-DFT,
                                                   nearIR, NL-DFT gradient (VV10), updates on ESD,
                                                   ML-optimized integration grids, MBIS, APM,
                                                   GOAT, DOCKER, SOLVATOR, interface openCOSMO-RS
   S Lehtola, MJT Oliveira, MAL Marques          : LibXC Library
   Liviu Ungur et al                             : ANISO software


 Your calculation uses the libint2 library for the computation of 2-el integrals
 For citations please refer to: http://libint.valeyev.net

 Your ORCA version has been built with support for libXC version: 6.2.2
 For citations please refer to: https://libxc.gitlab.io

 This ORCA versions uses:
   CBLAS   interface :  Fast vector & matrix operations
   LAPACKE interface :  Fast linear algebra routines
   SCALAPACK package :  Parallel linear algebra routines
   Shared memory     :  Shared parallel matrices
   BLAS/LAPACK       :  OpenBLAS 0.3.27  USE64BITINT DYNAMIC_ARCH NO_AFFINITY SkylakeX SINGLE_THREADED
        Core in use  :  SkylakeX
   Copyright (c) 2011-2014, The OpenBLAS Project




***************************************
The coordinates will be read from file: xtb_opt.xyz
***************************************


Your calculation utilizes the geometrical counterpoise correction gCP
Please cite in your paper:
H.Kruse, S. Grimme J.Chem.Phys., 136, (2012), 154101 
   

Your calculation utilizes the atom-pairwise dispersion correction
based on EEQ partial charges (D4)


Your calculation utilizes the SMD solvation module
Please cite in your paper:
A.V. Marenich, C.J. Cramer, D.G. Truhlar J. Phys. Chem. B, 113, (2009), 6378 

================================================================================

----- Orbital basis set information -----
Your calculation utilizes the basis: def2-mTZVPP
   Stefan Grimme, Andreas Hansen, Sebastian Ehlert, and Jan-Michael Mewes 
   J. Chem. Phys. 154, 064103 (2021). DOI: 10.1063/5.0040021

----- AuxJ basis set information -----
Your calculation utilizes the auxiliary basis: def2/J
   F. Weigend, Phys. Chem. Chem. Phys. 8, 1057 (2006).

================================================================================
                                        WARNINGS
                       Please study these warnings very carefully!
================================================================================

WARNING: Old DensityContainer found on disk!
         Will remove this file - 
         If you want to keep old densities, please start your calculation with a different basename. 

Using LibXC functional ID 497 : Re-regularized SCAN exchange by Furness et al
[ 1]  J. W. Furness, A. D. Kaplan, J. Ning, J. P. Perdew, and J. Sun.,  J. Phys. Chem. Lett. 11, 8208-8215 (2020)
[ 2]  J. W. Furness, A. D. Kaplan, J. Ning, J. P. Perdew, and J. Sun.,  J. Phys. Chem. Lett. 11, 9248-9248 (2020)
Using LibXC functional ID 498 : Re-regularized SCAN correlation by Furness et al
[ 1]  J. W. Furness, A. D. Kaplan, J. Ning, J. P. Perdew, and J. Sun.,  J. Phys. Chem. Lett. 11, 8208-8215 (2020)
[ 2]  J. W. Furness, A. D. Kaplan, J. Ning, J. P. Perdew, and J. Sun.,  J. Phys. Chem. Lett. 11, 9248-9248 (2020)
Using LibXC functional ID 497 : Re-regularized SCAN exchange by Furness et al
[ 1]  J. W. Furness, A. D. Kaplan, J. Ning, J. P. Perdew, and J. Sun.,  J. Phys. Chem. Lett. 11, 8208-8215 (2020)
[ 2]  J. W. Furness, A. D. Kaplan, J. Ning, J. P. Perdew, and J. Sun.,  J. Phys. Chem. Lett. 11, 9248-9248 (2020)
Using LibXC functional ID 498 : Re-regularized SCAN correlation by Furness et al
[ 1]  J. W. Furness, A. D. Kaplan, J. Ning, J. P. Perdew, and J. Sun.,  J. Phys. Chem. Lett. 11, 8208-8215 (2020)
[ 2]  J. W. Furness, A. D. Kaplan, J. Ning, J. P. Perdew, and J. Sun.,  J. Phys. Chem. Lett. 11, 9248-9248 (2020)

================================================================================
                                       INPUT FILE
================================================================================
NAME = xtb_opt.inp
|  1> ! r2scan-3c def2/J RI DEFGRID2 scfconv7 ENGRAD tightSCF miniprint
|  2> %cpcm
|  3>     smd true
|  4>     smdsolvent "water"
|  5> end
|  6> * xyzfile 0 1 xtb_opt.xyz
|  7> 
|  8>                          ****END OF INPUT****
================================================================================

                     *******************************
                     * Energy+Gradient Calculation *
                     *******************************

---------------------------------
CARTESIAN COORDINATES (ANGSTROEM)
---------------------------------
  C      2.227494    1.132067   -0.535257
  C      1.195130    0.313703    0.233392
  C      1.812903   -1.003311    0.711366
  N     -0.005404    0.113384   -0.610600
  C     -1.205532   -0.300579    0.148743
  C     -2.151613   -1.052711   -0.778076
  C     -1.897746    0.918697    0.752064
  H      1.830673    2.114564   -0.810238
  H      3.131474    1.281068    0.065034
  H      2.518268    0.610940   -1.456030
  H      0.880459    0.892118    1.111055
  H      2.189618   -1.573805   -0.147371
  H      1.087003   -1.625865    1.244279
  H      2.654512   -0.819252    1.388533
  H      0.221706   -0.642249   -1.255274
  H     -0.935521   -0.981433    0.974889
  H     -3.051123   -1.362967   -0.237191
  H     -2.462416   -0.418035   -1.616553
  H     -1.674740   -1.951716   -1.185614
  H     -2.288874    1.568252   -0.039879
  H     -1.212245    1.509067    1.368363
  H     -2.734046    0.609626    1.388204

----------------------------
CARTESIAN COORDINATES (A.U.)
----------------------------
  NO LB      ZA    FRAG     MASS         X           Y           Z
   0 C     6.0000    0    12.011    4.209353    2.139296   -1.011490
   1 C     6.0000    0    12.011    2.258469    0.592812    0.441047
   2 C     6.0000    0    12.011    3.425890   -1.895983    1.344287
   3 N     7.0000    0    14.007   -0.010212    0.214264   -1.153867
   4 C     6.0000    0    12.011   -2.278126   -0.568013    0.281084
   5 C     6.0000    0    12.011   -4.065960   -1.989335   -1.470351
   6 C     6.0000    0    12.011   -3.586221    1.736086    1.421195
   7 H     1.0000    0     1.008    3.459470    3.995947   -1.531128
   8 H     1.0000    0     1.008    5.917628    2.420868    0.122896
   9 H     1.0000    0     1.008    4.758837    1.154509   -2.751497
  10 H     1.0000    0     1.008    1.663826    1.685858    2.099590
  11 H     1.0000    0     1.008    4.137778   -2.974060   -0.278491
  12 H     1.0000    0     1.008    2.054138   -3.072439    2.351346
  13 H     1.0000    0     1.008    5.016301   -1.548163    2.623947
  14 H     1.0000    0     1.008    0.418964   -1.213675   -2.372123
  15 H     1.0000    0     1.008   -1.767879   -1.854639    1.842273
  16 H     1.0000    0     1.008   -5.765786   -2.575634   -0.448226
  17 H     1.0000    0     1.008   -4.653292   -0.789972   -3.054843
  18 H     1.0000    0     1.008   -3.164800   -3.688209   -2.240486
  19 H     1.0000    0     1.008   -4.325345    2.963567   -0.075360
  20 H     1.0000    0     1.008   -2.290810    2.851723    2.585830
  21 H     1.0000    0     1.008   -5.166598    1.152026    2.623325

------------------------------------------------------------------------------
                   ___                                                        
                  /   \      - P O W E R E D   B Y -                         
                 /     \                                                     
                 |  |  |   _    _      __       _____    __    __             
                 |  |  |  | |  | |    /  \     |  _  \  |  |  /  |          
                  \  \/   | |  | |   /    \    | | | |  |  | /  /          
                 / \  \   | |__| |  /  /\  \   | |_| |  |  |/  /          
                |  |  |   |  __  | /  /__\  \  |    /   |      \           
                |  |  |   | |  | | |   __   |  |    \   |  |\   \          
                \     /   | |  | | |  |  |  |  | |\  \  |  | \   \       
                 \___/    |_|  |_| |__|  |__|  |_| \__\ |__|  \__/        
                                                                              
                      - O R C A' S   B I G   F R I E N D -                    
                                      &                                       
                       - I N T E G R A L  F E E D E R -                       
                                                                              
 v1 FN, 2020, v2 2021, v3 2022-2024                                           
------------------------------------------------------------------------------


----------------------
SHARK INTEGRAL PACKAGE
----------------------

Number of atoms                             ...     22
Number of basis functions                   ...    213
Number of shells                            ...    109
Maximum angular momentum                    ...      2
Integral batch strategy                     ... SHARK/LIBINT Hybrid
RI-J (if used) integral strategy            ... SPLIT-RIJ (Revised 2003 algorithm where possible)
Printlevel                                  ...      1
Contraction scheme used                     ... SEGMENTED contraction
Prescreening option                         ... SCHWARTZ
   Thresh                                   ... 3.000e-11
   Tcut                                     ... 1.000e-12
   Tpresel                                  ... 1.000e-12 
Coulomb Range Separation                    ... NOT USED
Exchange Range Separation                   ... NOT USED
Multipole approximations                    ... NOT USED
Finite Nucleus Model                        ... NOT USED
CABS basis                                  ... NOT available
Auxiliary Coulomb fitting basis             ... AVAILABLE
   # of basis functions in Aux-J            ...    508
   # of shells in Aux-J                     ...    180
   Maximum angular momentum in Aux-J        ...      4
Auxiliary J/K fitting basis                 ... NOT available
Auxiliary Correlation fitting basis         ... NOT available
Auxiliary 'external' fitting basis          ... NOT available

Checking pre-screening integrals            ... done (  0.0 sec) Dimension = 109
Check shell pair data                       ... done (  0.0 sec)
Shell pair information
Shell pair cut-off parameter TPreSel        ...   1.0e-12
Total number of shell pairs                 ...      5995
Shell pairs after pre-screening             ...      5483
Total number of primitive shell pairs       ...     20702
Primitive shell pairs kept                  ...     13778
          la=0 lb=0:   1954 shell pairs
          la=1 lb=0:   2137 shell pairs
          la=1 lb=1:    606 shell pairs
          la=2 lb=0:    483 shell pairs
          la=2 lb=1:    268 shell pairs
          la=2 lb=2:     35 shell pairs

Calculating one electron integrals          ... done (  0.0 sec)
Calculating RI/J V-Matrix + Cholesky decomp.... done (  0.1 sec)
Calculating Nuclear repulsion               ... done (  0.0 sec) ENN=    334.700463761467 Eh

Diagonalization of the overlap matrix:
Smallest eigenvalue                        ... 2.399e-04
Time for diagonalization                   ...    0.010 sec
Threshold for overlap eigenvalues          ... 1.000e-07
Number of eigenvalues below threshold      ... 0
Time for construction of square roots      ...    0.018 sec
Total time needed                          ...    0.038 sec

-------------------
DFT GRID GENERATION
-------------------

General Integration Accuracy     IntAcc      ... 4.388
Radial Grid Type                 RadialGrid  ... OptM3 with GC (2021)
Angular Grid (max. ang.)         AngularGrid ... 4 (Lebedev-302)
Angular grid pruning method      GridPruning ... 4 (adaptive)
Weight generation scheme         WeightScheme... mBecke (2022)
Basis function cutoff            BFCut       ... 1.0000e-11
Integration weight cutoff        WCut        ... 1.0000e-14
Partially contracted basis set               ... off
Rotationally invariant grid construction     ... off
Angular grids for H and He will be reduced by one unit

Total number of grid points                  ...    90036
Total number of batches                      ...     1417
Average number of points per batch           ...       63
Average number of grid points per atom       ...     4093
Initializing property integral containers    ... done (  0.1 sec)

SHARK setup successfully completed in   1.4 seconds

Maximum memory used throughout the entire STARTUP-calculation: 38.8 MB
Occupation numbers will be reassigned to an Aufbau configuration
             **** ENERGY FILE WAS UPDATED (xtb_opt.en.tmp) ****
Finished Guess after   0.3 sec
Maximum memory used throughout the entire GUESS-calculation: 14.8 MB
--------------------
CPCM SOLVATION MODEL
--------------------
CPCM parameters:
  Epsilon                                         ...      78.3550
  Refrac                                          ...       1.3328
  Rsolv                                           ...       1.3000
  Surface type                                    ... GAUSSIAN VDW
  Discretization scheme                           ... Constant charge density
    Threshold for H atoms                         ...       5.0000 (charges/Ang^2)
    Threshold for non-H atoms                     ...       5.0000 (charges/Ang^2)
  Epsilon function type                           ...         CPCM
Solvent:                                          ... WATER
SMD-CDS solvent descriptors:
  Soln                                            ...       1.3328
  Soln25                                          ...       1.3323
  Sola                                            ...       0.0000
  Solb                                            ...       0.0000
  Solg                                            ...       0.0000
  Solc                                            ...       0.0000
  Solh                                            ...       0.0000
Radii:
  Scheme                                          ... Element-dependent radii
  Radius for C  used is    3.4960 Bohr (=   1.8500 Ang.)
  Radius for N  used is    3.5716 Bohr (=   1.8900 Ang.)
  Radius for H  used is    2.2677 Bohr (=   1.2000 Ang.)
Calculating surface                               ...        done! (  0.0s)
Cavity surface points                             ...         1607
Cavity Volume                                     ...     903.1471
Cavity Surface-area                               ...     584.2900
Calculating surface distance matrix               ...        done! (  0.0s)
Performing Cholesky decomposition & store         ...        done! (  0.1s)
Overall time for CPCM initialization              ...                 0.2s

----------------------------------------D-I-I-S--------------------------------------------
Iteration    Energy (Eh)           Delta-E    RMSDP     MaxDP     DIISErr   Damp  Time(sec)
-------------------------------------------------------------------------------------------
               ***  Starting incremental Fock matrix formation  ***
                              *** Initializing SOSCF ***
---------------------------------------S-O-S-C-F--------------------------------------
Iteration    Energy (Eh)           Delta-E    RMSDP     MaxDP     MaxGrad    Time(sec)
--------------------------------------------------------------------------------------
    1    -292.3360806949370954     0.00e+00  7.18e-07  1.84e-05  1.94e-06     3.3
               *** Restarting incremental Fock matrix formation ***
    2    -292.3360806962185734    -1.28e-09  7.11e-07  1.80e-05  4.21e-06     3.2
                  *** Gradient check signals convergence ***

               *****************************************************
               *                     SUCCESS                       *
               *           SCF CONVERGED AFTER   2 CYCLES          *
               *****************************************************


SMD CDS free energy correction energy :                 2.31557     Kcal/mol
Total Energy after SMD CDS correction =              -292.332390608 Eh
             **** ENERGY FILE WAS UPDATED (xtb_opt.en.tmp) ****

----------------
TOTAL SCF ENERGY
----------------

Total Energy       :       -292.33239060776805 Eh           -7954.76876 eV

Components:
Nuclear Repulsion  :        334.70046376146706 Eh            9107.66264 eV
Electronic Energy  :       -627.02752167559061 Eh          -17062.28629 eV
One Electron Energy:      -1056.32963184867549 Eh          -28744.19061 eV
Two Electron Energy:        429.30211017308488 Eh           11681.90431 eV
CPCM Dielectric    :         -0.00902278209506 Eh              -0.24552 eV
SMD CDS (Gcds)     :          0.00369008845053 Eh               0.10041 eV

Virial components:
Potential Energy   :       -583.10917963111251 Eh          -15867.20745 eV
Kinetic Energy     :        290.77678902334452 Eh            7912.43869 eV
Virial Ratio       :          2.00534981347599

DFT components:
N(Alpha)           :       28.999986572371 electrons
N(Beta)            :       28.999986572371 electrons
N(Total)           :       57.999973144743 electrons
E(X)               :      -43.171011326151 Eh       
E(C)               :       -1.796290117985 Eh       
E(XC)              :      -44.967301444136 Eh       

CPCM Solvation Model Properties:
Surface-charge          :         -0.05015499029083
Corrected charge        :         -0.00000000000000
Outlying charge corr.   :          0.00019190592963 Eh               0.00522 eV
Free-energy (cav+disp)  :          0.00369008845053 Eh               0.10041 eV

---------------
SCF CONVERGENCE
---------------

  Last Energy change         ...    1.2815e-09  Tolerance :   1.0000e-07
  Last MAX-Density change    ...    1.8036e-05  Tolerance :   1.0000e-07
  Last RMS-Density change    ...    7.1128e-07  Tolerance :   5.0000e-09
  Last DIIS Error            ...    2.5202e-05  Tolerance :   1.0000e-07
  Last Orbital Gradient      ...    4.2098e-06  Tolerance :   1.0000e-04
  Last Orbital Rotation      ...    7.5155e-06  Tolerance :   1.0000e-04


----------------
ORBITAL ENERGIES
----------------

  NO   OCC          E(Eh)            E(eV) 
   0   2.0000     -14.133543      -384.5933 
   1   2.0000     -10.050588      -273.4904 
   2   2.0000     -10.050363      -273.4843 
   3   2.0000     -10.011319      -272.4218 
   4   2.0000     -10.009014      -272.3591 
   5   2.0000     -10.008481      -272.3446 
   6   2.0000     -10.008068      -272.3334 
   7   2.0000      -0.862052       -23.4576 
   8   2.0000      -0.744435       -20.2571 
   9   2.0000      -0.687278       -18.7018 
  10   2.0000      -0.643765       -17.5177 
  11   2.0000      -0.641063       -17.4442 
  12   2.0000      -0.543160       -14.7801 
  13   2.0000      -0.527951       -14.3663 
  14   2.0000      -0.447086       -12.1658 
  15   2.0000      -0.421290       -11.4639 
  16   2.0000      -0.410391       -11.1673 
  17   2.0000      -0.387354       -10.5404 
  18   2.0000      -0.369834       -10.0637 
  19   2.0000      -0.363156        -9.8820 
  20   2.0000      -0.345689        -9.4067 
  21   2.0000      -0.342621        -9.3232 
  22   2.0000      -0.333218        -9.0673 
  23   2.0000      -0.313063        -8.5189 
  24   2.0000      -0.306027        -8.3274 
  25   2.0000      -0.300485        -8.1766 
  26   2.0000      -0.290760        -7.9120 
  27   2.0000      -0.284290        -7.7359 
  28   2.0000      -0.192452        -5.2369 
  29   0.0000       0.084506         2.2995 
  30   0.0000       0.114948         3.1279 
  31   0.0000       0.119583         3.2540 
  32   0.0000       0.125933         3.4268 
  33   0.0000       0.130090         3.5399 
  34   0.0000       0.141703         3.8559 
  35   0.0000       0.146096         3.9755 
  36   0.0000       0.149643         4.0720 
  37   0.0000       0.157980         4.2988 
  38   0.0000       0.167893         4.5686 
  39   0.0000       0.171700         4.6722 
*Only the first 10 virtual orbitals were printed.
Total SCF time: 0 days 0 hours 0 min 7 sec 
Finished LeanSCF after   7.4 sec

Maximum memory used throughout the entire LEANSCF-calculation: 32.7 MB


-------------------------------------------------------------------------------
                          DFT DISPERSION CORRECTION                            
                                                                               
                                DFTD4 V3.4.0                                   
-------------------------------------------------------------------------------
-------------------------   ----------------
Dispersion correction           -0.005923927
-------------------------   ----------------

------------------   -----------------
gCP correction             0.014225098
------------------   -----------------

-------------------------   --------------------
FINAL SINGLE POINT ENERGY      -292.324089436663
-------------------------   --------------------

------------------------------------------------------------------------------
                         ORCA SCF GRADIENT CALCULATION
------------------------------------------------------------------------------

Nuc. rep. gradient        (SHARK) ... done (  0.0 sec)
HCore & Overlap gradient  (SHARK) ... done (  0.3 sec)
Split-RIJ-J gradient      (SHARK) ... done (  1.4 sec)
XC gradient                       ... done (  6.1 sec)
CPCM gradient                     ... done (  0.9 sec)
SMD gradient                      ... done (  0.0 sec)
Dispersion correction             ... done (  0.0 sec)

-------------------
DISPERSION GRADIENT
-------------------

   1   C   :    0.000095224    0.000051815   -0.000030372
   2   C   :    0.000071979    0.000013199    0.000014128
   3   C   :    0.000085876   -0.000054651    0.000036565
   4   N   :    0.000003158   -0.000006226   -0.000041592
   5   C   :   -0.000071276   -0.000015489    0.000009923
   6   C   :   -0.000090890   -0.000048041   -0.000042648
   7   C   :   -0.000091722    0.000051257    0.000042191
   8   H   :    0.000033670    0.000034823   -0.000017955
   9   H   :    0.000031809    0.000020749   -0.000004805
  10   H   :    0.000031776    0.000017388   -0.000019777
  11   H   :    0.000024352    0.000011728    0.000009238
  12   H   :    0.000035938   -0.000024935    0.000005969
  13   H   :    0.000034146   -0.000033526    0.000026135
  14   H   :    0.000033376   -0.000018519    0.000021514
  15   H   :    0.000000332   -0.000000388   -0.000014612
  16   H   :   -0.000025604   -0.000009740    0.000007698
  17   H   :   -0.000032399   -0.000019613   -0.000009144
  18   H   :   -0.000030639   -0.000012610   -0.000022765
  19   H   :   -0.000034016   -0.000031083   -0.000025321
  20   H   :   -0.000035347    0.000025137    0.000006678
  21   H   :   -0.000035283    0.000032128    0.000027213
  22   H   :   -0.000034458    0.000016595    0.000021737

Difference to translation invariance:
           :    0.0000000000   -0.0000000000    0.0000000000

Difference to rotation invariance:
           :    0.0000000000    0.0000000000   -0.0000000000

Norm of the Dispersion gradient    ...    0.0002993804
RMS gradient                       ...    0.0000368512
MAX gradient                       ...    0.0000952241
gCP correction                   ... done

------------------
CARTESIAN GRADIENT
------------------

   1   C   :   -0.000094792   -0.000180799    0.000251843
   2   C   :   -0.000212573    0.000015536   -0.000189706
   3   C   :   -0.000056278    0.000113798    0.000049160
   4   N   :   -0.000090181    0.000105817    0.000616506
   5   C   :    0.000175849    0.000042189   -0.000279034
   6   C   :    0.000107625    0.000156462    0.000168545
   7   C   :    0.000022025   -0.000117813    0.000036124
   8   H   :   -0.000069301    0.000221876   -0.000037381
   9   H   :    0.000161137    0.000045305    0.000054786
  10   H   :    0.000087846   -0.000010985   -0.000217429
  11   H   :   -0.000059820    0.000010529    0.000078928
  12   H   :    0.000102411   -0.000104094   -0.000133055
  13   H   :   -0.000077776   -0.000131573    0.000054762
  14   H   :    0.000103702   -0.000001997    0.000106811
  15   H   :    0.000109679   -0.000295260   -0.000417168
  16   H   :   -0.000032041   -0.000073726    0.000126042
  17   H   :   -0.000042059   -0.000059928    0.000006576
  18   H   :   -0.000104151   -0.000006960   -0.000096559
  19   H   :    0.000023171   -0.000066436   -0.000075924
  20   H   :   -0.000067423    0.000126919   -0.000102043
  21   H   :   -0.000001228    0.000112077   -0.000054714
  22   H   :    0.000014175    0.000099062    0.000052932

Difference to translation invariance:
           :   -0.0000000000   -0.0000000000    0.0000000000

Difference to rotation invariance:
           :   -0.0000762358   -0.0007738219   -0.0002946313

Norm of the Cartesian gradient     ...    0.0011939683
RMS gradient                       ...    0.0001469673
MAX gradient                       ...    0.0006165057

-------
TIMINGS
-------

Total SCF gradient time     ....        9.631 sec

Densities                   ....       0.001 sec  (  0.0%)
One electron gradient       ....       0.306 sec  (  3.2%)
RI-J Coulomb gradient       ....       1.447 sec  ( 15.0%)
XC gradient                 ....       6.099 sec  ( 63.3%)
CPCM gradient               ....       0.939 sec  (  9.8%)
   A-Matrix (El+Nuc)        ....       0.085 sec  (  0.9%)
   Potential                ....       0.855 sec  (  8.9%)
SMD gradient                ....       0.013 sec  (  0.1%)

Maximum memory used throughout the entire SCFGRAD-calculation: 35.0 MB

------------------------------------------------------------------------------
                              ORCA PROPERTY CALCULATIONS
------------------------------------------------------------------------------

GBWName                                 ... xtb_opt.gbw
Number of atoms                         ...     22
Number of basis functions               ...    213
Max core memory                         ...   1024 MB

Electric properties:
Dipole moment                           ... YES
Quadrupole moment                       ...  NO
Static polarizability (Dipole/Dipole)   ...  NO
Static polarizability (Dipole/Quad.)    ...  NO
Static polarizability (Quad./Quad.)     ...  NO
Static polarizability (Velocity)        ...  NO

Atomic electric properties:
Dipole moment                           ...  NO
Quadrupole moment                       ...  NO
Static polarizability                   ...  NO

Choice of electric origin               ... Center of mass
Position of electric origin             ...    -0.002844     0.016557    -0.025425

General magnetic properties:
Magnetizability                         ...  NO

EPR properties:
g-Tensor (aka g-matrix)                 ...  NO
Zero-Field splitting spin-orbit         ...  NO
Zero-field splitting spin-spin          ...  NO
Hyperfine couplings                     ...  NO (   0 nuclei)
Quadrupole couplings                    ...  NO (   0 nuclei)
Contact density                         ...  NO (   0 nuclei)

NMR properties:
Chemical shifts                         ...  NO (   0 nuclei)
Spin-rotation constants                 ...  NO (   0 nuclei)
Spin-spin couplings                     ...  NO (   0 nuclei,    0 pairs)

Choice of magnetic origin               ... GIAO
Position of magnetic origin             ...     0.000000     0.000000     0.000000

Properties with geometric perturbations:
SCF Hessian                             ...  NO
IR spectrum                             ...  NO
VCD spectrum                            ...  NO
X-ray spectroscopy properties:
SCF XES/XAS/RIXS spectra                ...  NO


-------------
DIPOLE MOMENT
-------------

Method             : SCF
Type of density    : Electron Density
Multiplicity       :   1
Irrep              :   0
Energy             :  -292.3323906077680476 Eh
Relativity type    : 
Basis              : AO
                                X                 Y                 Z
Electronic contribution:     -0.030215385       0.276504609      -0.587892044
Nuclear contribution   :      0.166339778      -0.863591430       0.929281300
                        -----------------------------------------
Total Dipole Moment    :      0.136124393      -0.587086822       0.341389256
                        -----------------------------------------
Magnitude (a.u.)       :      0.692638008
Magnitude (Debye)      :      1.760545905



--------------------
Rotational spectrum 
--------------------
 
Rotational constants in cm-1:             0.137129             0.048048             0.044478 
Rotational constants in MHz :          4111.033405          1440.435072          1333.410821 

Dipole components along the rotational axes: 
x,y,z [a.u.] :    -0.069549     0.568072    -0.390133 
x,y,z [Debye]:    -0.176778     1.443925    -0.991640 

 

Dipole moment calculation done in   0.0 sec 

Maximum memory used throughout the entire PROP-calculation: 13.5 MB

--------------------------------
SUGGESTED CITATIONS FOR THIS RUN
--------------------------------

Below you find a list of papers that are relevant to this ORCA run
We neither can nor want to force you to cite these papers, but we appreciate if you do
You receive ORCA, which is the product of decades of hard work by many enthusiastic individuals, for free
The only thing we kindly ask in return is that you cite our papers,
We deeply appreciate it, if you show your appreciation for ORCA by not just citing the generic ORCA reference.

Please note that relegating all ORCA citations to the supporting information does *not* help us.
SI sections are not indexed - citations you put there will not count into any citation statistics
But we need these citations in order to attract the funding resources that allow us to do what we are doing

Therefore, if you are a happy ORCA user, please consider citing a few of the papers listed below in the main body of your paper

In addition to the list printed below, the program has created the file xtb_opt.bibtex that contains the list in bibtex format
You can import this file easily into all common literature databanks and citation aid programs


List of essential papers. We consider these as the minimum necessary citations

  1. Neese,F.
     Software update: the ORCA program system, version 5.0
     WIRES Comput. Molec. Sci., 2022 12(1)e1606
     doi.org/10.1002/wcms.1606
  2. Grimme,S.; Hansen,A.; Ehlert,S.; Mewes,J.
     r2SCAN-3c: A 'Swiss army knife' composite electronic-structure method
     J. Chem. Phys., 2021 154 064103
     doi.org/10.1063/5.0040021

List of papers to cite with high priority. The work reported in these papers was absolutely
necessary for this run to complete.
Our perspective: the developers of density functionals and basis sets usually get cited in chemistry papers
Good! But without the algorithms to do something with them, the functionals or basis sets would not do anything.
Hence, in our opinion, the algorithm design and method developments papers are equally worthy of getting cited

  1. Neese,F.
     An improvement of the resolution of the identity approximation for the formation of the Coulomb matrix
     J. Comp. Chem., 2003 24(14)1740-1747
     doi.org/10.1002/jcc.10318
  2. Garcia-Rates,M.; Neese,F.
     Effect of the Solute Cavity on the Solvation Energy and its Derivatives within the Framework of the Gaussian Charge Scheme
     J. Comput. Chem., 2020 41 922-939
     doi.org/10.1002/jcc.26139
  3. Neese,F.
     The SHARK Integral Generation and Digestion System
     J. Comp. Chem., 2022  1-16
     doi.org/10.1002/jcc.26942
  4. Lehtola,S.; Steigemann,C.; Oliveira,M.; Marques,M.
     Recent developments in Libxc - A comprehensive library of functionals for density functional theory
     Software X, 2018 7 
     doi.org/10.1016/j.softx.2017.11.002
  5. Caldeweyher,E.; Bannwarth,C.; Grimme,S.
     Extension of the D3 dispersion coefficient model
     J. Chem. Phys., 2017 147 034112-XXXX
     doi.org/10.1063/1.4993215
  6. Caldeweyher,E.; Ehlert,S.; Hansen,A.; Neugebauer,H.; Spicher,S.; Bannwarth,C.; Grimme,S.
     A generally applicable atomic-charge dependent London dispersion correction
     J. Chem. Phys., 2019 150 154122-XXXX
     doi.org/10.1063/1.5090222
  7. Caldeweyher,E.; Mewes,J.; Ehlert,S.; Grimme,S.
     Extension and evaluation of the D4 London-dispersion model for periodic systems
     Phys. Chem. Chem. Phys., 2020 22(16)8499-8512
     doi.org/10.1039/D0CP00502A

List of suggested additional citations. These are papers that are important in the 'surrounding' of 
of this run, or papers that preceded the highly important papers. If you like your results we are grateful for a citation.

  1. Neese,F.
     The ORCA program system
     WIRES Comput. Molec. Sci., 2012 2(1)73-78
     doi.org/10.1002/wcms.81
  2. Neese,F.
     Software update: the ORCA program system, version 4.0
     WIRES Comput. Molec. Sci., 2018 8(1)1-6
     doi.org/10.1002/wcms.1327
  3. Neese,F.; Wennmohs,F.; Becker,U.; Riplinger,C.
     The ORCA quantum chemistry program package
     J. Chem. Phys., 2020 152 Art. No. L224108
     doi.org/10.1063/5.0004608

List of optional additional citations

  1. Neese,F.
     Approximate second-order SCF convergence for spin unrestricted wavefunctions
     Chem. Phys. Lett., 2000 325(1-3)93-98
     doi.org/10.1016/s0009-2614(00)00662-x

Timings for individual modules:

Sum of individual times          ...       19.025 sec (=   0.317 min)
Startup calculation              ...        1.420 sec (=   0.024 min)   7.5 %
SCF iterations                   ...        7.738 sec (=   0.129 min)  40.7 %
Property calculations            ...        0.127 sec (=   0.002 min)   0.7 %
SCF Gradient evaluation          ...        9.740 sec (=   0.162 min)  51.2 %
                             ****ORCA TERMINATED NORMALLY****
TOTAL RUN TIME: 0 days 0 hours 0 minutes 19 seconds 893 msec
  ------------------------------------------------------------------------
          * successful ORCA run, taking over control again...

         :::::::::::::::::::::::::::::::::::::::::::::::::::::
         ::                  ORCA SUMMARY                   ::
         :::::::::::::::::::::::::::::::::::::::::::::::::::::
         :: total energy            -292.324089436663 Eh    ::
         :: gradient norm              0.001193968266 Eh/a0 ::
         :: HOMO-LUMO gap              0.000000000000 eV    ::
         :::::::::::::::::::::::::::::::::::::::::::::::::::::

      ----------------------------------------------------------- 
     |                       L-ANC optimizer                     |
      ----------------------------------------------------------- 
          low memory version by Sebastian Ehlert

          ...................................................
          :                      SETUP                      :
          :.................................................:
          :   energy convergence        0.5000000E-05 Eh    :
          :   grad. convergence         0.1000000E-02 Eh/a0 :
          :   optimization log               true           :
          :   writing optlog all                1     steps :
          :   Hessian reset                     8     steps :
          :   maximium step len.        1.0000000     a0    :
          :   LBFGS images                      8           :
          ...................................................
 * calculating model hessian...
Using Lindh-Hessian (1995)
 Shifting diagonal of input Hessian by   1.000000000000000E-002
 Lowest  eigenvalues of input Hessian
    0.000000    0.000000    0.000000    0.000000    0.000000    0.000000
    0.011380    0.012872    0.014956    0.018159    0.019608    0.019672
    0.019782    0.020266    0.024402    0.028467    0.030718    0.035304
 Highest eigenvalues
    1.179989    1.199269    1.247955    1.253495    1.331004    1.414223
 

........................................................................
.............................. CYCLE    1 ..............................
........................................................................
                         * ORCA takes the control...
  ------------------------------------------------------------------------

                                 *****************
                                 * O   R   C   A *
                                 *****************

                                            #,                                       
                                            ###                                      
                                            ####                                     
                                            #####                                    
                                            ######                                   
                                           ########,                                 
                                     ,,################,,,,,                         
                               ,,#################################,,                 
                          ,,##########################################,,             
                       ,#########################################, ''#####,          
                    ,#############################################,,   '####,        
                  ,##################################################,,,,####,       
                ,###########''''           ''''###############################       
              ,#####''   ,,,,##########,,,,          '''####'''          '####       
            ,##' ,,,,###########################,,,                        '##       
           ' ,,###''''                  '''############,,,                           
         ,,##''                                '''############,,,,        ,,,,,,###''
      ,#''                                            '''#######################'''  
     '                                                          ''''####''''         
             ,#######,   #######,   ,#######,      ##                                
            ,#'     '#,  ##    ##  ,#'     '#,    #''#        ,####,   ,####,        
            ##       ##  ##   ,#'  ##            #'  '#       #'       #'  '#        
            ##       ##  #######   ##           ,######,      #####,   #    #        
            '#,     ,#'  ##    ##  '#,     ,#' ,#      #,     #,   #   #,  ,#        
             '#######'   ##     ##  '#######'  #'      '#     '####' # '####'        



                #########################################################
                #                        -***-                          #
                #          Department of theory and spectroscopy        #
                #                                                       #
                #                      Frank Neese                      #
                #                                                       #
                #     Directorship, Architecture, Infrastructure        #
                #                    SHARK, DRIVERS                     #
                #        Core code/Algorithms in most modules           #
                #                                                       #
                #        Max Planck Institute fuer Kohlenforschung      #
                #                Kaiser Wilhelm Platz 1                 #
                #                 D-45470 Muelheim/Ruhr                 #
                #                      Germany                          #
                #                                                       #
                #                  All rights reserved                  #
                #                        -***-                          #
                #########################################################


                         Program Version 6.0.0  -   RELEASE  -


 With contributions from (in alphabetic order):
   Daniel Aravena         : Magnetic Suceptibility
   Michael Atanasov       : Ab Initio Ligand Field Theory (pilot matlab implementation)
   Alexander A. Auer      : GIAO ZORA, VPT2 properties, NMR spectrum
   Ute Becker             : All parallelization in ORCA, NUMFREQ, NUMCALC
   Giovanni Bistoni       : ED, misc. LED, open-shell LED, HFLD
   Martin Brehm           : Molecular dynamics
   Dmytro Bykov           : pre 5.0 version of the SCF Hessian
   Marcos Casanova-Páez   : Triplet and SCS-CIS(D). UHF-(DLPNO)-IP/EA/STEOM-CCSD. UHF-CVS-IP/STEOM-CCSD
   Vijay G. Chilkuri      : MRCI spin determinant printing, contributions to CSF-ICE
   Pauline Colinet        : FMM embedding
   Dipayan Datta          : RHF DLPNO-CCSD density
   Achintya Kumar Dutta   : EOM-CC, STEOM-CC
   Nicolas Foglia         : Exact transition moments, OPA infrastructure, MCD improvements
   Dmitry Ganyushin       : Spin-Orbit,Spin-Spin,Magnetic field MRCI
   Miquel Garcia          : C-PCM and meta-GGA Hessian, CCSD/C-PCM, Gaussian charge scheme
   Tiago L. C. Gouveia    : GS-ROHF, GS-ROCIS
   Yang Guo               : DLPNO-NEVPT2, F12-NEVPT2, CIM, IAO-localization
   Andreas Hansen         : Spin unrestricted coupled pair/coupled cluster methods
   Ingolf Harden          : AUTO-CI MPn and infrastructure 
   Benjamin Helmich-Paris : MC-RPA, TRAH-(SCF,CASSCF), AVAS, COSX integrals, SCF dyn. polar.
   Lee Huntington         : MR-EOM, pCC
   Robert Izsak           : Overlap fitted RIJCOSX, COSX-SCS-MP3, EOM
   Riya Kayal             : Wick's Theorem for AUTO-CI, AUTO-CI UHF-CCSDT
   Emily Kempfer          : AUTO-CI, RHF CISDT and CCSDT
   Christian Kollmar      : KDIIS, OOCD, Brueckner-CCSD(T), CCSD density, CASPT2, CASPT2-K, improved NEVPT2
   Axel Koslowski         : Symmetry handling
   Simone Kossmann        : Meta GGA functionals, TD-DFT gradient, OOMP2, (MP2 Hessian; deprecated post 5.0)
   Lucas Lang             : DCDCAS
   Marvin Lechner         : AUTO-CI (C++ implementation), FIC-MRCC
   Spencer Leger          : CASSCF response
   Dagmar Lenk            : GEPOL surface, SMD, ORCA-2-JSON
   Dimitrios Liakos       : Extrapolation schemes; Compound Job, initial MDCI parallelization
   Dimitrios Manganas     : Further ROCIS development; embedding schemes. LFT, Crystal Embedding
   Dimitrios Pantazis     : SARC Basis sets
   Anastasios Papadopoulos: AUTO-CI, single reference methods and gradients
   Taras Petrenko         : pre 6.0 DFT Hessian and TD-DFT gradient, (ASA, deprecated), ECA, 1-Electron XAS/XES, NRVS
   Peter Pinski           : DLPNO-MP2, DLPNO-MP2 Gradient
   Christoph Reimann      : Effective Core Potentials
   Marius Retegan         : Local ZFS, SOC
   Christoph Riplinger    : Optimizer, TS searches, QM/MM, DLPNO-CCSD(T), (RO)-DLPNO pert. Triples
   Michael Roemelt        : Original ROCIS implementation
   Masaaki Saitow         : Open-shell DLPNO-CCSD energy and density
   Barbara Sandhoefer     : DKH picture change effects
   Kantharuban Sivalingam : CASSCF convergence/infrastructure, NEVPT2 and variants, FIC-MRCI
   Bernardo de Souza      : ESD, SOC TD-DFT
   Georgi Stoychev        : AutoAux, RI-MP2 NMR, DLPNO-MP2 response, X2C
   Van Anh Tran           : RI-MP2 g-tensors
   Willem Van den Heuvel  : Paramagnetic NMR
   Zikuan Wang            : NOTCH, Electric field optimization 
   Frank Wennmohs         : Technical directorship and infrastructure
   Hang Xu                : AUTO-CI-Response properties 


 We gratefully acknowledge several colleagues who have allowed us to
 interface, adapt or use parts of their codes:
   Stefan Grimme, W. Hujo, H. Kruse, P. Pracht,  : VdW corrections, initial TS optimization,
                  C. Bannwarth, S. Ehlert,         DFT functionals, gCP, sTDA/sTD-DF
                  L. Wittmann, M. Mueller
   Ed Valeev, F. Pavosevic, A. Kumar             : LibInt (2-el integral package), F12 methods
   Garnet Chan, S. Sharma, J. Yang, R. Olivares  : DMRG
   Ulf Ekstrom                                   : XCFun DFT Library
   Mihaly Kallay                                 : mrcc  (arbitrary order and MRCC methods)
   Frank Weinhold                                : gennbo (NPA and NBO analysis)
   Simon Mueller                                 : openCOSMO-RS
   Christopher J. Cramer and Donald G. Truhlar   : smd solvation model
   Lars Goerigk                                  : TD-DFT with DH, B97 family of functionals
   V. Asgeirsson, H. Jonsson                     : NEB implementation
   FAccTs GmbH                                   : IRC, NEB, NEB-TS, DLPNO-Multilevel, CI-OPT
                                                   MM, QMMM, 2- and 3-layer-ONIOM, Crystal-QMMM,
                                                   LR-CPCM, SF, NACMEs, symmetry and pop. for TD-DFT,
                                                   nearIR, NL-DFT gradient (VV10), updates on ESD,
                                                   ML-optimized integration grids, MBIS, APM,
                                                   GOAT, DOCKER, SOLVATOR, interface openCOSMO-RS
   S Lehtola, MJT Oliveira, MAL Marques          : LibXC Library
   Liviu Ungur et al                             : ANISO software


 Your calculation uses the libint2 library for the computation of 2-el integrals
 For citations please refer to: http://libint.valeyev.net

 Your ORCA version has been built with support for libXC version: 6.2.2
 For citations please refer to: https://libxc.gitlab.io

 This ORCA versions uses:
   CBLAS   interface :  Fast vector & matrix operations
   LAPACKE interface :  Fast linear algebra routines
   SCALAPACK package :  Parallel linear algebra routines
   Shared memory     :  Shared parallel matrices
   BLAS/LAPACK       :  OpenBLAS 0.3.27  USE64BITINT DYNAMIC_ARCH NO_AFFINITY SkylakeX SINGLE_THREADED
        Core in use  :  SkylakeX
   Copyright (c) 2011-2014, The OpenBLAS Project




***************************************
The coordinates will be read from file: xtb_opt.xyz
***************************************


Your calculation utilizes the geometrical counterpoise correction gCP
Please cite in your paper:
H.Kruse, S. Grimme J.Chem.Phys., 136, (2012), 154101 
   

Your calculation utilizes the atom-pairwise dispersion correction
based on EEQ partial charges (D4)


Your calculation utilizes the SMD solvation module
Please cite in your paper:
A.V. Marenich, C.J. Cramer, D.G. Truhlar J. Phys. Chem. B, 113, (2009), 6378 

================================================================================

----- Orbital basis set information -----
Your calculation utilizes the basis: def2-mTZVPP
   Stefan Grimme, Andreas Hansen, Sebastian Ehlert, and Jan-Michael Mewes 
   J. Chem. Phys. 154, 064103 (2021). DOI: 10.1063/5.0040021

----- AuxJ basis set information -----
Your calculation utilizes the auxiliary basis: def2/J
   F. Weigend, Phys. Chem. Chem. Phys. 8, 1057 (2006).

================================================================================
                                        WARNINGS
                       Please study these warnings very carefully!
================================================================================

WARNING: Old DensityContainer found on disk!
         Will remove this file - 
         If you want to keep old densities, please start your calculation with a different basename. 

Using LibXC functional ID 497 : Re-regularized SCAN exchange by Furness et al
[ 1]  J. W. Furness, A. D. Kaplan, J. Ning, J. P. Perdew, and J. Sun.,  J. Phys. Chem. Lett. 11, 8208-8215 (2020)
[ 2]  J. W. Furness, A. D. Kaplan, J. Ning, J. P. Perdew, and J. Sun.,  J. Phys. Chem. Lett. 11, 9248-9248 (2020)
Using LibXC functional ID 498 : Re-regularized SCAN correlation by Furness et al
[ 1]  J. W. Furness, A. D. Kaplan, J. Ning, J. P. Perdew, and J. Sun.,  J. Phys. Chem. Lett. 11, 8208-8215 (2020)
[ 2]  J. W. Furness, A. D. Kaplan, J. Ning, J. P. Perdew, and J. Sun.,  J. Phys. Chem. Lett. 11, 9248-9248 (2020)
Using LibXC functional ID 497 : Re-regularized SCAN exchange by Furness et al
[ 1]  J. W. Furness, A. D. Kaplan, J. Ning, J. P. Perdew, and J. Sun.,  J. Phys. Chem. Lett. 11, 8208-8215 (2020)
[ 2]  J. W. Furness, A. D. Kaplan, J. Ning, J. P. Perdew, and J. Sun.,  J. Phys. Chem. Lett. 11, 9248-9248 (2020)
Using LibXC functional ID 498 : Re-regularized SCAN correlation by Furness et al
[ 1]  J. W. Furness, A. D. Kaplan, J. Ning, J. P. Perdew, and J. Sun.,  J. Phys. Chem. Lett. 11, 8208-8215 (2020)
[ 2]  J. W. Furness, A. D. Kaplan, J. Ning, J. P. Perdew, and J. Sun.,  J. Phys. Chem. Lett. 11, 9248-9248 (2020)

================================================================================
                                       INPUT FILE
================================================================================
NAME = xtb_opt.inp
|  1> ! r2scan-3c def2/J RI DEFGRID2 scfconv7 ENGRAD tightSCF miniprint
|  2> %cpcm
|  3>     smd true
|  4>     smdsolvent "water"
|  5> end
|  6> * xyzfile 0 1 xtb_opt.xyz
|  7> 
|  8>                          ****END OF INPUT****
================================================================================

                     *******************************
                     * Energy+Gradient Calculation *
                     *******************************

---------------------------------
CARTESIAN COORDINATES (ANGSTROEM)
---------------------------------
  C      2.227975    1.131553   -0.536396
  C      1.195313    0.314699    0.233157
  C      1.812121   -1.002418    0.711592
  N     -0.005541    0.114751   -0.611007
  C     -1.205422   -0.300376    0.148764
  C     -2.151132   -1.052449   -0.778622
  C     -1.898217    0.917669    0.753242
  H      1.831743    2.113426   -0.812723
  H      3.131296    1.280573    0.064347
  H      2.518462    0.608355   -1.455585
  H      0.881371    0.894025    1.110286
  H      2.187495   -1.573760   -0.146717
  H      1.086052   -1.623501    1.245426
  H      2.654107   -0.818545    1.387919
  H      0.221585   -0.641412   -1.253963
  H     -0.934632   -0.981593    0.974020
  H     -3.051196   -1.361713   -0.238278
  H     -2.460267   -0.417150   -1.617018
  H     -1.674335   -1.951647   -1.185373
  H     -2.288269    1.568008   -0.038220
  H     -1.213214    1.506364    1.371610
  H     -2.735314    0.606703    1.387377

----------------------------
CARTESIAN COORDINATES (A.U.)
----------------------------
  NO LB      ZA    FRAG     MASS         X           Y           Z
   0 C     6.0000    0    12.011    4.210263    2.138326   -1.013642
   1 C     6.0000    0    12.011    2.258814    0.594694    0.440603
   2 C     6.0000    0    12.011    3.424413   -1.894296    1.344714
   3 N     7.0000    0    14.007   -0.010471    0.216848   -1.154637
   4 C     6.0000    0    12.011   -2.277918   -0.567628    0.281124
   5 C     6.0000    0    12.011   -4.065050   -1.988841   -1.471383
   6 C     6.0000    0    12.011   -3.587111    1.734143    1.423422
   7 H     1.0000    0     1.008    3.461493    3.993797   -1.535825
   8 H     1.0000    0     1.008    5.917292    2.419933    0.121599
   9 H     1.0000    0     1.008    4.759204    1.149624   -2.750657
  10 H     1.0000    0     1.008    1.665551    1.689462    2.098137
  11 H     1.0000    0     1.008    4.133767   -2.973976   -0.277254
  12 H     1.0000    0     1.008    2.052340   -3.067973    2.353514
  13 H     1.0000    0     1.008    5.015535   -1.546826    2.622787
  14 H     1.0000    0     1.008    0.418735   -1.212092   -2.369646
  15 H     1.0000    0     1.008   -1.766198   -1.854941    1.840631
  16 H     1.0000    0     1.008   -5.765926   -2.573265   -0.450280
  17 H     1.0000    0     1.008   -4.649231   -0.788298   -3.055722
  18 H     1.0000    0     1.008   -3.164034   -3.688077   -2.240030
  19 H     1.0000    0     1.008   -4.324202    2.963106   -0.072225
  20 H     1.0000    0     1.008   -2.292643    2.846616    2.591967
  21 H     1.0000    0     1.008   -5.168995    1.146503    2.621763

------------------------------------------------------------------------------
                   ___                                                        
                  /   \      - P O W E R E D   B Y -                         
                 /     \                                                     
                 |  |  |   _    _      __       _____    __    __             
                 |  |  |  | |  | |    /  \     |  _  \  |  |  /  |          
                  \  \/   | |  | |   /    \    | | | |  |  | /  /          
                 / \  \   | |__| |  /  /\  \   | |_| |  |  |/  /          
                |  |  |   |  __  | /  /__\  \  |    /   |      \           
                |  |  |   | |  | | |   __   |  |    \   |  |\   \          
                \     /   | |  | | |  |  |  |  | |\  \  |  | \   \       
                 \___/    |_|  |_| |__|  |__|  |_| \__\ |__|  \__/        
                                                                              
                      - O R C A' S   B I G   F R I E N D -                    
                                      &                                       
                       - I N T E G R A L  F E E D E R -                       
                                                                              
 v1 FN, 2020, v2 2021, v3 2022-2024                                           
------------------------------------------------------------------------------


----------------------
SHARK INTEGRAL PACKAGE
----------------------

Number of atoms                             ...     22
Number of basis functions                   ...    213
Number of shells                            ...    109
Maximum angular momentum                    ...      2
Integral batch strategy                     ... SHARK/LIBINT Hybrid
RI-J (if used) integral strategy            ... SPLIT-RIJ (Revised 2003 algorithm where possible)
Printlevel                                  ...      1
Contraction scheme used                     ... SEGMENTED contraction
Prescreening option                         ... SCHWARTZ
   Thresh                                   ... 3.000e-11
   Tcut                                     ... 1.000e-12
   Tpresel                                  ... 1.000e-12 
Coulomb Range Separation                    ... NOT USED
Exchange Range Separation                   ... NOT USED
Multipole approximations                    ... NOT USED
Finite Nucleus Model                        ... NOT USED
CABS basis                                  ... NOT available
Auxiliary Coulomb fitting basis             ... AVAILABLE
   # of basis functions in Aux-J            ...    508
   # of shells in Aux-J                     ...    180
   Maximum angular momentum in Aux-J        ...      4
Auxiliary J/K fitting basis                 ... NOT available
Auxiliary Correlation fitting basis         ... NOT available
Auxiliary 'external' fitting basis          ... NOT available

Checking pre-screening integrals            ... done (  0.0 sec) Dimension = 109
Check shell pair data                       ... done (  0.0 sec)
Shell pair information
Shell pair cut-off parameter TPreSel        ...   1.0e-12
Total number of shell pairs                 ...      5995
Shell pairs after pre-screening             ...      5484
Total number of primitive shell pairs       ...     20702
Primitive shell pairs kept                  ...     13778
          la=0 lb=0:   1954 shell pairs
          la=1 lb=0:   2137 shell pairs
          la=1 lb=1:    606 shell pairs
          la=2 lb=0:    484 shell pairs
          la=2 lb=1:    268 shell pairs
          la=2 lb=2:     35 shell pairs

Calculating one electron integrals          ... done (  0.0 sec)
Calculating RI/J V-Matrix + Cholesky decomp.... done (  0.1 sec)
Calculating Nuclear repulsion               ... done (  0.0 sec) ENN=    334.729465839670 Eh

Diagonalization of the overlap matrix:
Smallest eigenvalue                        ... 2.398e-04
Time for diagonalization                   ...    0.005 sec
Threshold for overlap eigenvalues          ... 1.000e-07
Number of eigenvalues below threshold      ... 0
Time for construction of square roots      ...    0.016 sec
Total time needed                          ...    0.030 sec

-------------------
DFT GRID GENERATION
-------------------

General Integration Accuracy     IntAcc      ... 4.388
Radial Grid Type                 RadialGrid  ... OptM3 with GC (2021)
Angular Grid (max. ang.)         AngularGrid ... 4 (Lebedev-302)
Angular grid pruning method      GridPruning ... 4 (adaptive)
Weight generation scheme         WeightScheme... mBecke (2022)
Basis function cutoff            BFCut       ... 1.0000e-11
Integration weight cutoff        WCut        ... 1.0000e-14
Partially contracted basis set               ... off
Rotationally invariant grid construction     ... off
Angular grids for H and He will be reduced by one unit

Total number of grid points                  ...    90038
Total number of batches                      ...     1418
Average number of points per batch           ...       63
Average number of grid points per atom       ...     4093
Initializing property integral containers    ... done (  0.0 sec)

SHARK setup successfully completed in   1.6 seconds

Maximum memory used throughout the entire STARTUP-calculation: 38.8 MB
Occupation numbers will be reassigned to an Aufbau configuration
             **** ENERGY FILE WAS UPDATED (xtb_opt.en.tmp) ****
Finished Guess after   0.3 sec
Maximum memory used throughout the entire GUESS-calculation: 14.8 MB
--------------------
CPCM SOLVATION MODEL
--------------------
CPCM parameters:
  Epsilon                                         ...      78.3550
  Refrac                                          ...       1.3328
  Rsolv                                           ...       1.3000
  Surface type                                    ... GAUSSIAN VDW
  Discretization scheme                           ... Constant charge density
    Threshold for H atoms                         ...       5.0000 (charges/Ang^2)
    Threshold for non-H atoms                     ...       5.0000 (charges/Ang^2)
  Epsilon function type                           ...         CPCM
Solvent:                                          ... WATER
SMD-CDS solvent descriptors:
  Soln                                            ...       1.3328
  Soln25                                          ...       1.3323
  Sola                                            ...       0.0000
  Solb                                            ...       0.0000
  Solg                                            ...       0.0000
  Solc                                            ...       0.0000
  Solh                                            ...       0.0000
Radii:
  Scheme                                          ... Element-dependent radii
  Radius for C  used is    3.4960 Bohr (=   1.8500 Ang.)
  Radius for N  used is    3.5716 Bohr (=   1.8900 Ang.)
  Radius for H  used is    2.2677 Bohr (=   1.2000 Ang.)
Calculating surface                               ...        done! (  0.0s)
Cavity surface points                             ...         1606
Cavity Volume                                     ...     902.9812
Cavity Surface-area                               ...     584.1361
Calculating surface distance matrix               ...        done! (  0.0s)
Performing Cholesky decomposition & store         ...        done! (  0.2s)
Overall time for CPCM initialization              ...                 0.2s

----------------------------------------D-I-I-S--------------------------------------------
Iteration    Energy (Eh)           Delta-E    RMSDP     MaxDP     DIISErr   Damp  Time(sec)
-------------------------------------------------------------------------------------------
               ***  Starting incremental Fock matrix formation  ***
                              *** Initializing SOSCF ***
---------------------------------------S-O-S-C-F--------------------------------------
Iteration    Energy (Eh)           Delta-E    RMSDP     MaxDP     MaxGrad    Time(sec)
--------------------------------------------------------------------------------------
    1    -292.3360790923067043     0.00e+00  2.01e-05  3.23e-04  3.10e-05     3.3
               *** Restarting incremental Fock matrix formation ***
    2    -292.3360828929935451    -3.80e-06  8.89e-06  1.35e-04  3.27e-05     3.2
    3    -292.3360830986339352    -2.06e-07  3.69e-06  6.62e-05  1.91e-05     2.6
                  *** Gradient check signals convergence ***

               *****************************************************
               *                     SUCCESS                       *
               *           SCF CONVERGED AFTER   3 CYCLES          *
               *****************************************************


SMD CDS free energy correction energy :                 2.31196     Kcal/mol
Total Energy after SMD CDS correction =              -292.332398750 Eh
             **** ENERGY FILE WAS UPDATED (xtb_opt.en.tmp) ****

----------------
TOTAL SCF ENERGY
----------------

Total Energy       :       -292.33239874995627 Eh           -7954.76898 eV

Components:
Nuclear Repulsion  :        334.72946583966950 Eh            9108.45183 eV
Electronic Energy  :       -627.05651838973438 Eh          -17063.07534 eV
One Electron Energy:      -1056.38337325879934 Eh          -28745.65299 eV
Two Electron Energy:        429.32685486906496 Eh           11682.57765 eV
CPCM Dielectric    :         -0.00903054856908 Eh              -0.24573 eV
SMD CDS (Gcds)     :          0.00368434867764 Eh               0.10026 eV

Virial components:
Potential Energy   :       -583.11543291068369 Eh          -15867.37761 eV
Kinetic Energy     :        290.78303416072742 Eh            7912.60863 eV
Virial Ratio       :          2.00532824961298

DFT components:
N(Alpha)           :       28.999986974761 electrons
N(Beta)            :       28.999986974761 electrons
N(Total)           :       57.999973949523 electrons
E(X)               :      -43.172288878047 Eh       
E(C)               :       -1.796337094319 Eh       
E(XC)              :      -44.968625972365 Eh       

CPCM Solvation Model Properties:
Surface-charge          :         -0.05013723304945
Corrected charge        :         -0.00000000000000
Outlying charge corr.   :          0.00019178476686 Eh               0.00522 eV
Free-energy (cav+disp)  :          0.00368434867764 Eh               0.10026 eV

---------------
SCF CONVERGENCE
---------------

  Last Energy change         ...    2.0564e-07  Tolerance :   1.0000e-07
  Last MAX-Density change    ...    6.6233e-05  Tolerance :   1.0000e-07
  Last RMS-Density change    ...    3.6893e-06  Tolerance :   5.0000e-09
  Last DIIS Error            ...    6.9852e-04  Tolerance :   1.0000e-07
  Last Orbital Gradient      ...    1.9144e-05  Tolerance :   1.0000e-04
  Last Orbital Rotation      ...    3.0129e-05  Tolerance :   1.0000e-04


----------------
ORBITAL ENERGIES
----------------

  NO   OCC          E(Eh)            E(eV) 
   0   2.0000     -14.133699      -384.5975 
   1   2.0000     -10.050474      -273.4873 
   2   2.0000     -10.050298      -273.4825 
   3   2.0000     -10.011319      -272.4218 
   4   2.0000     -10.009006      -272.3589 
   5   2.0000     -10.008429      -272.3432 
   6   2.0000     -10.008014      -272.3319 
   7   2.0000      -0.862115       -23.4593 
   8   2.0000      -0.744509       -20.2591 
   9   2.0000      -0.687406       -18.7053 
  10   2.0000      -0.643792       -17.5185 
  11   2.0000      -0.641176       -17.4473 
  12   2.0000      -0.543162       -14.7802 
  13   2.0000      -0.527953       -14.3663 
  14   2.0000      -0.447140       -12.1673 
  15   2.0000      -0.421324       -11.4648 
  16   2.0000      -0.410445       -11.1688 
  17   2.0000      -0.387471       -10.5436 
  18   2.0000      -0.369875       -10.0648 
  19   2.0000      -0.363209        -9.8834 
  20   2.0000      -0.345771        -9.4089 
  21   2.0000      -0.342730        -9.3262 
  22   2.0000      -0.333217        -9.0673 
  23   2.0000      -0.313110        -8.5201 
  24   2.0000      -0.306064        -8.3284 
  25   2.0000      -0.300501        -8.1771 
  26   2.0000      -0.290716        -7.9108 
  27   2.0000      -0.284296        -7.7361 
  28   2.0000      -0.192641        -5.2420 
  29   0.0000       0.084514         2.2997 
  30   0.0000       0.115013         3.1297 
  31   0.0000       0.119592         3.2543 
  32   0.0000       0.125999         3.4286 
  33   0.0000       0.130206         3.5431 
  34   0.0000       0.141713         3.8562 
  35   0.0000       0.146161         3.9772 
  36   0.0000       0.149679         4.0730 
  37   0.0000       0.158031         4.3002 
  38   0.0000       0.167867         4.5679 
  39   0.0000       0.171708         4.6724 
*Only the first 10 virtual orbitals were printed.
Total SCF time: 0 days 0 hours 0 min 9 sec 
Finished LeanSCF after  10.0 sec

Maximum memory used throughout the entire LEANSCF-calculation: 32.7 MB


-------------------------------------------------------------------------------
                          DFT DISPERSION CORRECTION                            
                                                                               
                                DFTD4 V3.4.0                                   
-------------------------------------------------------------------------------
-------------------------   ----------------
Dispersion correction           -0.005924596
-------------------------   ----------------

------------------   -----------------
gCP correction             0.014229640
------------------   -----------------

-------------------------   --------------------
[...]
  Last Orbital Rotation      ...    2.5100e-05  Tolerance :   1.0000e-04


----------------
ORBITAL ENERGIES
----------------

  NO   OCC          E(Eh)            E(eV) 
   0   2.0000     -14.133684      -384.5971 
   1   2.0000     -10.050465      -273.4871 
   2   2.0000     -10.050285      -273.4822 
   3   2.0000     -10.011278      -272.4207 
   4   2.0000     -10.008913      -272.3564 
   5   2.0000     -10.008373      -272.3417 
   6   2.0000     -10.007992      -272.3313 
   7   2.0000      -0.862101       -23.4590 
   8   2.0000      -0.744490       -20.2586 
   9   2.0000      -0.687387       -18.7047 
  10   2.0000      -0.643780       -17.5182 
  11   2.0000      -0.641149       -17.4466 
  12   2.0000      -0.543146       -14.7798 
  13   2.0000      -0.527943       -14.3661 
  14   2.0000      -0.447129       -12.1670 
  15   2.0000      -0.421305       -11.4643 
  16   2.0000      -0.410432       -11.1684 
  17   2.0000      -0.387453       -10.5431 
  18   2.0000      -0.369857       -10.0643 
  19   2.0000      -0.363192        -9.8829 
  20   2.0000      -0.345760        -9.4086 
  21   2.0000      -0.342707        -9.3255 
  22   2.0000      -0.333208        -9.0671 
  23   2.0000      -0.313092        -8.5197 
  24   2.0000      -0.306048        -8.3280 
  25   2.0000      -0.300489        -8.1767 
  26   2.0000      -0.290697        -7.9103 
  27   2.0000      -0.284283        -7.7357 
  28   2.0000      -0.192629        -5.2417 
  29   0.0000       0.084522         2.3000 
  30   0.0000       0.115020         3.1299 
  31   0.0000       0.119602         3.2545 
  32   0.0000       0.126006         3.4288 
  33   0.0000       0.130215         3.5433 
  34   0.0000       0.141723         3.8565 
  35   0.0000       0.146167         3.9774 
  36   0.0000       0.149689         4.0732 
  37   0.0000       0.158040         4.3005 
  38   0.0000       0.167874         4.5681 
  39   0.0000       0.171717         4.6727 
*Only the first 10 virtual orbitals were printed.
Total SCF time: 0 days 0 hours 0 min 7 sec 
Finished LeanSCF after   7.3 sec

Maximum memory used throughout the entire LEANSCF-calculation: 32.7 MB


-------------------------------------------------------------------------------
                          DFT DISPERSION CORRECTION                            
                                                                               
                                DFTD4 V3.4.0                                   
-------------------------------------------------------------------------------
-------------------------   ----------------
Dispersion correction           -0.005924596
-------------------------   ----------------

------------------   -----------------
gCP correction             0.014229640
------------------   -----------------

-------------------------   --------------------
FINAL SINGLE POINT ENERGY      -292.324093721595
-------------------------   --------------------

------------------------------------------------------------------------------
                         ORCA SCF GRADIENT CALCULATION
------------------------------------------------------------------------------

Nuc. rep. gradient        (SHARK) ... done (  0.0 sec)
HCore & Overlap gradient  (SHARK) ... done (  0.3 sec)
Split-RIJ-J gradient      (SHARK) ... done (  1.5 sec)
XC gradient                       ... done (  6.2 sec)
CPCM gradient                     ... done (  1.0 sec)
SMD gradient                      ... done (  0.0 sec)
Dispersion correction             ... done (  0.0 sec)

-------------------
DISPERSION GRADIENT
-------------------

   1   C   :    0.000095221    0.000051756   -0.000030391
   2   C   :    0.000071999    0.000013233    0.000014104
   3   C   :    0.000085867   -0.000054607    0.000036576
   4   N   :    0.000003161   -0.000006172   -0.000041605
   5   C   :   -0.000071271   -0.000015498    0.000009909
   6   C   :   -0.000090888   -0.000048022   -0.000042668
   7   C   :   -0.000091755    0.000051189    0.000042244
   8   H   :    0.000033644    0.000034812   -0.000017985
   9   H   :    0.000031820    0.000020737   -0.000004807
  10   H   :    0.000031785    0.000017349   -0.000019779
  11   H   :    0.000024366    0.000011763    0.000009226
  12   H   :    0.000035960   -0.000024944    0.000005969
  13   H   :    0.000034141   -0.000033513    0.000026169
  14   H   :    0.000033395   -0.000018501    0.000021519
  15   H   :    0.000000327   -0.000000335   -0.000014583
  16   H   :   -0.000025595   -0.000009741    0.000007695
  17   H   :   -0.000032396   -0.000019591   -0.000009157
  18   H   :   -0.000030647   -0.000012598   -0.000022785
  19   H   :   -0.000034020   -0.000031099   -0.000025337
  20   H   :   -0.000035354    0.000025131    0.000006695
  21   H   :   -0.000035293    0.000032101    0.000027267
  22   H   :   -0.000034468    0.000016551    0.000021722

Difference to translation invariance:
           :    0.0000000000    0.0000000000   -0.0000000000

Difference to rotation invariance:
           :    0.0000000000   -0.0000000000   -0.0000000000

Norm of the Dispersion gradient    ...    0.0002993803
RMS gradient                       ...    0.0000368512
MAX gradient                       ...    0.0000952213
gCP correction                   ... done

------------------
CARTESIAN GRADIENT
------------------

   1   C   :   -0.000006198    0.000024786    0.000013257
   2   C   :   -0.000111047   -0.000020266   -0.000063541
   3   C   :    0.000047117   -0.000039172    0.000007579
   4   N   :    0.000058909   -0.000129142    0.000054690
   5   C   :    0.000116969    0.000066691   -0.000123460
   6   C   :    0.000009411   -0.000006504    0.000012135
   7   C   :   -0.000026655    0.000048735   -0.000019259
   8   H   :    0.000003699   -0.000011137    0.000051510
   9   H   :   -0.000023542   -0.000017479    0.000014142
  10   H   :   -0.000020491    0.000032843    0.000029476
  11   H   :    0.000000758   -0.000022271   -0.000000377
  12   H   :    0.000019861    0.000011966    0.000034321
  13   H   :    0.000009926   -0.000009736   -0.000030087
  14   H   :   -0.000025767   -0.000018838    0.000009853
  15   H   :   -0.000032643    0.000068035    0.000041930
  16   H   :   -0.000063629    0.000004701    0.000029952
  17   H   :    0.000005263   -0.000021138    0.000013261
  18   H   :   -0.000013617    0.000005422    0.000020958
  19   H   :    0.000004224    0.000003671   -0.000011028
  20   H   :   -0.000007131   -0.000035358   -0.000036698
  21   H   :    0.000039556    0.000033048   -0.000061049
  22   H   :    0.000015025    0.000031142    0.000012435

Difference to translation invariance:
           :   -0.0000000000   -0.0000000000    0.0000000000

Difference to rotation invariance:
           :   -0.0001001886   -0.0007639395   -0.0002875312

Norm of the Cartesian gradient     ...    0.0003414236
RMS gradient                       ...    0.0000420263
MAX gradient                       ...    0.0001291425

-------
TIMINGS
-------

Total SCF gradient time     ....        9.817 sec

Densities                   ....       0.001 sec  (  0.0%)
One electron gradient       ....       0.313 sec  (  3.2%)
RI-J Coulomb gradient       ....       1.497 sec  ( 15.3%)
XC gradient                 ....       6.178 sec  ( 62.9%)
CPCM gradient               ....       0.981 sec  ( 10.0%)
   A-Matrix (El+Nuc)        ....       0.084 sec  (  0.9%)
   Potential                ....       0.897 sec  (  9.1%)
SMD gradient                ....       0.014 sec  (  0.1%)

Maximum memory used throughout the entire SCFGRAD-calculation: 35.0 MB

------------------------------------------------------------------------------
                              ORCA PROPERTY CALCULATIONS
------------------------------------------------------------------------------

GBWName                                 ... xtb_opt.gbw
Number of atoms                         ...     22
Number of basis functions               ...    213
Max core memory                         ...   1024 MB

Electric properties:
Dipole moment                           ... YES
Quadrupole moment                       ...  NO
Static polarizability (Dipole/Dipole)   ...  NO
Static polarizability (Dipole/Quad.)    ...  NO
Static polarizability (Quad./Quad.)     ...  NO
Static polarizability (Velocity)        ...  NO

Atomic electric properties:
Dipole moment                           ...  NO
Quadrupole moment                       ...  NO
Static polarizability                   ...  NO

Choice of electric origin               ... Center of mass
Position of electric origin             ...    -0.002877     0.017056    -0.025626

General magnetic properties:
Magnetizability                         ...  NO

EPR properties:
g-Tensor (aka g-matrix)                 ...  NO
Zero-Field splitting spin-orbit         ...  NO
Zero-field splitting spin-spin          ...  NO
Hyperfine couplings                     ...  NO (   0 nuclei)
Quadrupole couplings                    ...  NO (   0 nuclei)
Contact density                         ...  NO (   0 nuclei)

NMR properties:
Chemical shifts                         ...  NO (   0 nuclei)
Spin-rotation constants                 ...  NO (   0 nuclei)
Spin-spin couplings                     ...  NO (   0 nuclei,    0 pairs)

Choice of magnetic origin               ... GIAO
Position of magnetic origin             ...     0.000000     0.000000     0.000000

Properties with geometric perturbations:
SCF Hessian                             ...  NO
IR spectrum                             ...  NO
VCD spectrum                            ...  NO
X-ray spectroscopy properties:
SCF XES/XAS/RIXS spectra                ...  NO


-------------
DIPOLE MOMENT
-------------

Method             : SCF
Type of density    : Electron Density
Multiplicity       :   1
Irrep              :   0
Energy             :  -292.3323987652449887 Eh
Relativity type    : 
Basis              : AO
                                X                 Y                 Z
Electronic contribution:     -0.029836028       0.281004897      -0.588308195
Nuclear contribution   :      0.166710512      -0.869343543       0.931618105
                        -----------------------------------------
Total Dipole Moment    :      0.136874485      -0.588338646       0.343309910
                        -----------------------------------------
Magnitude (a.u.)       :      0.694793985
Magnitude (Debye)      :      1.766025962



--------------------
Rotational spectrum 
--------------------
 
Rotational constants in cm-1:             0.137167             0.048042             0.044491 
Rotational constants in MHz :          4112.164442          1440.249511          1333.814676 

Dipole components along the rotational axes: 
x,y,z [a.u.] :    -0.069998     0.569073    -0.392422 
x,y,z [Debye]:    -0.177920     1.446468    -0.997457 

 

Dipole moment calculation done in   0.0 sec 

Maximum memory used throughout the entire PROP-calculation: 13.5 MB

--------------------------------
SUGGESTED CITATIONS FOR THIS RUN
--------------------------------

Below you find a list of papers that are relevant to this ORCA run
We neither can nor want to force you to cite these papers, but we appreciate if you do
You receive ORCA, which is the product of decades of hard work by many enthusiastic individuals, for free
The only thing we kindly ask in return is that you cite our papers,
We deeply appreciate it, if you show your appreciation for ORCA by not just citing the generic ORCA reference.

Please note that relegating all ORCA citations to the supporting information does *not* help us.
SI sections are not indexed - citations you put there will not count into any citation statistics
But we need these citations in order to attract the funding resources that allow us to do what we are doing

Therefore, if you are a happy ORCA user, please consider citing a few of the papers listed below in the main body of your paper

In addition to the list printed below, the program has created the file xtb_opt.bibtex that contains the list in bibtex format
You can import this file easily into all common literature databanks and citation aid programs


List of essential papers. We consider these as the minimum necessary citations

  1. Neese,F.
     Software update: the ORCA program system, version 5.0
     WIRES Comput. Molec. Sci., 2022 12(1)e1606
     doi.org/10.1002/wcms.1606
  2. Grimme,S.; Hansen,A.; Ehlert,S.; Mewes,J.
     r2SCAN-3c: A 'Swiss army knife' composite electronic-structure method
     J. Chem. Phys., 2021 154 064103
     doi.org/10.1063/5.0040021

List of papers to cite with high priority. The work reported in these papers was absolutely
necessary for this run to complete.
Our perspective: the developers of density functionals and basis sets usually get cited in chemistry papers
Good! But without the algorithms to do something with them, the functionals or basis sets would not do anything.
Hence, in our opinion, the algorithm design and method developments papers are equally worthy of getting cited

  1. Neese,F.
     An improvement of the resolution of the identity approximation for the formation of the Coulomb matrix
     J. Comp. Chem., 2003 24(14)1740-1747
     doi.org/10.1002/jcc.10318
  2. Garcia-Rates,M.; Neese,F.
     Effect of the Solute Cavity on the Solvation Energy and its Derivatives within the Framework of the Gaussian Charge Scheme
     J. Comput. Chem., 2020 41 922-939
     doi.org/10.1002/jcc.26139
  3. Neese,F.
     The SHARK Integral Generation and Digestion System
     J. Comp. Chem., 2022  1-16
     doi.org/10.1002/jcc.26942
  4. Lehtola,S.; Steigemann,C.; Oliveira,M.; Marques,M.
     Recent developments in Libxc - A comprehensive library of functionals for density functional theory
     Software X, 2018 7 
     doi.org/10.1016/j.softx.2017.11.002
  5. Caldeweyher,E.; Bannwarth,C.; Grimme,S.
     Extension of the D3 dispersion coefficient model
     J. Chem. Phys., 2017 147 034112-XXXX
     doi.org/10.1063/1.4993215
  6. Caldeweyher,E.; Ehlert,S.; Hansen,A.; Neugebauer,H.; Spicher,S.; Bannwarth,C.; Grimme,S.
     A generally applicable atomic-charge dependent London dispersion correction
     J. Chem. Phys., 2019 150 154122-XXXX
     doi.org/10.1063/1.5090222
  7. Caldeweyher,E.; Mewes,J.; Ehlert,S.; Grimme,S.
     Extension and evaluation of the D4 London-dispersion model for periodic systems
     Phys. Chem. Chem. Phys., 2020 22(16)8499-8512
     doi.org/10.1039/D0CP00502A

List of suggested additional citations. These are papers that are important in the 'surrounding' of 
of this run, or papers that preceded the highly important papers. If you like your results we are grateful for a citation.

  1. Neese,F.
     The ORCA program system
     WIRES Comput. Molec. Sci., 2012 2(1)73-78
     doi.org/10.1002/wcms.81
  2. Neese,F.
     Software update: the ORCA program system, version 4.0
     WIRES Comput. Molec. Sci., 2018 8(1)1-6
     doi.org/10.1002/wcms.1327
  3. Neese,F.; Wennmohs,F.; Becker,U.; Riplinger,C.
     The ORCA quantum chemistry program package
     J. Chem. Phys., 2020 152 Art. No. L224108
     doi.org/10.1063/5.0004608

List of optional additional citations

  1. Neese,F.
     Approximate second-order SCF convergence for spin unrestricted wavefunctions
     Chem. Phys. Lett., 2000 325(1-3)93-98
     doi.org/10.1016/s0009-2614(00)00662-x

Timings for individual modules:

Sum of individual times          ...       19.150 sec (=   0.319 min)
Startup calculation              ...        1.463 sec (=   0.024 min)   7.6 %
SCF iterations                   ...        7.620 sec (=   0.127 min)  39.8 %
Property calculations            ...        0.119 sec (=   0.002 min)   0.6 %
SCF Gradient evaluation          ...        9.947 sec (=   0.166 min)  51.9 %
                             ****ORCA TERMINATED NORMALLY****
TOTAL RUN TIME: 0 days 0 hours 0 minutes 20 seconds 40 msec
  ------------------------------------------------------------------------
          * successful ORCA run, taking over control again...

         :::::::::::::::::::::::::::::::::::::::::::::::::::::
         ::                  ORCA SUMMARY                   ::
         :::::::::::::::::::::::::::::::::::::::::::::::::::::
         :: total energy            -292.324093721595 Eh    ::
         :: gradient norm              0.000341423591 Eh/a0 ::
         :: HOMO-LUMO gap              0.000000000000 eV    ::
         :::::::::::::::::::::::::::::::::::::::::::::::::::::

           -------------------------------------------------
          |                Property Printout                |
           -------------------------------------------------
           -------------------------------------------------
          |                Geometry Summary                 |
           -------------------------------------------------

      molecular mass/u    :      101.1902299
   center of mass at/Å    :       -0.0015225       0.0090260      -0.0135609
  moments of inertia/u·Å² :        0.1228944E+03   0.3508864E+03   0.3788861E+03
rotational constants/cm⁻¹ :        0.1371717E+00   0.4804299E-01   0.4449261E-01

 * 19 selected distances

     #   Z          #   Z                                           value/Å
     1   6 C        2   6 C                                       1.5250756
     2   6 C        3   6 C                                       1.5310619 (max)
     5   6 C        6   6 C                                       1.5231642
     5   6 C        7   6 C                                       1.5261039
     1   6 C        8   1 H                                       1.0942720
     1   6 C        9   1 H                                       1.0950291
     1   6 C       10   1 H                                       1.0968267
     2   6 C       11   1 H                                       1.0970571
     3   6 C       12   1 H                                       1.0972838
     3   6 C       13   1 H                                       1.0944862
     3   6 C       14   1 H                                       1.0955216
     4   7 N       15   1 H                                       1.0182141 (min)
     5   6 C       16   1 H                                       1.1038256
     6   6 C       17   1 H                                       1.0944096
     6   6 C       18   1 H                                       1.0963933
     6   6 C       19   1 H                                       1.0960553
     7   6 C       20   1 H                                       1.0961268
     7   6 C       21   1 H                                       1.0946095
     7   6 C       22   1 H                                       1.0952435

 * 3 distinct bonds (by element types)

   Z      Z             #   av. dist./Å        max./Å        min./Å
   1 H    6 C          14     1.0962243     1.1038256     1.0942720
   6 C    6 C           4     1.5263514     1.5310619     1.5231642
   1 H    7 N           1     1.0182141     1.0182141     1.0182141


optimized geometry written to: xtbopt.coord


           -------------------------------------------------
          | TOTAL ENERGY             -292.324093721595 Eh   |
          | GRADIENT NORM               0.000341423591 Eh/α |
           -------------------------------------------------

------------------------------------------------------------------------
 * finished run on 2025/04/11 at 12:32:16.271     
------------------------------------------------------------------------
 total:
 * wall-time:     0 d,  0 h,  1 min,  3.623 sec
 *  cpu-time:     0 d,  0 h,  0 min,  1.814 sec
 * ratio c/w:     0.029 speedup
 SCF:
 * wall-time:     0 d,  0 h,  0 min, 20.060 sec
 *  cpu-time:     0 d,  0 h,  0 min,  0.268 sec
 * ratio c/w:     0.013 speedup
 ANC optimizer:
 * wall-time:     0 d,  0 h,  0 min, 43.450 sec
 *  cpu-time:     0 d,  0 h,  0 min,  1.427 sec
 * ratio c/w:     0.033 speedup

