20
 energy: -27.120974524527 gnorm: 0.035789559311 xtb: 6.7.1 (edcfbbe)
C           -2.31737384285204       -1.20021467798472        0.75097859076234
C           -2.53576796873985        0.05122267095359       -0.09279292697464
C           -1.33866816340089        0.35318711336814       -1.00617161608726
C           -0.10577308565462        0.63453903641416       -0.19419461291596
O           -0.01443567053626        1.53825452876726        0.62314755470590
O            0.89496922324096       -0.22584764390286       -0.45217241847210
C            2.13328285304496       -0.03029440764316        0.30619202248491
C            3.08530742349998       -1.12096672933328       -0.11134624605178
H           -3.19173572824919       -1.41198727175049        1.37387970826615
H           -2.13461563023899       -2.07382139012551        0.11573891185456
H           -1.45502446994379       -1.08538401386365        1.41860507368040
H           -2.72214665325147        0.91626267955973        0.55328856342104
H           -3.42043857356040       -0.07169942364558       -0.72621365569654
H           -1.54047046989699        1.25014410670129       -1.60299559542366
H           -1.15440477269107       -0.48086509441712       -1.68797200547688
H            2.52138281713276        0.96629108669200        0.07586014038541
H            1.89332593851785       -0.08059663910809        1.37222922321151
H            2.67793932837669       -2.10875637644113        0.12254793896071
H            3.29910835207034       -1.06881836539979       -1.18263933991342
H            4.02688501632529       -1.00075183189049        0.43262013484757
20
 energy: -27.122205698594 gnorm: 0.013651983855 xtb: 6.7.1 (edcfbbe)
C           -2.31539144822466       -1.19861195664825        0.74516456668531
C           -2.53507477650174        0.05109137855454       -0.09452158130826
C           -1.33439091811953        0.34787796425129       -1.00184865604612
C           -0.10539460757305        0.63390175725819       -0.18403103078059
O           -0.01022873724385        1.53517145953892        0.62476519887713
O            0.88889109007419       -0.21640170892822       -0.44066270216739
C            2.12516226962184       -0.03437252616294        0.29954652601168
C            3.08936028064971       -1.12319570375019       -0.11121983534295
H           -3.18923343073642       -1.40211654780772        1.36191851118983
H           -2.13253530270868       -2.06434169624043        0.10944116789079
H           -1.45699586412056       -1.07300368950372        1.40621823173474
H           -2.70652542873878        0.91067250474125        0.55857963690418
H           -3.41946839885001       -0.07881733519195       -0.72210393392241
H           -1.54437901606834        1.24041894406367       -1.59697590123872
H           -1.13685269510326       -0.49093718439933       -1.67020756546479
H            2.50855203884308        0.96357590308764        0.07040922978187
H            1.88563226542168       -0.07808989071172        1.36550000585759
H            2.67474455069082       -2.10246614939846        0.11741010328542
H            3.28966399216477       -1.06888351475313       -1.17888569734820
H            4.02581005971606       -1.00157465104913        0.43009317096914
20
 energy: -27.122439261456 gnorm: 0.004257840310 xtb: 6.7.1 (edcfbbe)
C           -2.31320856112817       -1.20063507363199        0.74383481299436
C           -2.53076073133505        0.05090279996638       -0.09557575314623
C           -1.32901131491788        0.34399577072692       -1.00193311957540
C           -0.10236059306426        0.63766395244708       -0.17990137981110
O           -0.00824735712186        1.53682695227323        0.62941196606103
O            0.88521290096296       -0.21024141351208       -0.43237130236313
C            2.11630965946297       -0.03373367333195        0.29780556613883
C            3.08278285266451       -1.12476481747669       -0.11454390618348
H           -3.18746410955488       -1.40134487265069        1.35653042497901
H           -2.12988793435624       -2.06170354732339        0.10677328341614
H           -1.45707723851583       -1.07166656635565        1.40269605715043
H           -2.69195455313340        0.90883346785781        0.55983108389018
H           -3.41505950578242       -0.07678229723594       -0.72040800338250
H           -1.54212205937977        1.23101031574580       -1.60070595078353
H           -1.12068561265321       -0.50056502467803       -1.65765151418022
H            2.50406044652810        0.96362691526355        0.06981472358407
H            1.88447011067294       -0.07408852815713        1.36656397258582
H            2.66448918441019       -2.10007312668468        0.11309618001230
H            3.27689880067213       -1.06747806300774       -1.18089071732818
H            4.01496153876244       -0.99988581328448        0.42621302150986
20
 energy: -27.122476147359 gnorm: 0.001779045316 xtb: 6.7.1 (edcfbbe)
C           -2.31228264084264       -1.20219444563657        0.74303248966364
C           -2.52880031115175        0.05147816873853       -0.09557374513329
C           -1.32682769445782        0.34205952190573       -1.00243555523298
C           -0.10229727684022        0.63985641161327       -0.17706765500879
O           -0.01006656295487        1.54211823358985        0.63033501125985
O            0.88460841128773       -0.20723499868113       -0.42769023359196
C            2.11389649234916       -0.03161896683984        0.29863397517687
C            3.07810015936625       -1.12518223021013       -0.11666169395154
H           -3.18753388743446       -1.40321150404807        1.35415878905795
H           -2.12835335229281       -2.06223908467754        0.10463425692142
H           -1.45689394452665       -1.07381480053131        1.40302463706933
H           -2.68619978435148        0.90924508213038        0.56071293379413
H           -3.41388444415885       -0.07311839038699       -0.71941765539337
H           -1.53964132559301        1.22460981405305       -1.60729292656675
H           -1.11343113073719       -0.50650722814533       -1.65099241773908
H            2.50584036509475        0.96500304314063        0.07154762040484
H            1.88795666419154       -0.07164516817807        1.36931319561866
H            2.65710055049755       -2.09944654619356        0.11100556106462
H            3.26929108417726       -1.06653028544154       -1.18356409930061
H            4.01076455157079       -1.00172926925105        0.42288695745530
20
 energy: -27.122492626602 gnorm: 0.002276514056 xtb: 6.7.1 (edcfbbe)
C           -2.31201171073469       -1.20461388704799        0.74148479201075
C           -2.52627929216399        0.05216873376360       -0.09466756667492
C           -1.32435358989977        0.33922759361985       -1.00251802507937
C           -0.10150029316223        0.64722200040499       -0.17696844899800
O           -0.01493415382809        1.55251490641681        0.62915934531360
O            0.88577646348471       -0.20105701855876       -0.42157656790034
C            2.11352234194766       -0.02767016981883        0.30184646211596
C            3.07175216384587       -1.12568750783732       -0.11907281982374
H           -3.18883537591974       -1.40773321525993        1.35056321390373
H           -2.12694113074276       -2.06334926704143        0.10053548958522
H           -1.45745665541321       -1.07895195576763        1.40408672147456
H           -2.67904521862700        0.90966022230732        0.56331096989124
H           -3.41370657739540       -0.06720582381144       -0.71647068962308
H           -1.53751551144942        1.21398627918435       -1.61848231689142
H           -1.10530859878671       -0.51544512463658       -1.64113569749292
H            2.51155448521539        0.96749872298197        0.07571675864097
H            1.89446565208570       -0.06790654005464        1.37456598579155
H            2.64574563546299       -2.09856009016490        0.10811589905696
H            3.25892440328990       -1.06556649917262       -1.18717565722285
H            4.00749288598406       -1.00863400255650        0.41727159749034
20
 energy: -27.122497293886 gnorm: 0.001283459369 xtb: 6.7.1 (edcfbbe)
C           -2.31286795255331       -1.20473538304971        0.74106186828600
C           -2.52616889591708        0.05239024881349       -0.09415256130441
C           -1.32430596833758        0.33860213612964       -1.00211354944208
C           -0.10208996092143        0.64712689095451       -0.17626147540935
O           -0.01524706300218        1.55413643740264        0.62745162636375
O            0.88631105452060       -0.20043822659195       -0.42109935485916
C            2.11496356200033       -0.02686894012143        0.30226738512771
C            3.07193194621389       -1.12541485316437       -0.11904915563392
H           -3.18983741709737       -1.40821726287121        1.34983531377383
H           -2.12791469955904       -2.06320988333037        0.09972832111448
H           -1.45844375542322       -1.08020827884076        1.40405583751528
H           -2.67848941535162        0.90975235650579        0.56422959231609
H           -3.41380751733200       -0.06601513502182       -0.71597193381841
H           -1.53725085561502        1.21256204375785       -1.61937786675640
H           -1.10572636493995       -0.51673333979123       -1.64002922912984
H            2.51262573192192        0.96820381914685        0.07587154981790
H            1.89531354768250       -0.06742875112574        1.37465862953523
H            2.64517470271941       -2.09795559056904        0.10810793196459
H            3.25876440275449       -1.06553358299318       -1.18719849607636
H            4.00841084142992       -1.01011734828965        0.41657501218331
20
 energy: -27.122499910679 gnorm: 0.000905384427 xtb: 6.7.1 (edcfbbe)
C           -2.31521723275078       -1.20554741784706        0.74008429325819
C           -2.52579112710967        0.05272112408894       -0.09265955965720
C           -1.32392241518979        0.33687455566536       -1.00092285168385
C           -0.10182366180347        0.64885080451236       -0.17710616567498
O           -0.01502830870207        1.55730410887327        0.62385056226481
O            0.88761859395282       -0.19877079768303       -0.42066735199485
C            2.11795659230434       -0.02526651902438        0.30308456906798
C            3.07245526670273       -1.12491838002487       -0.11871431217712
H           -3.19270711697478       -1.40905960403978        1.34790295151517
H           -2.13122201198039       -2.06310549963992        0.09749310741043
H           -1.46107322355314       -1.08391929098829        1.40377851601989
H           -2.67593511871393        0.90967478132944        0.56690674553695
H           -3.41422662276147       -0.06280639383880       -0.71406243927722
H           -1.53739145805301        1.20897239562304       -1.62059513787131
H           -1.10620731128287       -0.52000562897139       -1.63707485011325
H            2.51480036505267        0.96940887149234        0.07547831665809
H            1.89672936654094       -0.06567888132635        1.37476408880243
H            2.64374012891021       -2.09644290225379        0.10834229059246
H            3.25847363260889       -1.06544263478691       -1.18686246528137
H            4.01011758599604       -1.01294533420989        0.41556913817298
20
 energy: -27.122501052220 gnorm: 0.000293943044 xtb: 6.7.1 (edcfbbe)
C           -2.31593306092007       -1.20611306052064        0.73993821598496
C           -2.52547994494628        0.05297638272850       -0.09232714567174
C           -1.32354448893349        0.33640173196482       -1.00089633914921
C           -0.10151122553650        0.64878735567593       -0.17686897487677
O           -0.01447675629338        1.55790586514399        0.62364885648150
O            0.88753670574442       -0.19890437387822       -0.42022011209875
C            2.11778852533233       -0.02486176186773        0.30280737019850
C            3.07228516819898       -1.12483790416269       -0.11883344586092
H           -3.19370519388831       -1.40907286568595        1.34752521525690
H           -2.13265764269686       -2.06340138659871        0.09677246433347
H           -1.46170892314224       -1.08540814881910        1.40368234414547
H           -2.67425657185274        0.90978820751027        0.56766046861227
H           -3.41417502823241       -0.06123645984916       -0.71349287805806
H           -1.53693149415516        1.20797659748629       -1.62132525792457
H           -1.10524631018524       -0.52117077463486       -1.63591912149344
H            2.51484554281247        0.96969646459544        0.07465060936439
H            1.89736215675918       -0.06456786443621        1.37479748149794
H            2.64334319302315       -2.09620024158936        0.10851489871908
H            3.25805971709160       -1.06545258341405       -1.18704818334124
H            4.00975155501383       -1.01240782269826        0.41552297944847
20
 energy: -27.122501950658 gnorm: 0.000219065416 xtb: 6.7.1 (edcfbbe)
C           -2.31772539275753       -1.20697836018946        0.73957136570255
C           -2.52524572540867        0.05350666408020       -0.09149097643285
C           -1.32328927519235        0.33561743055150       -1.00062177128442
C           -0.10081184458545        0.64863245373270       -0.17732586541151
O           -0.01340864498954        1.55833658413506        0.62276294077972
O            0.88772492554806       -0.19950587692105       -0.42008630168867
C            2.11814052397087       -0.02431656416792        0.30220040428647
C            3.07291072344905       -1.12452407089717       -0.11858587501794
H           -3.19582301100210       -1.40869787427147        1.34711854650320
H           -2.13638544096425       -2.06396033154594        0.09541112800431
H           -1.46307516085919       -1.08855741559340        1.40319476385484
H           -2.67169930173370        0.90999798786346        0.56937075442603
H           -3.41455514752080       -0.05825748557581       -0.71215309940083
H           -1.53663442742600        1.20661094152792       -1.62182605792886
H           -1.10500100613124       -0.52265173583410       -1.63460739822719
H            2.51493190032480        0.97008533851123        0.07269194104348
H            1.89836632508884       -0.06266807147942        1.37443336682966
H            2.64398629617897       -2.09577414947078        0.10933407163674
H            3.25884784128273       -1.06569019769440       -1.18682982860212
H            4.01009176592074       -1.01130790981085        0.41602733649564
20
 energy: -27.122502748696 gnorm: 0.000356511794 xtb: 6.7.1 (edcfbbe)
C           -2.32014443872062       -1.20779815994491        0.73900611581914
C           -2.52507652913762        0.05421466018346       -0.09046268610269
C           -1.32312105095003        0.33457567043022       -1.00017533336021
C           -0.10029564785384        0.64799501527996       -0.17749833936008
O           -0.01246661636838        1.55864123296887        0.62156861198500
O            0.88811896328872       -0.20028405569865       -0.41985387109502
C            2.11891785248440       -0.02362750824735        0.30141547747909
C            3.07401854142088       -1.12401219374994       -0.11822785408991
H           -3.19844099001600       -1.40801851487499        1.34677644270419
H           -2.14135889259778       -2.06445089177263        0.09368865620230
H           -1.46481092889517       -1.09232037169079        1.40226419139367
H           -2.66890362165356        0.91029272288955        0.57148303743468
H           -3.41511139781818       -0.05465167430421       -0.71057211134530
H           -1.53616308351704        1.20499700279907       -1.62228580247874
H           -1.10532170042303       -0.52452196410988       -1.63318999474211
H            2.51515616067008        0.97062292310653        0.07022246353047
H            1.89981109975342       -0.06046083041550        1.37384383530202
H            2.64526603562666       -2.09516557793217        0.11046439945970
H            3.26028070907695       -1.06610024319289       -1.18647538518266
H            4.01099145882340       -1.01002988477346        0.41659759201469
20
 energy: -27.122503560249 gnorm: 0.000237822293 xtb: 6.7.1 (edcfbbe)
C           -2.32295327714060       -1.20854323385580        0.73830555873919
C           -2.52508107058218        0.05501235629078       -0.08937125976880
C           -1.32304903596416        0.33334411559784       -0.99955029065123
C           -0.09976055486237        0.64718957893584       -0.17776013436196
O           -0.01177082122792        1.55841472504848        0.62056561387715
O            0.88875547278624       -0.20115570232339       -0.41973467781930
C            2.11998556364683       -0.02288863985801        0.30047066417460
C            3.07551871296560       -1.12339024964854       -0.11773385685531
H           -3.20120055673765       -1.40691519185504        1.34675502268546
H           -2.14746736655248       -2.06494908547625        0.09175798649000
H           -1.46656171755112       -1.09652138627907        1.40078795416857
H           -2.66615460753752        0.91069190104971        0.57369296435020
H           -3.41590894018065       -0.05070008303372       -0.70890861256802
H           -1.53556369884578        1.20330583205568       -1.62249565173798
H           -1.10618398188845       -0.52651058289070       -1.63186198426984
H            2.51554692274403        0.97117814210413        0.06732525820819
H            1.90156655054116       -0.05800092308238        1.37307654460141
H            2.64714638057925       -2.09446010515304        0.11204340230842
H            3.26214414857809       -1.06676209276945       -1.18598706464152
H            4.01233780042296       -1.00844201790677        0.41721200863901
20
 energy: -27.122504204880 gnorm: 0.000071873755 xtb: 6.7.1 (edcfbbe)
C           -2.32633826388801       -1.20933038082639        0.73748061099616
C           -2.52510721019290        0.05593491045226       -0.08820179322303
C           -1.32290126394015        0.33181987283125       -0.99881894735239
C           -0.09930829224921        0.64601568394092       -0.17770897146228
O           -0.01127684058977        1.55780353234503        0.61988223303945
O            0.88966487698046       -0.20196266653731       -0.41971116141223
C            2.12136185902314       -0.02189741603924        0.29936573252292
C            3.07728554327672       -1.12261585993333       -0.11719290007734
H           -3.20423848574600       -1.40527214299740        1.34723604420110
H           -2.15524649315278       -2.06555357807554        0.08950242230634
H           -1.46832832933877       -1.10146534393844        1.39855497645796
H           -2.66312203141122        0.91121290664081        0.57607668471932
H           -3.41678201706938       -0.04621269248666       -0.70715184242579
H           -1.53452682816263        1.20126583972502       -1.62285091202236
H           -1.10712225126298       -0.52896714730628       -1.63026778227125
H            2.51622353710419        0.97192992207113        0.06406207038590
H            1.90360917664634       -0.05509225864063        1.37214200954054
H            2.64938610046519       -2.09353279923159        0.11410428035397
H            3.26402164780039       -1.06765977099664       -1.18550483829664
H            4.01409148890065       -1.00652325404670        0.41759152958790
20
 energy: -27.122504572819 gnorm: 0.000103977597 xtb: 6.7.1 (edcfbbe)
C           -2.32944402168475       -1.21000006766168        0.73670095292848
C           -2.52520219772670        0.05676886781845       -0.08728540550442
C           -1.32268945202654        0.33033622796937       -0.99812048429883
C           -0.09885634137780        0.64489579910855       -0.17755529116056
O           -0.01105122269702        1.55668429818714        0.61998841159169
O            0.89066936161368       -0.20242331190586       -0.41994108259817
C            2.12264572791999       -0.02089803101780        0.29830875184457
C            3.07888659270219       -1.12189104717700       -0.11672193397108
H           -3.20677576268298       -1.40319376494024        1.34814195438741
H           -2.16310869580001       -2.06623819387227        0.08750908167998
H           -1.46959680526959       -1.10617005447693        1.39602357502047
H           -2.66041620970974        0.91171005379633        0.57802990995749
H           -3.41757443568680       -0.04215122043895       -0.70576935712121
H           -1.53347815308675        1.19926287339420       -1.62319341983715
H           -1.10774102396953       -0.53131282369794       -1.62868716667627
H            2.51704301690527        0.97267229712522        0.06116274758302
H            1.90535000392336       -0.05235708830913        1.37121687053631
H            2.65150297209175       -2.09262527554384        0.11627497885277
H            3.26540194156895       -1.06862787179404       -1.18515068052453
H            4.01578062818630       -1.00454430961330        0.41765703287826
20
 energy: -27.122504826909 gnorm: 0.000122717767 xtb: 6.7.1 (edcfbbe)
C           -2.33189098458764       -1.21046234464991        0.73617358757658
C           -2.52523696426099        0.05732776385323       -0.08676364143283
C           -1.32240079890664        0.32918957748242       -0.99764514045846
C           -0.09857730977147        0.64399745673100       -0.17718093739267
O           -0.01123229837315        1.55536691167534        0.62088297326208
O            0.89160746049870       -0.20236834888563       -0.42037754440043
C            2.12369073560936       -0.02000434430611        0.29750536580034
C            3.08000948258048       -1.12132418366275       -0.11644883659514
H           -3.20855248509945       -1.40123140978351        1.34934802172056
H           -2.16960935704777       -2.06685611611287        0.08617471952327
H           -1.47034373276475       -1.10967490457488        1.39372302399755
H           -2.65852243388724        0.91205505520164        0.57921326061849
H           -3.41801189998592       -0.03933165857564       -0.70500107918262
H           -1.53241185677347        1.19764877710972       -1.62365404487535
H           -1.10784656962141       -0.53315692611299       -1.62738951896683
H            2.51796835865172        0.97332769626642        0.05919079129536
H            1.90654997948101       -0.05027740571397        1.37047434972468
H            2.65303697324887       -2.09185858534524        0.11811794528595
H            3.26597161788653       -1.06949905592956       -1.18503979626887
H            4.01714800631652       -1.00297059771645        0.41728594633657
20
 energy: -27.122505113616 gnorm: 0.000088569749 xtb: 6.7.1 (edcfbbe)
C           -2.33416325053060       -1.21073647410585        0.73568865256860
C           -2.52543187680049        0.05781730961327       -0.08658537378205
C           -1.32199359706044        0.32796459771866       -0.99713579205726
C           -0.09838389041090        0.64298460396799       -0.17640403541643
O           -0.01193227900064        1.55324784883220        0.62303408070649
O            0.89280018962844       -0.20175299912696       -0.42118282143797
C            2.12481772349682       -0.01896824785271        0.29670031036275
C            3.08099362617819       -1.12077409442120       -0.11631496613143
H           -3.20995039112377       -1.39866394773678        1.35097303177569
H           -2.17636202543414       -2.06757163334501        0.08519120052436
H           -1.47070301485617       -1.11289397042640        1.39115831960868
H           -2.65711022497410        0.91246051119212        0.57981569329509
H           -3.41839594684642       -0.03694653907820       -0.70482383003955
H           -1.53113363806407        1.19590525669396       -1.62416031642413
H           -1.10751442305973       -0.53505730071277       -1.62597138531154
H            2.51929370193143        0.97408344695852        0.05756751575065
H            1.90754132752810       -0.04827423422664        1.36967316353132
H            2.65447157019674       -2.09104077526452        0.12017087625930
H            3.26591356061012       -1.07055294137966       -1.18516256213995
H            4.01858878178493       -1.00133306034975        0.41635768392559
20
 energy: -27.122505330335 gnorm: 0.000060467100 xtb: 6.7.1 (edcfbbe)
C           -2.33548456606629       -1.21067476524787        0.73563658453530
C           -2.52560129928225        0.05791659545925       -0.08689775694598
C           -1.32160541501813        0.32734480636165       -0.99689822798465
C           -0.09837378071243        0.64227636665323       -0.17553135152366
O           -0.01299233031914        1.55090397674781        0.62590676819334
O            0.89377546857547       -0.20073922411854       -0.42219399645942
C            2.12556273265157       -0.01825514571842        0.29616337259295
C            3.08145589696219       -1.12048661747556       -0.11641087454550
H           -3.21059367306126       -1.39679218343317        1.35243718732232
H           -2.18020943311674       -2.06801949202909        0.08524386403534
H           -1.47080632688755       -1.11398458457106        1.38962985699367
H           -2.65703661092922        0.91267622014369        0.57937157696184
H           -3.41836175374826       -0.03643203329339       -0.70544649202877
H           -1.52998566264256        1.19504998757517       -1.62450598834005
H           -1.10687086727360       -0.53597674651625       -1.62521831630289
H            2.52053855286782        0.97457882829007        0.05696745524547
H            1.90786232323588       -0.04724474293510        1.36907088365531
H            2.65524560295917       -2.09053128346291        0.12153645328646
H            3.26529063944247       -1.07137638298712       -1.18549637298962
H            4.01953642555616       -1.00033622249211        0.41522481986676
20
 energy: -27.122505468918 gnorm: 0.000074879182 xtb: 6.7.1 (edcfbbe)
C           -2.33642925966201       -1.21049840036521        0.73562465806970
C           -2.52593575054737        0.05802135369026       -0.08724591520176
C           -1.32131282373699        0.32675757912515       -0.99659133216171
C           -0.09840785421563        0.64154576883602       -0.17462465720842
O           -0.01394007725524        1.54877525962841        0.62852039044813
O            0.89462167827699       -0.19989032434761       -0.42304113559238
C            2.12625981801909       -0.01763804904701        0.29565023746990
C            3.08184666141101       -1.12027986987079       -0.11657209613901
H           -3.21134401152591       -1.39542098277736        1.35304539835812
H           -2.18250117729987       -2.06829751807151        0.08548462416343
H           -1.47123470677755       -1.11443264588868        1.38907441654965
H           -2.65730755456895        0.91296076319961        0.57882608809182
H           -3.41845310629616       -0.03611644613040       -0.70621062979502
H           -1.52905563736850        1.19432672393037       -1.62460312822693
H           -1.10635199080507       -0.53674188654681       -1.62459664844329
H            2.52166106047737        0.97501219122568        0.05636710793583
H            1.90823947055670       -0.04635265410752        1.36851075977433
H            2.65577747778527       -2.09013175113950        0.12243765380062
H            3.26495295682673       -1.07201658982640       -1.18582541328451
H            4.02026074989940       -0.99968516456645        0.41435906695972
20
 energy: -27.122505658948 gnorm: 0.000091859570 xtb: 6.7.1 (edcfbbe)
C           -2.33753123780721       -1.21024294112031        0.73578248721774
C           -2.52627695870039        0.05805478301953       -0.08765073975576
C           -1.32101212976776        0.32623381365382       -0.99625874487874
C           -0.09843534059223        0.64074930424605       -0.17365395873694
O           -0.01500062852928        1.54626704908530        0.63152999452844
O            0.89555065918816       -0.19892947012467       -0.42407545146886
C            2.12704231368091       -0.01699578440325        0.29496018220176
C            3.08230903783021       -1.12010241520813       -0.11678842705412
H           -3.21259215747095       -1.39448202095049        1.35318677994340
H           -2.18391217745243       -2.06839293181253        0.08602933369671
H           -1.47235728644622       -1.11426321141299        1.38928530929835
H           -2.65783754749854        0.91321798680342        0.57809986081017
H           -3.41845185939302       -0.03608320872670       -0.70711889367105
H           -1.52800975347519        1.19375349840208       -1.62460130691083
H           -1.10586384495566       -0.53738122581580       -1.62404296706334
H            2.52292857158523        0.97542789500613        0.05552831296461
H            1.90868357216884       -0.04534637377326        1.36776574305722
H            2.65621898452804       -2.08972679841433        0.12311131231575
H            3.26493887904713       -1.07263209677085       -1.18615605929458
H            4.02095482725368       -0.99922849473277        0.41365667836828
20
 energy: -27.122506105056 gnorm: 0.000115050382 xtb: 6.7.1 (edcfbbe)
C           -2.33972371228396       -1.20968544467139        0.73617153239098
C           -2.52701829294288        0.05815812341366       -0.08832791769456
C           -1.32051475154013        0.32519420563773       -0.99551494066763
C           -0.09849855672063        0.63904857264470       -0.17175889752645
O           -0.01692502062556        1.54138124947587        0.63717787084114
O            0.89732022424678       -0.19727269458288       -0.42605634683557
C            2.12864771031866       -0.01575254405752        0.29342949237188