
                                 *****************
                                 * O   R   C   A *
                                 *****************

                                            #,                                       
                                            ###                                      
                                            ####                                     
                                            #####                                    
                                            ######                                   
                                           ########,                                 
                                     ,,################,,,,,                         
                               ,,#################################,,                 
                          ,,##########################################,,             
                       ,#########################################, ''#####,          
                    ,#############################################,,   '####,        
                  ,##################################################,,,,####,       
                ,###########''''           ''''###############################       
              ,#####''   ,,,,##########,,,,          '''####'''          '####       
            ,##' ,,,,###########################,,,                        '##       
           ' ,,###''''                  '''############,,,                           
         ,,##''                                '''############,,,,        ,,,,,,###''
      ,#''                                            '''#######################'''  
     '                                                          ''''####''''         
             ,#######,   #######,   ,#######,      ##                                
            ,#'     '#,  ##    ##  ,#'     '#,    #''#        ,####,   ,####,        
            ##       ##  ##   ,#'  ##            #'  '#       #'       #'  '#        
            ##       ##  #######   ##           ,######,      #####,   #    #        
            '#,     ,#'  ##    ##  '#,     ,#' ,#      #,     #,   #   #,  ,#        
             '#######'   ##     ##  '#######'  #'      '#     '####' # '####'        



                #########################################################
                #                        -***-                          #
                #          Department of theory and spectroscopy        #
                #                                                       #
                #                      Frank Neese                      #
                #                                                       #
                #     Directorship, Architecture, Infrastructure        #
                #                    SHARK, DRIVERS                     #
                #        Core code/Algorithms in most modules           #
                #                                                       #
                #        Max Planck Institute fuer Kohlenforschung      #
                #                Kaiser Wilhelm Platz 1                 #
                #                 D-45470 Muelheim/Ruhr                 #
                #                      Germany                          #
                #                                                       #
                #                  All rights reserved                  #
                #                        -***-                          #
                #########################################################


                         Program Version 6.0.0  -   RELEASE  -


 With contributions from (in alphabetic order):
   Daniel Aravena         : Magnetic Suceptibility
   Michael Atanasov       : Ab Initio Ligand Field Theory (pilot matlab implementation)
   Alexander A. Auer      : GIAO ZORA, VPT2 properties, NMR spectrum
   Ute Becker             : All parallelization in ORCA, NUMFREQ, NUMCALC
   Giovanni Bistoni       : ED, misc. LED, open-shell LED, HFLD
   Martin Brehm           : Molecular dynamics
   Dmytro Bykov           : pre 5.0 version of the SCF Hessian
   Marcos Casanova-Páez   : Triplet and SCS-CIS(D). UHF-(DLPNO)-IP/EA/STEOM-CCSD. UHF-CVS-IP/STEOM-CCSD
   Vijay G. Chilkuri      : MRCI spin determinant printing, contributions to CSF-ICE
   Pauline Colinet        : FMM embedding
   Dipayan Datta          : RHF DLPNO-CCSD density
   Achintya Kumar Dutta   : EOM-CC, STEOM-CC
   Nicolas Foglia         : Exact transition moments, OPA infrastructure, MCD improvements
   Dmitry Ganyushin       : Spin-Orbit,Spin-Spin,Magnetic field MRCI
   Miquel Garcia          : C-PCM and meta-GGA Hessian, CCSD/C-PCM, Gaussian charge scheme
   Tiago L. C. Gouveia    : GS-ROHF, GS-ROCIS
   Yang Guo               : DLPNO-NEVPT2, F12-NEVPT2, CIM, IAO-localization
   Andreas Hansen         : Spin unrestricted coupled pair/coupled cluster methods
   Ingolf Harden          : AUTO-CI MPn and infrastructure 
   Benjamin Helmich-Paris : MC-RPA, TRAH-(SCF,CASSCF), AVAS, COSX integrals, SCF dyn. polar.
   Lee Huntington         : MR-EOM, pCC
   Robert Izsak           : Overlap fitted RIJCOSX, COSX-SCS-MP3, EOM
   Riya Kayal             : Wick's Theorem for AUTO-CI, AUTO-CI UHF-CCSDT
   Emily Kempfer          : AUTO-CI, RHF CISDT and CCSDT
   Christian Kollmar      : KDIIS, OOCD, Brueckner-CCSD(T), CCSD density, CASPT2, CASPT2-K, improved NEVPT2
   Axel Koslowski         : Symmetry handling
   Simone Kossmann        : Meta GGA functionals, TD-DFT gradient, OOMP2, (MP2 Hessian; deprecated post 5.0)
   Lucas Lang             : DCDCAS
   Marvin Lechner         : AUTO-CI (C++ implementation), FIC-MRCC
   Spencer Leger          : CASSCF response
   Dagmar Lenk            : GEPOL surface, SMD, ORCA-2-JSON
   Dimitrios Liakos       : Extrapolation schemes; Compound Job, initial MDCI parallelization
   Dimitrios Manganas     : Further ROCIS development; embedding schemes. LFT, Crystal Embedding
   Dimitrios Pantazis     : SARC Basis sets
   Anastasios Papadopoulos: AUTO-CI, single reference methods and gradients
   Taras Petrenko         : pre 6.0 DFT Hessian and TD-DFT gradient, (ASA, deprecated), ECA, 1-Electron XAS/XES, NRVS
   Peter Pinski           : DLPNO-MP2, DLPNO-MP2 Gradient
   Christoph Reimann      : Effective Core Potentials
   Marius Retegan         : Local ZFS, SOC
   Christoph Riplinger    : Optimizer, TS searches, QM/MM, DLPNO-CCSD(T), (RO)-DLPNO pert. Triples
   Michael Roemelt        : Original ROCIS implementation
   Masaaki Saitow         : Open-shell DLPNO-CCSD energy and density
   Barbara Sandhoefer     : DKH picture change effects
   Kantharuban Sivalingam : CASSCF convergence/infrastructure, NEVPT2 and variants, FIC-MRCI
   Bernardo de Souza      : ESD, SOC TD-DFT
   Georgi Stoychev        : AutoAux, RI-MP2 NMR, DLPNO-MP2 response, X2C
   Van Anh Tran           : RI-MP2 g-tensors
   Willem Van den Heuvel  : Paramagnetic NMR
   Zikuan Wang            : NOTCH, Electric field optimization 
   Frank Wennmohs         : Technical directorship and infrastructure
   Hang Xu                : AUTO-CI-Response properties 


 We gratefully acknowledge several colleagues who have allowed us to
 interface, adapt or use parts of their codes:
   Stefan Grimme, W. Hujo, H. Kruse, P. Pracht,  : VdW corrections, initial TS optimization,
                  C. Bannwarth, S. Ehlert,         DFT functionals, gCP, sTDA/sTD-DF
                  L. Wittmann, M. Mueller
   Ed Valeev, F. Pavosevic, A. Kumar             : LibInt (2-el integral package), F12 methods
   Garnet Chan, S. Sharma, J. Yang, R. Olivares  : DMRG
   Ulf Ekstrom                                   : XCFun DFT Library
   Mihaly Kallay                                 : mrcc  (arbitrary order and MRCC methods)
   Frank Weinhold                                : gennbo (NPA and NBO analysis)
   Simon Mueller                                 : openCOSMO-RS
   Christopher J. Cramer and Donald G. Truhlar   : smd solvation model
   Lars Goerigk                                  : TD-DFT with DH, B97 family of functionals
   V. Asgeirsson, H. Jonsson                     : NEB implementation
   FAccTs GmbH                                   : IRC, NEB, NEB-TS, DLPNO-Multilevel, CI-OPT
                                                   MM, QMMM, 2- and 3-layer-ONIOM, Crystal-QMMM,
                                                   LR-CPCM, SF, NACMEs, symmetry and pop. for TD-DFT,
                                                   nearIR, NL-DFT gradient (VV10), updates on ESD,
                                                   ML-optimized integration grids, MBIS, APM,
                                                   GOAT, DOCKER, SOLVATOR, interface openCOSMO-RS
   S Lehtola, MJT Oliveira, MAL Marques          : LibXC Library
   Liviu Ungur et al                             : ANISO software


 Your calculation uses the libint2 library for the computation of 2-el integrals
 For citations please refer to: http://libint.valeyev.net

 Your ORCA version has been built with support for libXC version: 6.2.2
 For citations please refer to: https://libxc.gitlab.io

 This ORCA versions uses:
   CBLAS   interface :  Fast vector & matrix operations
   LAPACKE interface :  Fast linear algebra routines
   SCALAPACK package :  Parallel linear algebra routines
   Shared memory     :  Shared parallel matrices
   BLAS/LAPACK       :  OpenBLAS 0.3.27  USE64BITINT DYNAMIC_ARCH NO_AFFINITY SkylakeX SINGLE_THREADED
        Core in use  :  SkylakeX
   Copyright (c) 2011-2014, The OpenBLAS Project


Your calculation utilizes the geometrical counterpoise correction gCP
Please cite in your paper:
H.Kruse, S. Grimme J.Chem.Phys., 136, (2012), 154101 
   

Your calculation utilizes the atom-pairwise dispersion correction
based on EEQ partial charges (D4)


================================================================================

----- Orbital basis set information -----
Your calculation utilizes the basis: def2-mTZVPP
   Stefan Grimme, Andreas Hansen, Sebastian Ehlert, and Jan-Michael Mewes 
   J. Chem. Phys. 154, 064103 (2021). DOI: 10.1063/5.0040021

----- AuxJ basis set information -----
Your calculation utilizes the auxiliary basis: def2/J
   F. Weigend, Phys. Chem. Chem. Phys. 8, 1057 (2006).

================================================================================
                                        WARNINGS
                       Please study these warnings very carefully!
================================================================================

Using LibXC functional ID 497 : Re-regularized SCAN exchange by Furness et al
[ 1]  J. W. Furness, A. D. Kaplan, J. Ning, J. P. Perdew, and J. Sun.,  J. Phys. Chem. Lett. 11, 8208-8215 (2020)
[ 2]  J. W. Furness, A. D. Kaplan, J. Ning, J. P. Perdew, and J. Sun.,  J. Phys. Chem. Lett. 11, 9248-9248 (2020)
Using LibXC functional ID 498 : Re-regularized SCAN correlation by Furness et al
[ 1]  J. W. Furness, A. D. Kaplan, J. Ning, J. P. Perdew, and J. Sun.,  J. Phys. Chem. Lett. 11, 8208-8215 (2020)
[ 2]  J. W. Furness, A. D. Kaplan, J. Ning, J. P. Perdew, and J. Sun.,  J. Phys. Chem. Lett. 11, 9248-9248 (2020)
Using LibXC functional ID 497 : Re-regularized SCAN exchange by Furness et al
[ 1]  J. W. Furness, A. D. Kaplan, J. Ning, J. P. Perdew, and J. Sun.,  J. Phys. Chem. Lett. 11, 8208-8215 (2020)
[ 2]  J. W. Furness, A. D. Kaplan, J. Ning, J. P. Perdew, and J. Sun.,  J. Phys. Chem. Lett. 11, 9248-9248 (2020)
Using LibXC functional ID 498 : Re-regularized SCAN correlation by Furness et al
[ 1]  J. W. Furness, A. D. Kaplan, J. Ning, J. P. Perdew, and J. Sun.,  J. Phys. Chem. Lett. 11, 8208-8215 (2020)
[ 2]  J. W. Furness, A. D. Kaplan, J. Ning, J. P. Perdew, and J. Sun.,  J. Phys. Chem. Lett. 11, 9248-9248 (2020)

================================================================================
                                       INPUT FILE
================================================================================
NAME = sp_gas.inp
|  1> ! r2scan-3c def2/J RI DEFGRID2 scfconv6 printgap
|  2> %output
|  3>     printlevel normal
|  4> end
|  5> * xyz 0 1
|  6> C -3.542777184 1.6165704017 -0.9840804278
|  7> C -3.1238195382 0.1766758005 -0.7022925973
|  8> H -3.5010896961 -0.4845619199 -1.488146641
|  9> C -1.6252659844 -0.0342074889 -0.5848809494
| 10> C -1.1115188949 -1.316763184 -0.8614462436
| 11> C 0.2243382404 -1.5791824576 -0.7521353056
| 12> C 1.1289594214 -0.5707748018 -0.3592043611
| 13> C 2.5132813471 -0.8160400462 -0.2470153459
| 14> C 3.3658601579 0.1875124201 0.139950805
| 15> C 2.853478639 1.474365037 0.4289002626
| 16> C 1.5198052146 1.7295769321 0.3273389234
| 17> C 0.6161837652 0.7184977122 -0.0694130917
| 18> C -0.767510381 0.9562156791 -0.1815033526
| 19> O 4.716918226 0.0671545366 0.2811074694
| 20> C 5.3148223158 -1.185851786 0.0117878323
| 21> C -3.6733247273 -0.3394878655 0.6125670377
| 22> O -4.0744516275 -1.4737407377 0.7767681021
| 23> O -3.6231210121 0.5463770131 1.5895332129
| 24> H -4.6079991245 1.6524357635 -1.1984546369
| 25> H -3.3451283813 2.2539772401 -0.1279597361
| 26> H -2.9985749965 1.9925473485 -1.8458274825
| 27> H -1.797040959 -2.0986893045 -1.1553644181
| 28> H 0.6043039859 -2.567072015 -0.9675431665
| 29> H 2.8716545953 -1.8077140504 -0.4738820149
| 30> H 3.556701698 2.2350411403 0.7289889393
| 31> H 1.1360473896 2.7138073372 0.5490315177
| 32> H -1.132664609 1.9425805837 0.0556725824
| 33> H 4.9319203988 -1.9574756587 0.6848559239
| 34> H 6.3782455087 -1.0407480931 0.1873240375
| 35> H 5.1499862051 -1.4857147457 -1.0264122245
| 36> H -3.9346089755 0.1858323128 2.442044494
| 37> *
| 38> 
| 39>                          ****END OF INPUT****
================================================================================

                       ****************************
                       * Single Point Calculation *
                       ****************************

---------------------------------
CARTESIAN COORDINATES (ANGSTROEM)
---------------------------------
  C     -3.542777    1.616570   -0.984080
  C     -3.123820    0.176676   -0.702293
  H     -3.501090   -0.484562   -1.488147
  C     -1.625266   -0.034207   -0.584881
  C     -1.111519   -1.316763   -0.861446
  C      0.224338   -1.579182   -0.752135
  C      1.128959   -0.570775   -0.359204
  C      2.513281   -0.816040   -0.247015
  C      3.365860    0.187512    0.139951
  C      2.853479    1.474365    0.428900
  C      1.519805    1.729577    0.327339
  C      0.616184    0.718498   -0.069413
  C     -0.767510    0.956216   -0.181503
  O      4.716918    0.067155    0.281107
  C      5.314822   -1.185852    0.011788
  C     -3.673325   -0.339488    0.612567
  O     -4.074452   -1.473741    0.776768
  O     -3.623121    0.546377    1.589533
  H     -4.607999    1.652436   -1.198455
  H     -3.345128    2.253977   -0.127960
  H     -2.998575    1.992547   -1.845827
  H     -1.797041   -2.098689   -1.155364
  H      0.604304   -2.567072   -0.967543
  H      2.871655   -1.807714   -0.473882
  H      3.556702    2.235041    0.728989
  H      1.136047    2.713807    0.549032
  H     -1.132665    1.942581    0.055673
  H      4.931920   -1.957476    0.684856
  H      6.378246   -1.040748    0.187324
  H      5.149986   -1.485715   -1.026412
  H     -3.934609    0.185832    2.442044

----------------------------
CARTESIAN COORDINATES (A.U.)
----------------------------
  NO LB      ZA    FRAG     MASS         X           Y           Z
   0 C     6.0000    0    12.011   -6.694879    3.054875   -1.859643
   1 C     6.0000    0    12.011   -5.903163    0.333869   -1.327141
   2 H     1.0000    0     1.008   -6.616101   -0.915689   -2.812190
   3 C     6.0000    0    12.011   -3.071308   -0.064643   -1.105265
   4 C     6.0000    0    12.011   -2.100466   -2.488322   -1.627897
   5 C     6.0000    0    12.011    0.423938   -2.984222   -1.421330
   6 C     6.0000    0    12.011    2.133424   -1.078608   -0.678798
   7 C     6.0000    0    12.011    4.749413   -1.542092   -0.466791
   8 C     6.0000    0    12.011    6.360554    0.354347    0.264469
   9 C     6.0000    0    12.011    5.392293    2.786146    0.810504
  10 C     6.0000    0    12.011    2.872016    3.268427    0.618581
  11 C     6.0000    0    12.011    1.164419    1.357764   -0.131172
  12 C     6.0000    0    12.011   -1.450384    1.806986   -0.342992
  13 O     8.0000    0    15.999    8.913684    0.126904    0.531216
  14 C     6.0000    0    12.011   10.043559   -2.240935    0.022276
  15 C     6.0000    0    12.011   -6.941578   -0.641539    1.157584
  16 O     8.0000    0    15.999   -7.699598   -2.784966    1.467879
  17 O     8.0000    0    15.999   -6.846706    1.032503    3.003782
  18 H     1.0000    0     1.008   -8.707856    3.122651   -2.264751
  19 H     1.0000    0     1.008   -6.321377    4.259400   -0.241809
  20 H     1.0000    0     1.008   -5.666486    3.765369   -3.488108
  21 H     1.0000    0     1.008   -3.395915   -3.965948   -2.183322
  22 H     1.0000    0     1.008    1.141969   -4.851063   -1.828392
  23 H     1.0000    0     1.008    5.426641   -3.416084   -0.895507
  24 H     1.0000    0     1.008    6.721192    4.223616    1.377589
  25 H     1.0000    0     1.008    2.146818    5.128353    1.037519
  26 H     1.0000    0     1.008   -2.140426    3.670945    0.105206
  27 H     1.0000    0     1.008    9.319979   -3.699093    1.294190
  28 H     1.0000    0     1.008   12.053137   -1.966729    0.353991
  29 H     1.0000    0     1.008    9.732064   -2.807594   -1.939638
  30 H     1.0000    0     1.008   -7.435333    0.351172    4.614795

--------------------------------
INTERNAL COORDINATES (ANGSTROEM)
--------------------------------
 C      0   0   0     0.000000000000     0.00000000     0.00000000
 C      1   0   0     1.525852664236     0.00000000     0.00000000
 H      2   1   0     1.094136496476   110.05876437     0.00000000
 C      2   1   3     1.517866927770   114.61202243   122.18283429
 C      4   2   1     1.409032840270   118.11550547   205.03006880
 C      5   4   2     1.365769761803   121.05148059   181.13617270
 C      6   5   4     1.410538978028   120.81159056   359.95902105
 C      7   6   5     1.410350527073   121.82509056   180.37819604
 C      8   7   6     1.372498081304   120.33101418   180.09732449
 C      9   8   7     1.414926241039   119.84342338     0.05303772
 C     10   9   8     1.361665384730   120.65791846     0.00000000
 C     11  10   9     1.412878294198   120.87937979   359.94133706
 C      4   2   1     1.370910723744   122.69102656    27.19369834
 O      9   8   7     1.363733525071   125.45513949   180.05436985
 C     14   9   8     1.414230254238   118.51121830     0.03166359
 C      2   1   3     1.515663796064   112.45949082   240.81633432
 O     16   2   1     1.214246415563   123.72444005   141.75525955
 O     16   2   1     1.319749939815   113.56617927   318.97036686
 H      1   2   3     1.087170827528   109.66840055    49.45582035
 H      1   2   3     1.085493051845   111.00674680   169.13062475
 H      1   2   3     1.086334511874   109.60584799   290.02045021
 H      5   4   2     1.080618735535   118.73282361     0.59671972
 H      6   5   4     1.080139015086   120.25434886   180.01531132
 H      8   7   6     1.078571834017   117.98855761     0.11896913
 H     10   9   8     1.078519364093   117.52666617   180.03326841
 H     11  10   9     1.079410563659   120.25155897   180.02083566
 H     13   4   2     1.078195603495   120.91385206   358.99335989
 H     15  14   9     1.093177906332   111.10331908   298.63348179
 H     15  14   9     1.087537092805   105.33436765   179.90094883
 H     15  14   9     1.093136814827   111.10975769    61.16173435
 H     18  16   2     0.976623119049   112.72165174   183.13634123

---------------------------
INTERNAL COORDINATES (A.U.)
---------------------------
 C      0   0   0     0.000000000000     0.00000000     0.00000000
 C      1   0   0     2.883443656121     0.00000000     0.00000000
 H      2   1   0     2.067618331468   110.05876437     0.00000000
 C      2   1   3     2.868352801221   114.61202243   122.18283429
 C      4   2   1     2.662686181811   118.11550547   205.03006880
 C      5   4   2     2.580930811798   121.05148059   181.13617270
 C      6   5   4     2.665532369694   120.81159056   359.95902105
 C      7   6   5     2.665176249000   121.82509056   180.37819604
 C      8   7   6     2.593645492998   120.33101418   180.09732449
 C      9   8   7     2.673823095262   119.84342338     0.05303772
 C     10   9   8     2.573174663180   120.65791846     0.00000000
 C     11  10   9     2.669953036596   120.87937979   359.94133706
 C      4   2   1     2.590645821931   122.69102656    27.19369834
 O      9   8   7     2.577082882032   125.45513949   180.05436985
 C     14   9   8     2.672507870816   118.51121830     0.03166359
 C      2   1   3     2.864189485660   112.45949082   240.81633432
 O     16   2   1     2.294593184510   123.72444005   141.75525955
 O     16   2   1     2.493965951509   113.56617927   318.97036686
 H      1   2   3     2.054455124816   109.66840055    49.45582035
 H      1   2   3     2.051284588262   111.00674680   169.13062475
 H      1   2   3     2.052874717269   109.60584799   290.02045021
 H      5   4   2     2.042073465346   118.73282361     0.59671972
 H      6   5   4     2.041166925076   120.25434886   180.01531132
 H      8   7   6     2.038205382053   117.98855761     0.11896913
 H     10   9   8     2.038106228268   117.52666617   180.03326841
 H     11  10   9     2.039790351378   120.25155897   180.02083566
 H     13   4   2     2.037494409404   120.91385206   358.99335989
 H     15  14   9     2.065806858621   111.10331908   298.63348179
 H     15  14   9     2.055147265882   105.33436765   179.90094883
 H     15  14   9     2.065729206930   111.10975769    61.16173435
 H     18  16   2     1.845550231058   112.72165174   183.13634123

---------------------
BASIS SET INFORMATION
---------------------
There are 3 groups of distinct atoms

 Group   1 Type C   : 11s6p1d contracted to 5s3p1d pattern {62111/411/1}
 Group   2 Type H   : 4s1p contracted to 2s1p pattern {31/1}
 Group   3 Type O   : 11s6p2d contracted to 5s3p2d pattern {62111/411/11}

Atom   0C    basis set group =>   1
Atom   1C    basis set group =>   1
Atom   2H    basis set group =>   2
Atom   3C    basis set group =>   1
Atom   4C    basis set group =>   1
Atom   5C    basis set group =>   1
Atom   6C    basis set group =>   1
Atom   7C    basis set group =>   1
Atom   8C    basis set group =>   1
Atom   9C    basis set group =>   1
Atom  10C    basis set group =>   1
Atom  11C    basis set group =>   1
Atom  12C    basis set group =>   1
Atom  13O    basis set group =>   3
Atom  14C    basis set group =>   1
Atom  15C    basis set group =>   1
Atom  16O    basis set group =>   3
Atom  17O    basis set group =>   3
Atom  18H    basis set group =>   2
Atom  19H    basis set group =>   2
Atom  20H    basis set group =>   2
Atom  21H    basis set group =>   2
Atom  22H    basis set group =>   2
Atom  23H    basis set group =>   2
Atom  24H    basis set group =>   2
Atom  25H    basis set group =>   2
Atom  26H    basis set group =>   2
Atom  27H    basis set group =>   2
Atom  28H    basis set group =>   2
Atom  29H    basis set group =>   2
Atom  30H    basis set group =>   2
---------------------------------
AUXILIARY/J BASIS SET INFORMATION
---------------------------------
There are 3 groups of distinct atoms

 Group   1 Type C   : 12s5p4d2f1g contracted to 6s4p3d1f1g pattern {711111/2111/211/2/1}
 Group   2 Type H   : 5s2p1d contracted to 3s1p1d pattern {311/2/1}
 Group   3 Type O   : 12s5p4d2f1g contracted to 6s4p3d1f1g pattern {711111/2111/211/2/1}

Atom   0C    basis set group =>   1
Atom   1C    basis set group =>   1
Atom   2H    basis set group =>   2
Atom   3C    basis set group =>   1
Atom   4C    basis set group =>   1
Atom   5C    basis set group =>   1
Atom   6C    basis set group =>   1
Atom   7C    basis set group =>   1
Atom   8C    basis set group =>   1
Atom   9C    basis set group =>   1
Atom  10C    basis set group =>   1
Atom  11C    basis set group =>   1
Atom  12C    basis set group =>   1
Atom  13O    basis set group =>   3
Atom  14C    basis set group =>   1
Atom  15C    basis set group =>   1
Atom  16O    basis set group =>   3
Atom  17O    basis set group =>   3
Atom  18H    basis set group =>   2
Atom  19H    basis set group =>   2
Atom  20H    basis set group =>   2
Atom  21H    basis set group =>   2
Atom  22H    basis set group =>   2
Atom  23H    basis set group =>   2
Atom  24H    basis set group =>   2
Atom  25H    basis set group =>   2
Atom  26H    basis set group =>   2
Atom  27H    basis set group =>   2
Atom  28H    basis set group =>   2
Atom  29H    basis set group =>   2
Atom  30H    basis set group =>   2

Checking for AutoStart:
The File: sp_gas.gbw exists
Trying to determine its content:
     ... Fine, the file contains calculation information
     ... Fine, the calculation information was read
     ... Fine, the file contains a basis set
     ... Fine, the basis set was read
     ... Fine, the file contains a geometry
     ... Fine, the geometry was read
     ... Fine, the file contains a set of orbitals
     ... Fine, the orbitals can be read
     => possible old guess file was deleted
     => GBW file was renamed to GES file
     => GES file is set as startup file
     => Guess is set to MORead
     ... now leaving AutoStart

------------------------------------------------------------------------------
                             ORCA STARTUP CALCULATIONS
                           -- RI-GTO INTEGRALS CHOSEN --
------------------------------------------------------------------------------
------------------------------------------------------------------------------
                   ___                                                        
                  /   \      - P O W E R E D   B Y -                         
                 /     \                                                     
                 |  |  |   _    _      __       _____    __    __             
                 |  |  |  | |  | |    /  \     |  _  \  |  |  /  |          
                  \  \/   | |  | |   /    \    | | | |  |  | /  /          
                 / \  \   | |__| |  /  /\  \   | |_| |  |  |/  /          
                |  |  |   |  __  | /  /__\  \  |    /   |      \           
                |  |  |   | |  | | |   __   |  |    \   |  |\   \          
                \     /   | |  | | |  |  |  |  | |\  \  |  | \   \       
                 \___/    |_|  |_| |__|  |__|  |_| \__\ |__|  \__/        
                                                                              
                      - O R C A' S   B I G   F R I E N D -                    
                                      &                                       
                       - I N T E G R A L  F E E D E R -                       
                                                                              
 v1 FN, 2020, v2 2021, v3 2022-2024                                           
------------------------------------------------------------------------------


----------------------
SHARK INTEGRAL PACKAGE
----------------------

Number of atoms                             ...     31
Number of basis functions                   ...    408
Number of shells                            ...    198
Maximum angular momentum                    ...      2
Integral batch strategy                     ... SHARK/LIBINT Hybrid
RI-J (if used) integral strategy            ... SPLIT-RIJ (Revised 2003 algorithm where possible)
Printlevel                                  ...      1
Contraction scheme used                     ... SEGMENTED contraction
Prescreening option                         ... SCHWARTZ
   Thresh                                   ... 1.000e-10
   Tcut                                     ... 1.000e-11
   Tpresel                                  ... 1.000e-11 
Coulomb Range Separation                    ... NOT USED
Exchange Range Separation                   ... NOT USED
Multipole approximations                    ... NOT USED
Finite Nucleus Model                        ... NOT USED
CABS basis                                  ... NOT available
Auxiliary Coulomb fitting basis             ... AVAILABLE
   # of basis functions in Aux-J            ...    987
   # of shells in Aux-J                     ...    325
   Maximum angular momentum in Aux-J        ...      4
Auxiliary J/K fitting basis                 ... NOT available
Auxiliary Correlation fitting basis         ... NOT available
Auxiliary 'external' fitting basis          ... NOT available

Checking pre-screening integrals            ... done (  0.0 sec) Dimension = 198
Check shell pair data                       ... done (  0.0 sec)
Shell pair information
Shell pair cut-off parameter TPreSel        ...   1.0e-11
Total number of shell pairs                 ...     19701
Shell pairs after pre-screening             ...     14230
Total number of primitive shell pairs       ...     72426
Primitive shell pairs kept                  ...     34032
          la=0 lb=0:   4444 shell pairs
          la=1 lb=0:   5448 shell pairs
          la=1 lb=1:   1692 shell pairs
          la=2 lb=0:   1540 shell pairs
          la=2 lb=1:    960 shell pairs
          la=2 lb=2:    146 shell pairs

Calculating one electron integrals          ... done (  0.1 sec)
Calculating RI/J V-Matrix + Cholesky decomp.... done (  0.2 sec)
Calculating Nuclear repulsion               ... done (  0.0 sec) ENN=   1141.221247115762 Eh

Diagonalization of the overlap matrix:
Smallest eigenvalue                        ... 1.254e-05
Time for diagonalization                   ...    0.025 sec
Threshold for overlap eigenvalues          ... 1.000e-07
Number of eigenvalues below threshold      ... 0
Time for construction of square roots      ...    0.031 sec
Total time needed                          ...    0.068 sec

-------------------
DFT GRID GENERATION
-------------------

General Integration Accuracy     IntAcc      ... 4.388
Radial Grid Type                 RadialGrid  ... OptM3 with GC (2021)
Angular Grid (max. ang.)         AngularGrid ... 4 (Lebedev-302)
Angular grid pruning method      GridPruning ... 4 (adaptive)
Weight generation scheme         WeightScheme... mBecke (2022)
Basis function cutoff            BFCut       ... 1.0000e-10
Integration weight cutoff        WCut        ... 1.0000e-14
Partially contracted basis set               ... off
Rotationally invariant grid construction     ... off
Angular grids for H and He will be reduced by one unit
Diffuse basis detected: some atoms will have their outermost
                        angular grid increased by 1.

Total number of grid points                  ...   147343
Total number of batches                      ...     2319
Average number of points per batch           ...       63
Average number of grid points per atom       ...     4753
Initializing property integral containers    ... done (  0.0 sec)

SHARK setup successfully completed in   3.0 seconds

Maximum memory used throughout the entire STARTUP-calculation: 72.6 MB
-------------------------------------------------------------------------------
                                 ORCA GUESS
                   Start orbitals & Density for SCF / CASSCF
-------------------------------------------------------------------------------

------------
SCF SETTINGS
------------
Hamiltonian:
 Density Functional     Method          .... DFT(GTOs)
  Functional kind                       .... Exchange
  Functional name                       .... Re-regularized SCAN exchange by Furness et al
  Functional family                     .... MGGA
  Functional refs                              
    [ 0] J. W. Furness, A. D. Kaplan, J. Ning, J. P. Perdew, and J. Sun.,  J. Phys. Chem. Lett. 11, 8208-8215 (2020), doi: 10.1021/acs.jpclett.0c02405
    [ 1] J. W. Furness, A. D. Kaplan, J. Ning, J. P. Perdew, and J. Sun.,  J. Phys. Chem. Lett. 11, 9248-9248 (2020), doi: 10.1021/acs.jpclett.0c03077
  Functional external parameters        .... 6
    Parameter  0 _c1        =  6.670000e-01 : c1 parameter        
    Parameter  1 _c2        =  8.000000e-01 : c2 parameter        
    Parameter  2 _d         =  1.240000e+00 : d parameter         
    Parameter  3 _k1        =  6.500000e-02 : k1 parameter        
    Parameter  4 _eta       =  1.000000e-03 : eta parameter       
    Parameter  5 _dp2       =  3.610000e-01 : dp2 parameter       
  Functional kind                       .... Correlation
  Functional name                       .... Re-regularized SCAN correlation by Furness et al
  Functional family                     .... MGGA
  Functional refs                              
    [ 0] J. W. Furness, A. D. Kaplan, J. Ning, J. P. Perdew, and J. Sun.,  J. Phys. Chem. Lett. 11, 8208-8215 (2020), doi: 10.1021/acs.jpclett.0c02405
    [ 1] J. W. Furness, A. D. Kaplan, J. Ning, J. P. Perdew, and J. Sun.,  J. Phys. Chem. Lett. 11, 9248-9248 (2020), doi: 10.1021/acs.jpclett.0c03077
  Functional external parameters        .... 1
    Parameter  0 _eta       =  1.000000e-03 : Regularization parameter
 Gradients option       PostSCFGGA      .... off
 RI-approximation to the Coulomb term is turned on
   Number of AuxJ basis functions       .... 987


General Settings:
 Integral files         IntName         .... sp_gas
 Hartree-Fock type      HFTyp           .... RHF
 Total Charge           Charge          ....    0
 Multiplicity           Mult            ....    1
 Number of Electrons    NEL             ....  122
 Basis Dimension        Dim             ....  408
 Nuclear Repulsion      ENuc            ....   1141.2212471158 Eh

Convergence Acceleration:
 AO-DIIS                CNVDIIS         .... on
   Start iteration      DIISMaxIt       ....    12
   Startup error        DIISStart       ....  0.200000
   # of expansion vecs  DIISMaxEq       ....     5
   Bias factor          DIISBfac        ....   1.050
   Max. coefficient     DIISMaxC        ....  10.000
 MO-DIIS                CNVKDIIS        .... off
 Trust-Rad. Augm. Hess. CNVTRAH         .... auto
   Auto Start mean grad. ratio tolernc. ....  1.125000
   Auto Start start iteration           ....     1
   Auto Start num. interpolation iter.  ....    10
   Max. Number of Micro iterations      ....    24
   Max. Number of Macro iterations      .... Maxiter - #DIIS iter
   Number of Davidson start vectors     ....     2
   Converg. threshold    (grad. norm)   ....   3.330e-04
   Grad. Scal. Fac. for Micro threshold ....   0.100
   Minimum threshold for Micro iter.    ....   1.000e-02
   NR start threshold (gradient norm)   ....   1.000e-04
   Initial trust radius                 ....   0.400
   Minimum AH scaling param. (alpha)    ....   1.000
   Maximum AH scaling param. (alpha)    .... 1000.000
   Quad. conv. algorithm                .... NR
   White noise on init. David. guess    .... on
   Maximum white noise                  ....   0.010
   Pseudo random numbers                .... off
   Inactive MOs                         .... canonical
   Orbital update algorithm             .... Taylor
   Preconditioner                       .... Diag
   Full preconditioner red. dimension   ....   250
   COSX micro iterations for RIJONX calc.... off
 SOSCF                  CNVSOSCF        .... on
   Start iteration      SOSCFMaxIt      ....   150
   Startup grad/error   SOSCFStart      ....  0.003300
   Hessian update       SOSCFHessUp     .... L-BFGS
 Level Shifting         CNVShift        .... on
   Level shift para.    LevelShift      ....    0.2500
   Turn off err/grad.   ShiftErr        ....    0.0010
 Zerner damping         CNVZerner       .... off
 Static damping         CNVDamp         .... on
   Fraction old density DampFac         ....    0.7000
   Max. Damping (<1)    DampMax         ....    0.9800
   Min. Damping (>=0)   DampMin         ....    0.0000
   Turn off err/grad.   DampErr         ....    0.1000

SCF Procedure:
 Maximum # iterations   MaxIter         ....   125
 SCF integral mode      SCFMode         .... Direct
   Integral package                     .... SHARK and LIBINT hybrid scheme
 Reset frequency        DirectResetFreq ....    20
 Integral Threshold     Thresh          ....  1.000e-10 Eh
 Primitive CutOff       TCut            ....  1.000e-11 Eh

Convergence Tolerance:
 Convergence Check Mode ConvCheckMode   .... Total+1el-Energy
 Convergence forced     ConvForced      .... 0
 Energy Change          TolE            ....  1.000e-06 Eh
 1-El. energy change                    ....  1.000e-03 Eh
 Orbital Gradient       TolG            ....  3.330e-04
 Orbital Rotation angle TolX            ....  3.330e-04
 DIIS Error             TolErr          ....  1.000e-06

---------------------
INITIAL GUESS: MOREAD
---------------------
Guess MOs are being read from file: sp_gas.ges
Input Geometry matches current geometry (good)
Atom 0: N(Shells)= 9 and 6 - projection required
Input basis set needs projection
NBasis(read)= 266
NBasis(calc)= 408
Basis set overlap was calculated
Using GuessMode=FMatrix for the initial guess
C*T matrix was formed
Effective Fockian was calculated
Effective Fockian was diagonalized
Initial density was built
                      ------------------
                      INITIAL GUESS DONE (   0.3 sec)
                      ------------------
             **** ENERGY FILE WAS UPDATED (sp_gas.en.tmp) ****
Finished Guess after   0.7 sec
Maximum memory used throughout the entire GUESS-calculation: 37.4 MB

-------------------------------------------------------------------------------------------
                                      ORCA LEAN-SCF
                              memory conserving SCF solver
-------------------------------------------------------------------------------------------

----------------------------------------D-I-I-S--------------------------------------------
Iteration    Energy (Eh)           Delta-E    RMSDP     MaxDP     DIISErr   Damp  Time(sec)
-------------------------------------------------------------------------------------------
               ***  Starting incremental Fock matrix formation  ***
    1    -767.0843668645163689     0.00e+00  1.68e-02  1.33e+00  6.24e-01  0.700   9.4
    2    -767.1922491225402609    -1.08e-01  1.28e-02  9.84e-01  4.38e-01  0.700   8.3
    3    -767.2683661213004598    -7.61e-02  9.16e-03  6.89e-01  3.07e-01  0.700   8.2
    4    -767.3217774308227490    -5.34e-02  6.44e-03  4.81e-01  2.15e-01  0.700   7.9
                               ***Turning on AO-DIIS***
    5    -767.3592299648521475    -3.75e-02  4.52e-03  3.36e-01  1.51e-01  0.700   7.7
    6    -767.3854763829349395    -2.62e-02  3.17e-03  2.35e-01  1.05e-01  0.700   7.9
    7    -767.4038725613659153    -1.84e-02  2.22e-03  1.64e-01  7.38e-02  0.700   7.7
    8    -767.4167598455019288    -1.29e-02  5.16e-03  3.82e-01  5.17e-02  0.000   7.6
                              *** Initializing SOSCF ***
---------------------------------------S-O-S-C-F--------------------------------------
Iteration    Energy (Eh)           Delta-E    RMSDP     MaxDP     MaxGrad    Time(sec)
--------------------------------------------------------------------------------------
    9    -767.4468637160352955    -3.01e-02  9.69e-06  5.10e-04  1.92e-04     7.9
               *** Restarting incremental Fock matrix formation ***
   10    -767.4468636317678829     8.43e-08  2.68e-05  1.75e-03  7.38e-05     9.3
                  *** Gradient check signals convergence ***

               *****************************************************
               *                     SUCCESS                       *
               *           SCF CONVERGED AFTER  10 CYCLES          *
               *****************************************************

             **** ENERGY FILE WAS UPDATED (sp_gas.en.tmp) ****

----------------
TOTAL SCF ENERGY
----------------

Total Energy       :       -767.44686363176788 Eh          -20883.29085 eV

Components:
Nuclear Repulsion  :       1141.22124711576157 Eh           31054.20890 eV
Electronic Energy  :      -1908.66811074752945 Eh          -51937.49974 eV
One Electron Energy:      -3308.46316270455191 Eh          -90027.85959 eV
Two Electron Energy:       1399.79505195702245 Eh           38090.35984 eV

Virial components:
Potential Energy   :      -1531.89984568951922 Eh          -41685.11403 eV
Kinetic Energy     :        764.45298205775146 Eh           20801.82319 eV
Virial Ratio       :          2.00391637111017

DFT components:
N(Alpha)           :       60.999978929276 electrons
N(Beta)            :       60.999978929276 electrons
N(Total)           :      121.999957858553 electrons
E(X)               :     -102.821258168826 Eh       
E(C)               :       -3.990171618977 Eh       
E(XC)              :     -106.811429787803 Eh       

---------------
SCF CONVERGENCE
---------------

  Last Energy change         ...   -8.4267e-08  Tolerance :   1.0000e-06
  Last MAX-Density change    ...    1.7548e-03  Tolerance :   1.0000e-05
  Last RMS-Density change    ...    2.6847e-05  Tolerance :   1.0000e-06
  Last DIIS Error            ...    1.9175e-04  Tolerance :   1.0000e-06
  Last Orbital Gradient      ...    7.3799e-05  Tolerance :   3.3300e-04
  Last Orbital Rotation      ...    2.6103e-04  Tolerance :   3.3300e-04


----------------
ORBITAL ENERGIES
----------------

  NO   OCC          E(Eh)            E(eV) 
   0   2.0000     -19.005556      -517.1675 
   1   2.0000     -18.990507      -516.7580 
   2   2.0000     -18.930894      -515.1358 
   3   2.0000     -10.160876      -276.4915 
   4   2.0000     -10.098952      -274.8064 
   5   2.0000     -10.089976      -274.5622 
   6   2.0000     -10.059863      -273.7428 
   7   2.0000     -10.047802      -273.4146 
   8   2.0000     -10.047502      -273.4064 
   9   2.0000     -10.043242      -273.2905 
  10   2.0000     -10.040962      -273.2285 
  11   2.0000     -10.037121      -273.1240 
  12   2.0000     -10.035944      -273.0919 
  13   2.0000     -10.035175      -273.0710 
  14   2.0000     -10.034381      -273.0494 
  15   2.0000     -10.034040      -273.0401 
  16   2.0000     -10.030520      -272.9443 
  17   2.0000      -1.079767       -29.3819 
  18   2.0000      -1.037838       -28.2410 
  19   2.0000      -0.977179       -26.5904 
  20   2.0000      -0.849702       -23.1216 
  21   2.0000      -0.808577       -22.0025 
  22   2.0000      -0.768563       -20.9137 
  23   2.0000      -0.743676       -20.2365 
  24   2.0000      -0.717703       -19.5297 
  25   2.0000      -0.692317       -18.8389 
  26   2.0000      -0.670447       -18.2438 
  27   2.0000      -0.641943       -17.4682 
  28   2.0000      -0.603785       -16.4298 
  29   2.0000      -0.590799       -16.0764 
  30   2.0000      -0.571096       -15.5403 
  31   2.0000      -0.555355       -15.1120 
  32   2.0000      -0.504157       -13.7188 
  33   2.0000      -0.488012       -13.2795 
  34   2.0000      -0.484604       -13.1868 
  35   2.0000      -0.457327       -12.4445 
  36   2.0000      -0.444316       -12.0904 
  37   2.0000      -0.442010       -12.0277 
  38   2.0000      -0.438975       -11.9451 
  39   2.0000      -0.432284       -11.7630 
  40   2.0000      -0.420699       -11.4478 
  41   2.0000      -0.412704       -11.2302 
  42   2.0000      -0.398985       -10.8569 
  43   2.0000      -0.393839       -10.7169 
  44   2.0000      -0.383121       -10.4253 
  45   2.0000      -0.378145       -10.2898 
  46   2.0000      -0.371377       -10.1057 
  47   2.0000      -0.359801        -9.7907 
  48   2.0000      -0.348552        -9.4846 
  49   2.0000      -0.344383        -9.3711 
  50   2.0000      -0.335833        -9.1385 
  51   2.0000      -0.328274        -8.9328 
  52   2.0000      -0.319629        -8.6975 
  53   2.0000      -0.307986        -8.3807 
  54   2.0000      -0.296552        -8.0696 
  55   2.0000      -0.290558        -7.9065 
  56   2.0000      -0.280943        -7.6448 
  57   2.0000      -0.265131        -7.2146 
  58   2.0000      -0.235614        -6.4114 
  59   2.0000      -0.218012        -5.9324 
  60   2.0000      -0.194041        -5.2801 
  61   0.0000      -0.064604        -1.7580 
  62   0.0000      -0.040764        -1.1092 
  63   0.0000      -0.007807        -0.2124 
  64   0.0000      -0.002055        -0.0559 
  65   0.0000       0.050972         1.3870 
  66   0.0000       0.061628         1.6770 
  67   0.0000       0.070673         1.9231 
  68   0.0000       0.076282         2.0757 
  69   0.0000       0.086229         2.3464 
  70   0.0000       0.095035         2.5860 
  71   0.0000       0.101991         2.7753 
*Only the first 10 virtual orbitals were printed.

                    ********************************
                    * MULLIKEN POPULATION ANALYSIS *
                    ********************************

-----------------------
MULLIKEN ATOMIC CHARGES
-----------------------
   0 C :   -0.528116
   1 C :   -0.089832
   2 H :    0.183198
   3 C :    0.172722
   4 C :   -0.237896
   5 C :   -0.300324
   6 C :    0.225401
   7 C :   -0.364408
   8 C :    0.366025
   9 C :   -0.319534
  10 C :   -0.264243
  11 C :    0.156198
  12 C :   -0.243814
  13 O :   -0.180112
  14 C :   -0.331563
  15 C :    0.300159
  16 O :   -0.385829
  17 O :   -0.333814
  18 H :    0.159150
  19 H :    0.167187
  20 H :    0.170815
  21 H :    0.157120
  22 H :    0.139448
  23 H :    0.144083
  24 H :    0.158182
  25 H :    0.144112
  26 H :    0.140885
  27 H :    0.154071
  28 H :    0.155965
  29 H :    0.153799
  30 H :    0.330964
Sum of atomic charges:    0.0000000

--------------------------------
MULLIKEN REDUCED ORBITAL CHARGES
--------------------------------
  0 C s       :     3.374743  s :     3.374743
      pz      :     1.087905  p :     3.126872
      px      :     1.108348
      py      :     0.930619
      dz2     :     0.004326  d :     0.026501
      dxz     :     0.003239
      dyz     :     0.007166
      dx2y2   :     0.007991
      dxy     :     0.003779

  1 C s       :     3.052495  s :     3.052495
      pz      :     1.002117  p :     2.991795
      px      :     0.978564
      py      :     1.011115
      dz2     :     0.008135  d :     0.045542
      dxz     :     0.008803
      dyz     :     0.010017
      dx2y2   :     0.010489
      dxy     :     0.008097

  2 H s       :     0.799432  s :     0.799432
      pz      :     0.007176  p :     0.017370
      px      :     0.004089
      py      :     0.006105

  3 C s       :     3.092931  s :     3.092931
      pz      :     1.007650  p :     2.687121
      px      :     0.793514
      py      :     0.885957
      dz2     :     0.004416  d :     0.047226
      dxz     :     0.006830
      dyz     :     0.007018
      dx2y2   :     0.014923
      dxy     :     0.014037

  4 C s       :     3.222144  s :     3.222144
      pz      :     0.983868  p :     2.978248
      px      :     0.995107
      py      :     0.999272
      dz2     :     0.003272  d :     0.037504
      dxz     :     0.006006
      dyz     :     0.004565
      dx2y2   :     0.010772
      dxy     :     0.012888

  5 C s       :     3.268387  s :     3.268387
      pz      :     1.002498  p :     2.994572
      px      :     0.975294
      py      :     1.016780
      dz2     :     0.003530  d :     0.037365
      dxz     :     0.007234
      dyz     :     0.003022
      dx2y2   :     0.011162
      dxy     :     0.012417

  6 C s       :     3.170529  s :     3.170529
      pz      :     0.933891  p :     2.555267
      px      :     0.776042
      py      :     0.845335
      dz2     :     0.004481  d :     0.048803
      dxz     :     0.008595
      dyz     :     0.006223
      dx2y2   :     0.014835
      dxy     :     0.014669

  7 C s       :     3.198803  s :     3.198803
      pz      :     1.094762  p :     3.130325
      px      :     0.997172
      py      :     1.038391
      dz2     :     0.003809  d :     0.035280
      dxz     :     0.006316
      dyz     :     0.003454
      dx2y2   :     0.010077
      dxy     :     0.011625

  8 C s       :     3.122156  s :     3.122156
      pz      :     0.935363  p :     2.439045
      px      :     0.711504
      py      :     0.792178
      dz2     :     0.006272  d :     0.072775
      dxz     :     0.016491
      dyz     :     0.007323
      dx2y2   :     0.022646
      dxy     :     0.020042

  9 C s       :     3.254719  s :     3.254719
      pz      :     1.016614  p :     3.028993
      px      :     1.005584
      py      :     1.006794
      dz2     :     0.003365  d :     0.035822
      dxz     :     0.005930
      dyz     :     0.004160
      dx2y2   :     0.010177
      dxy     :     0.012190

 10 C s       :     3.252659  s :     3.252659
      pz      :     0.996555  p :     2.973621
      px      :     0.950925
      py      :     1.026142
      dz2     :     0.003581  d :     0.037963
      dxz     :     0.007801
      dyz     :     0.003032
      dx2y2   :     0.011256
      dxy     :     0.012292

 11 C s       :     3.187713  s :     3.187713
      pz      :     0.955216  p :     2.608312
      px      :     0.796634
      py      :     0.856462
      dz2     :     0.004418  d :     0.047778
      dxz     :     0.007702
      dyz     :     0.006111
      dx2y2   :     0.014624
      dxy     :     0.014922

 12 C s       :     3.172836  s :     3.172836
      pz      :     1.013170  p :     3.033622
      px      :     0.999013
      py      :     1.021439
      dz2     :     0.003834  d :     0.037356
      dxz     :     0.006838
      dyz     :     0.003524
      dx2y2   :     0.012116
      dxy     :     0.011045

 13 O s       :     3.714142  s :     3.714142
      pz      :     1.785968  p :     4.435220
      px      :     1.213750
      py      :     1.435501
      dz2     :     0.003822  d :     0.030750
      dxz     :     0.003577
      dyz     :     0.003903
      dx2y2   :     0.009648
      dxy     :     0.009801

 14 C s       :     3.342387  s :     3.342387
      pz      :     1.078320  p :     2.942587
      px      :     1.064105
      py      :     0.800162
      dz2     :     0.008780  d :     0.046588
      dxz     :     0.002680
      dyz     :     0.012899
      dx2y2   :     0.012951
      dxy     :     0.009278

 15 C s       :     3.133457  s :     3.133457
      pz      :     0.887878  p :     2.440261
      px      :     0.791089
      py      :     0.761294
      dz2     :     0.020525  d :     0.126123
      dxz     :     0.014039
      dyz     :     0.047572
      dx2y2   :     0.020881
      dxy     :     0.023106

 16 O s       :     3.833109  s :     3.833109
      pz      :     1.775774  p :     4.528573
      px      :     1.432619
      py      :     1.320180
      dz2     :     0.004275  d :     0.024148
      dxz     :     0.000969
      dyz     :     0.001983
      dx2y2   :     0.009012
      dxy     :     0.007909

 17 O s       :     3.722338  s :     3.722338
      pz      :     1.232580  p :     4.587581
      px      :     1.745766
      py      :     1.609235
      dz2     :     0.002829  d :     0.023895
      dxz     :     0.002158
      dyz     :     0.006834
      dx2y2   :     0.007398
      dxy     :     0.004676

 18 H s       :     0.822609  s :     0.822609
      pz      :     0.004023  p :     0.018241
      px      :     0.010648
      py      :     0.003570

 19 H s       :     0.814269  s :     0.814269
      pz      :     0.008534  p :     0.018544
      px      :     0.003927
      py      :     0.006083

 20 H s       :     0.810930  s :     0.810930
      pz      :     0.008189  p :     0.018255
      px      :     0.005508
      py      :     0.004557

 21 H s       :     0.823222  s :     0.823222
      pz      :     0.004660  p :     0.019659
      px      :     0.006929
      py      :     0.008069

 22 H s       :     0.840939  s :     0.840939
      pz      :     0.004532  p :     0.019614
      px      :     0.004179
      py      :     0.010903

 23 H s       :     0.835504  s :     0.835504
      pz      :     0.005123  p :     0.020413
      px      :     0.004300
      py      :     0.010990

 24 H s       :     0.822108  s :     0.822108
      pz      :     0.004880  p :     0.019710
      px      :     0.007052
      py      :     0.007778

 25 H s       :     0.836264  s :     0.836264
      pz      :     0.004478  p :     0.019624
      px      :     0.004244
      py      :     0.010902

 26 H s       :     0.839000  s :     0.839000
      pz      :     0.004641  p :     0.020116
      px      :     0.004522
      py      :     0.010953

 27 H s       :     0.828433  s :     0.828433
      pz      :     0.006402  p :     0.017496
      px      :     0.004122
      py      :     0.006972

 28 H s       :     0.826489  s :     0.826489
      pz      :     0.003823  p :     0.017546
      px      :     0.011206
      py      :     0.002517

 29 H s       :     0.828701  s :     0.828701
      pz      :     0.010839  p :     0.017500
      px      :     0.003403
      py      :     0.003259

 30 H s       :     0.628202  s :     0.628202
      pz      :     0.019065  p :     0.040834
      px      :     0.011668
      py      :     0.010101


------------------------
MULLIKEN OVERLAP CHARGES
------------------------
B(  0-C ,  2-H ) :  -0.0726 B(  0-C , 18-H ) :   0.8090 B(  0-C , 19-H ) :   0.8017 
B(  0-C , 20-H ) :   0.8648 B(  1-C ,  2-H ) :   0.9887 B(  1-C ,  3-C ) :  -0.1433 
B(  1-C ,  4-C ) :  -0.2689 B(  1-C ,  5-C ) :   0.0701 B(  1-C , 11-C ) :   0.1427 
B(  1-C , 12-C ) :  -0.0630 B(  1-C , 15-C ) :   0.3172 B(  1-C , 16-O ) :  -0.1180 
B(  1-C , 17-O ) :  -0.1269 B(  1-C , 18-H ) :  -0.0923 B(  1-C , 20-H ) :  -0.1411 
B(  2-H ,  3-C ) :  -0.1081 B(  2-H , 15-C ) :  -0.1266 B(  3-C ,  4-C ) :   0.6508 
B(  3-C ,  5-C ) :   0.1566 B(  3-C ,  6-C ) :  -0.1309 B(  3-C ,  7-C ) :  -0.0500 
B(  3-C , 10-C ) :   0.0829 B(  3-C , 11-C ) :   0.2770 B(  3-C , 12-C ) :   0.0523 
B(  3-C , 16-O ) :  -0.0961 B(  3-C , 19-H ) :  -0.0506 B(  3-C , 21-H ) :  -0.0769 
B(  3-C , 26-H ) :  -0.0941 B(  4-C ,  5-C ) :   0.3216 B(  4-C ,  7-C ) :   0.0574 
B(  4-C , 11-C ) :  -0.2586 B(  4-C , 12-C ) :   0.3077 B(  4-C , 21-H ) :   0.8000 
B(  5-C ,  6-C ) :   0.5332 B(  5-C ,  7-C ) :  -0.5016 B(  5-C ,  8-C ) :   0.0675 
B(  5-C , 10-C ) :   0.1432 B(  5-C , 11-C ) :   0.1454 B(  5-C , 12-C ) :  -0.8101 
B(  5-C , 21-H ) :  -0.0605 B(  5-C , 22-H ) :   0.7928 B(  6-C ,  7-C ) :   0.0526 
B(  6-C ,  9-C ) :  -0.1162 B(  6-C , 10-C ) :  -0.0697 B(  6-C , 11-C ) :   1.1631 
B(  6-C , 12-C ) :   0.0804 B(  6-C , 22-H ) :  -0.0967 B(  7-C ,  8-C ) :   0.6163 
B(  7-C ,  9-C ) :  -0.3150 B(  7-C , 10-C ) :  -0.3254 B(  7-C , 11-C ) :  -0.2400 
B(  7-C , 12-C ) :   0.3145 B(  7-C , 13-O ) :  -0.1544 B(  7-C , 23-H ) :   0.7110 
B(  8-C ,  9-C ) :   0.7036 B(  8-C , 10-C ) :   0.0952 B(  8-C , 11-C ) :  -0.0574 
B(  8-C , 13-O ) :   0.5655 B(  8-C , 14-C ) :  -0.3222 B(  9-C , 10-C ) :  -0.0767 
B(  9-C , 11-C ) :   0.0811 B(  9-C , 13-O ) :  -0.0970 B(  9-C , 24-H ) :   0.7724 
B( 10-C , 11-C ) :   0.3910 B( 10-C , 12-C ) :  -0.4790 B( 10-C , 25-H ) :   0.7918 
B( 11-C , 12-C ) :  -0.6805 B( 11-C , 25-H ) :  -0.0574 B( 11-C , 26-H ) :  -0.1043 
B( 12-C , 26-H ) :   0.8576 B( 13-O , 14-C ) :   0.3893 B( 13-O , 27-H ) :  -0.0824 
B( 13-O , 28-H ) :  -0.0805 B( 13-O , 29-H ) :  -0.0822 B( 14-C , 27-H ) :   0.8257 
B( 14-C , 28-H ) :   0.7758 B( 14-C , 29-H ) :   0.8255 B( 15-C , 16-O ) :   1.1260 
B( 15-C , 17-O ) :   0.3357 B( 16-O , 17-O ) :  -0.2244 B( 17-O , 30-H ) :   0.5768 
B( 27-H , 29-H ) :  -0.0799 


                     *******************************
                     * LOEWDIN POPULATION ANALYSIS *
                     *******************************

----------------------
LOEWDIN ATOMIC CHARGES
----------------------
   0 C :   -0.382761
   1 C :   -0.143350
   2 H :    0.188828
   3 C :   -0.078987
   4 C :   -0.139166
   5 C :   -0.145040
   6 C :   -0.045561
   7 C :   -0.162294
   8 C :    0.191028
   9 C :   -0.121160
  10 C :   -0.133515
  11 C :   -0.064152
  12 C :   -0.125720
  13 O :   -0.681749
  14 C :   -0.054437
  15 C :    0.352792
  16 O :   -0.417782
  17 O :   -0.401911
  18 H :    0.160924
  19 H :    0.169529
  20 H :    0.162402
  21 H :    0.178026
  22 H :    0.170396
  23 H :    0.178268
  24 H :    0.182371
  25 H :    0.172078
  26 H :    0.176584
  27 H :    0.165972
  28 H :    0.180575
  29 H :    0.165887
  30 H :    0.301923

-------------------------------
LOEWDIN REDUCED ORBITAL CHARGES
-------------------------------
  0 C s       :     2.960670  s :     2.960670
      pz      :     1.146758  p :     3.359407
      px      :     1.150367
      py      :     1.062281
      dz2     :     0.010392  d :     0.062684
      dxz     :     0.008135
      dyz     :     0.016860
      dx2y2   :     0.019207
      dxy     :     0.008091

  1 C s       :     2.881750  s :     2.881750
      pz      :     1.037075  p :     3.170173
      px      :     1.048701
      py      :     1.084397
      dz2     :     0.016772  d :     0.091428
      dxz     :     0.016531
      dyz     :     0.020901
      dx2y2   :     0.022017
      dxy     :     0.015207

  2 H s       :     0.768272  s :     0.768272
      pz      :     0.017393  p :     0.042900
      px      :     0.009990
      py      :     0.015517

  3 C s       :     2.857354  s :     2.857354
      pz      :     0.991802  p :     3.123099
      px      :     1.029428
      py      :     1.101868
      dz2     :     0.008114  d :     0.098534
      dxz     :     0.012273
      dyz     :     0.013375
      dx2y2   :     0.033815
      dxy     :     0.030958

  4 C s       :     2.894618  s :     2.894618
      pz      :     0.987074  p :     3.162167
      px      :     1.101009
      py      :     1.074085
      dz2     :     0.005666  d :     0.082381
      dxz     :     0.011391
      dyz     :     0.008591
      dx2y2   :     0.025610
      dxy     :     0.031122

  5 C s       :     2.894558  s :     2.894558
      pz      :     0.996285  p :     3.168836
      px      :     1.091004
      py      :     1.081547
      dz2     :     0.006155  d :     0.081646
      dxz     :     0.013668
      dyz     :     0.005444
      dx2y2   :     0.027180
      dxy     :     0.029199

  6 C s       :     2.841040  s :     2.841040
      pz      :     0.965713  p :     3.102404
      px      :     1.063162
      py      :     1.073529
      dz2     :     0.008063  d :     0.102117
      dxz     :     0.015832
      dyz     :     0.011701
      dx2y2   :     0.033242
      dxy     :     0.033279

  7 C s       :     2.880542  s :     2.880542
      pz      :     1.067110  p :     3.204604
      px      :     1.049225
      py      :     1.088268
      dz2     :     0.006453  d :     0.077149
      dxz     :     0.011871
      dyz     :     0.006264
      dx2y2   :     0.025413
      dxy     :     0.027147

  8 C s       :     2.778134  s :     2.778134
      pz      :     0.917595  p :     2.871948
      px      :     0.890870
      py      :     1.063482
      dz2     :     0.013143  d :     0.158890
      dxz     :     0.032971
      dyz     :     0.013388
      dx2y2   :     0.052645
      dxy     :     0.046742

  9 C s       :     2.891731  s :     2.891731
      pz      :     1.005632  p :     3.151777
      px      :     1.091400
      py      :     1.054745
      dz2     :     0.005600  d :     0.077652
      dxz     :     0.011006
      dyz     :     0.007665
      dx2y2   :     0.024625
      dxy     :     0.028755

 10 C s       :     2.894467  s :     2.894467
      pz      :     0.982632  p :     3.156346
      px      :     1.090769
      py      :     1.082945
      dz2     :     0.006245  d :     0.082702
      dxz     :     0.014791
      dyz     :     0.005456
      dx2y2   :     0.027348
      dxy     :     0.028862

 11 C s       :     2.840417  s :     2.840417
      pz      :     0.986835  p :     3.123283
      px      :     1.066214
      py      :     1.070234
      dz2     :     0.008015  d :     0.100452
      dxz     :     0.014057
      dyz     :     0.011501
      dx2y2   :     0.032921
      dxy     :     0.033959

 12 C s       :     2.883867  s :     2.883867
      pz      :     1.000084  p :     3.159680
      px      :     1.064277
      py      :     1.095319
      dz2     :     0.006700  d :     0.082174
      dxz     :     0.013294
      dyz     :     0.006608
      dx2y2   :     0.028888
      dxy     :     0.026684

 13 O s       :     3.470951  s :     3.470951
      pz      :     1.773004  p :     4.723680
      px      :     1.414560
      py      :     1.536117
      dz2     :     0.056426  d :     0.487118
      dxz     :     0.079319
      dyz     :     0.068030
      dx2y2   :     0.142346
      dxy     :     0.140998

 14 C s       :     2.902422  s :     2.902422
      pz      :     1.094831  p :     3.041162
      px      :     1.057382
      py      :     0.888949
      dz2     :     0.021510  d :     0.110853
      dxz     :     0.005049
      dyz     :     0.030952
      dx2y2   :     0.032546
      dxy     :     0.020796

 15 C s       :     2.741361  s :     2.741361
      pz      :     0.930646  p :     2.633013
      px      :     0.748552
      py      :     0.953815
      dz2     :     0.042914  d :     0.272834
      dxz     :     0.026723
      dyz     :     0.106041
      dx2y2   :     0.049179
      dxy     :     0.047976

 16 O s       :     3.553773  s :     3.553773
      pz      :     1.738258  p :     4.657857
      px      :     1.441391
      py      :     1.478208
      dz2     :     0.024787  d :     0.206152
      dxz     :     0.013593
      dyz     :     0.062717
      dx2y2   :     0.054767
      dxy     :     0.050288

 17 O s       :     3.466846  s :     3.466846
      pz      :     1.332013  p :     4.679903
      px      :     1.708152
      py      :     1.639739
      dz2     :     0.080306  d :     0.255163
      dxz     :     0.032009
      dyz     :     0.072946
      dx2y2   :     0.038798
      dxy     :     0.031103

 18 H s       :     0.795407  s :     0.795407
      pz      :     0.008965  p :     0.043669
      px      :     0.026794
      py      :     0.007910

 19 H s       :     0.785616  s :     0.785616
      pz      :     0.021651  p :     0.044855
      px      :     0.008866
      py      :     0.014338

 20 H s       :     0.793520  s :     0.793520
      pz      :     0.020621  p :     0.044078
      px      :     0.013076
      py      :     0.010381

 21 H s       :     0.776910  s :     0.776910
      pz      :     0.010348  p :     0.045064
      px      :     0.015860
      py      :     0.018855

 22 H s       :     0.784798  s :     0.784798
      pz      :     0.010015  p :     0.044806
      px      :     0.009440
      py      :     0.025351

 23 H s       :     0.774981  s :     0.774981
      pz      :     0.011728  p :     0.046751
      px      :     0.009471
      py      :     0.025553

 24 H s       :     0.772502  s :     0.772502
      pz      :     0.010919  p :     0.045127
      px      :     0.016424
      py      :     0.017783

 25 H s       :     0.783132  s :     0.783132
      pz      :     0.009888  p :     0.044790
      px      :     0.009464
      py      :     0.025438

 26 H s       :     0.777550  s :     0.777550
      pz      :     0.010287  p :     0.045866
      px      :     0.010012
      py      :     0.025566

 27 H s       :     0.793085  s :     0.793085
      pz      :     0.015592  p :     0.040944
      px      :     0.009637
      py      :     0.015715

 28 H s       :     0.779915  s :     0.779915
      pz      :     0.008094  p :     0.039510
      px      :     0.025686
      py      :     0.005729

 29 H s       :     0.793164  s :     0.793164
      pz      :     0.026146  p :     0.040949
      px      :     0.007623
      py      :     0.007180

 30 H s       :     0.581953  s :     0.581953
      pz      :     0.055936  p :     0.116123
      px      :     0.031255
      py      :     0.028932


---------------------------------
LOEWDIN BOND ORDERS (THRESH 0.050000)
---------------------------------
B(  0-C ,  1-C ) :   1.0854 B(  0-C ,  3-C ) :   0.0640 B(  0-C , 15-C ) :   0.0678 
B(  0-C , 17-O ) :   0.0561 B(  0-C , 18-H ) :   0.9181 B(  0-C , 19-H ) :   0.9041 
B(  0-C , 20-H ) :   0.9138 B(  1-C ,  2-H ) :   0.8286 B(  1-C ,  3-C ) :   1.0051 
B(  1-C ,  4-C ) :   0.0879 B(  1-C , 12-C ) :   0.0818 B(  1-C , 15-C ) :   0.8775 
B(  1-C , 16-O ) :   0.1813 B(  1-C , 17-O ) :   0.1627 B(  3-C ,  4-C ) :   1.3177 
B(  3-C ,  5-C ) :   0.0900 B(  3-C ,  6-C ) :   0.0780 B(  3-C , 11-C ) :   0.0924 
B(  3-C , 12-C ) :   1.5151 B(  3-C , 15-C ) :   0.0848 B(  3-C , 26-H ) :   0.0527 
B(  4-C ,  5-C ) :   1.6141 B(  4-C ,  6-C ) :   0.0897 B(  4-C , 11-C ) :   0.0817 
B(  4-C , 12-C ) :   0.0835 B(  4-C , 21-H ) :   0.8594 B(  4-C , 22-H ) :   0.0570 
B(  5-C ,  6-C ) :   1.3110 B(  5-C ,  7-C ) :   0.0963 B(  5-C , 11-C ) :   0.0775 
B(  5-C , 12-C ) :   0.1243 B(  5-C , 21-H ) :   0.0565 B(  5-C , 22-H ) :   0.8642 
B(  6-C ,  7-C ) :   1.3080 B(  6-C ,  8-C ) :   0.0945 B(  6-C ,  9-C ) :   0.0780 
B(  6-C , 10-C ) :   0.0774 B(  6-C , 11-C ) :   1.2401 B(  6-C , 12-C ) :   0.0782 
B(  6-C , 22-H ) :   0.0508 B(  6-C , 23-H ) :   0.0505 B(  7-C ,  8-C ) :   1.4060 
B(  7-C ,  9-C ) :   0.0831 B(  7-C , 10-C ) :   0.1155 B(  7-C , 11-C ) :   0.0786 
B(  7-C , 13-O ) :   0.2295 B(  7-C , 23-H ) :   0.8493 B(  8-C ,  9-C ) :   1.1980 
B(  8-C , 10-C ) :   0.0907 B(  8-C , 11-C ) :   0.0667 B(  8-C , 13-O ) :   1.4610 
B(  8-C , 14-C ) :   0.0799 B(  8-C , 23-H ) :   0.0534 B(  8-C , 24-H ) :   0.0514 
B(  9-C , 10-C ) :   1.6402 B(  9-C , 11-C ) :   0.0906 B(  9-C , 13-O ) :   0.2044 
B(  9-C , 24-H ) :   0.8572 B(  9-C , 25-H ) :   0.0572 B( 10-C , 11-C ) :   1.2946 
B( 10-C , 12-C ) :   0.0960 B( 10-C , 24-H ) :   0.0566 B( 10-C , 25-H ) :   0.8635 
B( 11-C , 12-C ) :   1.3249 B( 11-C , 25-H ) :   0.0505 B( 11-C , 26-H ) :   0.0508 
B( 12-C , 26-H ) :   0.8507 B( 13-O , 14-C ) :   1.4015 B( 13-O , 27-H ) :   0.1041 
B( 13-O , 28-H ) :   0.1022 B( 13-O , 29-H ) :   0.1041 B( 14-C , 27-H ) :   0.8589 
B( 14-C , 28-H ) :   0.8603 B( 14-C , 29-H ) :   0.8588 B( 15-C , 16-O ) :   2.1940 
B( 15-C , 17-O ) :   1.4875 B( 15-C , 30-H ) :   0.0554 B( 16-O , 17-O ) :   0.4678 
B( 17-O , 30-H ) :   0.9121 

------------------------------------------
LOEWDIN REDUCED ORBITAL POPULATIONS PER MO
-------------------------------------------
THRESHOLD FOR PRINTING IS 0.1%%
                      0         1         2         3         4         5   
                 -19.00556 -18.99051 -18.93089 -10.16088 -10.09895 -10.08998
                   2.00000   2.00000   2.00000   2.00000   2.00000   2.00000
                  --------  --------  --------  --------  --------  --------
 8 C  s               0.0       0.0       0.0       0.0      99.2       0.0
13 O  s               0.0      99.9       0.0       0.0       0.0       0.0
13 O  px              0.0       0.0       0.0       0.0       0.1       0.0
13 O  dx2y2           0.0       0.0       0.0       0.0       0.2       0.1
13 O  dxy             0.0       0.0       0.0       0.0       0.0       0.1
14 C  s               0.0       0.0       0.0       0.0       0.0      99.4
15 C  s               0.0       0.0       0.0      98.9       0.0       0.0
16 O  s               0.0       0.0      99.9       0.0       0.0       0.0
16 O  py              0.0       0.0       0.0       0.2       0.0       0.0
16 O  dx2y2           0.0       0.0       0.0       0.1       0.0       0.0
17 O  s              99.9       0.0       0.0       0.0       0.0       0.0
17 O  dyz             0.0       0.0       0.0       0.2       0.0       0.0

                      6         7         8         9        10        11   
                 -10.05986 -10.04780 -10.04750 -10.04324 -10.04096 -10.03712
                   2.00000   2.00000   2.00000   2.00000   2.00000   2.00000
                  --------  --------  --------  --------  --------  --------
 1 C  s              99.6       0.0       0.0       0.0       0.0       0.0
 3 C  s               0.0      99.5       0.0       0.0       0.0       0.0
 4 C  py              0.0       0.1       0.0       0.0       0.0       0.0
 6 C  s               0.0       0.0      99.3       0.2       0.0       0.0
 6 C  py              0.0       0.0       0.0       0.1       0.0       0.0
 7 C  px              0.0       0.0       0.1       0.0       0.0       0.0
 8 C  py              0.0       0.0       0.0       0.0       0.0       0.1
 9 C  s               0.0       0.0       0.0       0.0       0.6      99.0
 9 C  px              0.0       0.0       0.0       0.0       0.1       0.0
10 C  s               0.0       0.0       0.0       0.6      98.4       0.6
10 C  px              0.0       0.0       0.0       0.0       0.0       0.1
11 C  s               0.0       0.0       0.2      98.7       0.6       0.0
11 C  py              0.0       0.0       0.1       0.0       0.1       0.0
12 C  px              0.0       0.1       0.0       0.1       0.0       0.0

                     12        13        14        15        16        17   
                 -10.03594 -10.03517 -10.03438 -10.03404 -10.03052  -1.07977
                   2.00000   2.00000   2.00000   2.00000   2.00000   2.00000
                  --------  --------  --------  --------  --------  --------
 0 C  s               0.0       0.0       0.0       0.0      99.7       0.1
 0 C  pz              0.0       0.0       0.0       0.0       0.0       0.2
 0 C  py              0.0       0.0       0.0       0.0       0.0       0.2
 1 C  s               0.0       0.0       0.0       0.0       0.0       1.0
 1 C  pz              0.0       0.0       0.0       0.0       0.0       1.8
 1 C  px              0.0       0.0       0.0       0.0       0.0       0.2
 1 C  py              0.0       0.0       0.0       0.0       0.1       0.1
 3 C  s               0.1       0.0       0.0       0.0       0.0       0.1
 3 C  px              0.1       0.0       0.0       0.0       0.0       0.3
 4 C  s               0.0      14.0      85.6       0.0       0.0       0.0
 4 C  px              0.0       0.1       0.0       0.0       0.0       0.0
 5 C  s               0.0      85.6      14.0       0.0       0.0       0.0
 5 C  px              0.0       0.0       0.1       0.0       0.0       0.0
 6 C  px              0.0       0.1       0.0       0.1       0.0       0.0
 7 C  s               0.0       0.0       0.0      99.6       0.0       0.0
11 C  px              0.1       0.0       0.0       0.0       0.0       0.0
12 C  s              99.5       0.0       0.0       0.0       0.0       0.0
15 C  s               0.0       0.0       0.0       0.0       0.0      16.9
15 C  pz              0.0       0.0       0.0       0.0       0.0       5.2
15 C  px              0.0       0.0       0.0       0.0       0.0       0.2
15 C  py              0.0       0.0       0.0       0.0       0.0       0.2
15 C  dyz             0.0       0.0       0.0       0.0       0.0       0.4
15 C  dx2y2           0.0       0.0       0.0       0.0       0.0       0.6
15 C  dxy             0.0       0.0       0.0       0.0       0.0       0.1
16 O  s               0.0       0.0       0.0       0.0       0.0      11.4
16 O  px              0.0       0.0       0.0       0.0       0.0       0.3
16 O  py              0.0       0.0       0.0       0.0       0.0       2.9
16 O  dz2             0.0       0.0       0.0       0.0       0.0       0.2
16 O  dyz             0.0       0.0       0.0       0.0       0.0       0.2
16 O  dx2y2           0.0       0.0       0.0       0.0       0.0       0.8
16 O  dxy             0.0       0.0       0.0       0.0       0.0       0.3
17 O  s               0.0       0.0       0.0       0.0       0.0      44.0
17 O  pz              0.0       0.0       0.0       0.0       0.0       0.4
17 O  px              0.0       0.0       0.0       0.0       0.0       0.1
17 O  py              0.0       0.0       0.0       0.0       0.0       2.7
17 O  dyz             0.0       0.0       0.0       0.0       0.0       0.4
17 O  dx2y2           0.0       0.0       0.0       0.0       0.0       0.3
30 H  s               0.0       0.0       0.0       0.0       0.0       6.5
30 H  pz              0.0       0.0       0.0       0.0       0.0       1.2
30 H  px              0.0       0.0       0.0       0.0       0.0       0.1
30 H  py              0.0       0.0       0.0       0.0       0.0       0.1

                     18        19        20        21        22        23   
                  -1.03784  -0.97718  -0.84970  -0.80858  -0.76856  -0.74368
                   2.00000   2.00000   2.00000   2.00000   2.00000   2.00000
                  --------  --------  --------  --------  --------  --------
 0 C  s               0.0       0.0       0.4       3.4       7.8       1.0
 0 C  px              0.0       0.0       0.1       0.2       0.1       0.0
 0 C  py              0.0       0.0       0.2       1.0       1.3       0.1
 1 C  s               0.0       0.2       1.9      10.4      12.5       1.4
 1 C  px              0.0       0.1       0.8       1.0       0.1       0.2
 1 C  py              0.0       0.5       0.0       0.0       0.7       0.0
 2 H  s               0.0       0.0       0.2       1.3       1.7       0.3
 3 C  s               0.0       0.0       7.5      12.8       0.4       0.2
 3 C  pz              0.0       0.0       0.0       0.0       0.0       0.3
 3 C  px              0.0       0.1       0.8       0.4       5.3       1.4
 3 C  py              0.0       0.0       0.0       0.0       1.0       2.0
 3 C  dz2             0.0       0.0       0.1       0.1       0.0       0.0
 4 C  s               0.0       0.0       5.8       5.6       3.1       1.7
 4 C  pz              0.0       0.0       0.1       0.1       0.0       0.0
 4 C  px              0.0       0.0       0.6       0.2       2.9       0.5
 4 C  py              0.0       0.0       0.9       1.4       0.2       0.4
 5 C  s               0.0       0.0       7.0       0.7       8.7       5.3
 5 C  pz              0.0       0.0       0.1       0.0       0.0       0.0
 5 C  px              0.0       0.0       0.0       1.9       0.0       0.1
 5 C  py              0.0       0.0       1.8       0.0       0.6       0.1
 6 C  s               0.1       0.0      13.4       1.2       4.3       3.1
 6 C  pz              0.0       0.0       0.0       0.1       0.2       0.2
 6 C  px              0.1       0.0       0.2       2.5       1.9       2.0
 6 C  py              0.0       0.0       0.5       0.4       0.9       5.6
 6 C  dz2             0.0       0.0       0.1       0.0       0.0       0.0
 6 C  dx2y2           0.0       0.0       0.0       0.0       0.0       0.1
 7 C  s               0.7       0.0       5.5       4.4       0.0      10.5
 7 C  pz              0.1       0.0       0.0       0.1       0.2       0.0
 7 C  px              0.9       0.0       1.3       0.0       1.5       0.0
 7 C  py              0.4       0.0       0.7       1.1       0.7       0.2
 8 C  s               8.9       0.0       2.6       5.0       3.3       3.9
 8 C  pz              0.1       0.0       0.0       0.0       0.1       0.2
 8 C  px              8.4       0.0       2.3       2.4       0.4       0.8
 8 C  py              0.2       0.0       0.0       0.3       1.4       1.6
 8 C  dz2             0.3       0.0       0.0       0.0       0.0       0.0
 8 C  dx2y2           0.6       0.0       0.0       0.0       0.0       0.0
 9 C  s               0.7       0.0       3.8       6.9       6.8       0.5
 9 C  px              0.5       0.0       0.9       0.4       0.1       2.5
 9 C  py              0.9       0.0       0.4       0.6       0.2       1.5
 9 C  dx2y2           0.0       0.0       0.0       0.0       0.0       0.1
10 C  s               0.1       0.0       6.3       4.6       2.7       9.3
10 C  pz              0.0       0.0       0.1       0.0       0.0       0.1
10 C  px              0.1       0.0       0.0       1.0       1.6       1.1
10 C  py              0.0       0.0       1.6       0.5       0.0       0.2
11 C  s               0.0       0.0      14.0       0.7       0.3       9.8
11 C  pz              0.0       0.0       0.0       0.1       0.3       0.2
11 C  px              0.0       0.0       0.0       4.1       0.5       0.8
11 C  py              0.0       0.0       0.5       0.1       2.2       4.5
11 C  dz2             0.0       0.0       0.1       0.0       0.0       0.1
12 C  s               0.0       0.0       8.1       3.0       0.0       8.7
12 C  pz              0.0       0.0       0.0       0.3       0.0       0.1
12 C  px              0.0       0.0       0.6       2.2       0.8       1.7
12 C  py              0.0       0.0       1.2       1.2       0.2       0.1
13 O  s              57.0       0.0       0.4       0.6       0.2       0.3
13 O  pz              0.2       0.0       0.0       0.0       0.0       0.0
13 O  px              1.1       0.0       0.4       1.3       1.6       2.1
13 O  py              1.3       0.0       0.1       0.5       0.8       0.4
13 O  dz2             0.3       0.0       0.0       0.1       0.0       0.0
13 O  dx2y2           0.0       0.0       0.1       0.4       0.3       0.4
13 O  dxy             0.1       0.0       0.0       0.0       0.0       0.2
14 C  s               7.1       0.0       0.2       0.7       1.3       1.3
14 C  pz              0.2       0.0       0.0       0.0       0.0       0.0
14 C  px              1.8       0.0       0.0       0.1       0.0       0.2
14 C  py              5.3       0.0       0.1       0.2       0.1       0.1
14 C  dz2             0.1       0.0       0.0       0.0       0.0       0.0
14 C  dx2y2           0.2       0.0       0.0       0.0       0.0       0.0
14 C  dxy             0.4       0.0       0.0       0.0       0.0       0.0
15 C  s               0.0       4.0       0.1       0.6       1.2       0.2
15 C  pz              0.0       1.2       0.4       2.4       3.1       0.4
15 C  px              0.0       1.5       0.2       0.8       0.6       0.1
15 C  py              0.0      21.4       0.1       0.7       1.2       0.2
15 C  dz2             0.0       0.6       0.0       0.0       0.0       0.0
15 C  dyz             0.0       0.6       0.0       0.0       0.0       0.0
15 C  dx2y2           0.0       0.3       0.0       0.0       0.0       0.0
15 C  dxy             0.0       0.4       0.0       0.0       0.0       0.0
16 O  s               0.0      43.1       0.1       0.5       0.5       0.1
16 O  pz              0.0       0.2       0.0       0.0       0.1       0.0
16 O  px              0.0       0.4       0.0       0.0       0.0       0.0
16 O  py              0.0       3.1       0.0       0.1       0.1       0.0
16 O  dyz             0.0       0.2       0.0       0.1       0.2       0.0
17 O  s               0.0      16.3       0.0       0.2       0.3       0.0
17 O  pz              0.0       0.4       0.0       0.5       1.3       0.2
17 O  py              0.0       0.5       0.0       0.0       0.0       0.0
17 O  dz2             0.0       0.1       0.0       0.2       0.3       0.0
17 O  dyz             0.0       0.6       0.0       0.0       0.0       0.0
17 O  dx2y2           0.0       0.5       0.0       0.0       0.0       0.0
18 H  s               0.0       0.0       0.0       0.4       1.1       0.2
19 H  s               0.0       0.0       0.0       0.4       1.1       0.1
[...]
15 C  s               0.3       0.0       0.2       0.0       0.1       0.8
15 C  pz              0.5       0.0       0.0       0.0       0.0       0.0
15 C  px              0.2       0.0       0.0       0.0       0.0       0.0
15 C  py              3.6       0.0       0.0       0.0       0.0       0.0
15 C  dz2             0.5       0.0       0.0       0.0       0.0       0.0
15 C  dxz             0.2       0.0       0.0       0.0       0.0       0.0
15 C  dyz             2.7       0.0       0.0       0.0       0.0       0.0
15 C  dx2y2           0.1       0.0       0.0       0.0       0.0       0.0
15 C  dxy             0.5       0.0       0.0       0.0       0.0       0.0
16 O  s               2.9       0.0       0.0       0.0       0.0       0.0
16 O  px              0.4       0.0       0.0       0.0       0.0       0.0
16 O  py              3.2       0.0       0.0       0.0       0.0       0.0
16 O  dz2             1.9       0.0       0.0       0.0       0.0       0.0
16 O  dx2y2           2.5       0.0       0.0       0.0       0.0       0.0
16 O  dxy             1.3       0.0       0.0       0.0       0.0       0.0
17 O  s               4.1       0.0       0.0       0.0       0.0       0.0
17 O  pz             17.6       0.0       0.0       0.0       0.0       0.0
17 O  px              1.3       0.0       0.0       0.0       0.0       0.0
17 O  py              0.4       0.0       0.0       0.0       0.0       0.0
17 O  dz2             6.3       0.0       0.0       0.0       0.0       0.0
17 O  dxz             6.4       0.0       0.0       0.0       0.0       0.0
17 O  dyz            18.7       0.0       0.0       0.0       0.0       0.0
17 O  dxy             1.3       0.0       0.0       0.0       0.0       0.0
30 H  s              10.7       0.0       0.0       0.0       0.0       0.0
30 H  pz              9.3       0.0       0.0       0.0       0.0       0.0
30 H  px              1.2       0.0       0.0       0.0       0.0       0.0
30 H  py              1.7       0.0       0.0       0.0       0.0       0.0

                    396       397       398       399       400       401   
                  22.03367  22.07363  22.16012  22.21166  22.23889  22.26921
                   0.00000   0.00000   0.00000   0.00000   0.00000   0.00000
                  --------  --------  --------  --------  --------  --------
 0 C  s              56.9       3.9       1.1       0.1       0.0      14.8
 1 C  s              12.6       1.0       0.9       0.1       0.1      51.5
 3 C  s               3.4      23.8      14.9       0.8       0.0       6.2
 4 C  s               6.3       2.4       8.4      14.5       3.9       1.1
 5 C  s               0.1      12.8       0.4       2.6       8.1       5.6
 6 C  s               1.9       3.1      17.2       2.5       4.3       3.6
 7 C  s               2.0      11.5       1.7       5.0      17.7       0.3
 8 C  s               4.2      11.3      16.0       1.6      13.0       3.2
 9 C  s               1.8       2.0       4.5      21.5       2.0       1.1
10 C  s               0.3       5.8       0.9      15.7      20.4       0.1
11 C  s               9.5       0.6       4.6       5.4      15.6       0.5
12 C  s               0.3       9.8       4.8      22.1      12.5       0.1
14 C  s               0.1       3.6       1.2       0.4       0.1       0.1
15 C  s               0.1       7.9      23.0       7.2       1.7      11.4

                    402       403       404       405       406       407   
                  22.31297  22.36360  22.42395  43.67933  43.71064  43.73038
                   0.00000   0.00000   0.00000   0.00000   0.00000   0.00000
                  --------  --------  --------  --------  --------  --------
 0 C  s               2.2       0.1       0.8       0.0       0.0       0.0
 1 C  s              22.6       1.5       3.8       0.0       0.0       0.0
 3 C  s               0.0       2.9      26.2       0.0       0.0       0.0
 4 C  s              13.7       0.2       9.4       0.0       0.0       0.0
 5 C  s              27.8       0.9       4.9       0.0       0.0       0.0
 6 C  s               2.8       9.8       5.0       0.0       0.0       0.0
 7 C  s               2.9      16.7       0.5       0.0       0.0       0.0
 8 C  s               9.3      18.1       0.1       0.0       0.0       0.0
 9 C  s               1.4      14.4       0.0       0.0       0.0       0.0
10 C  s               1.0      16.6       0.8       0.0       0.0       0.0
11 C  s               1.4      10.8       5.8       0.0       0.0       0.0
12 C  s               0.6       0.0      16.1       0.0       0.0       0.0
13 O  s               0.0       0.0       0.0       0.0       0.2      99.7
14 C  s               0.1       0.3       0.0       0.0       0.0       0.0
15 C  s              13.7       7.2      26.0       0.1       0.0       0.0
16 O  s               0.0       0.0       0.1       4.3      95.3       0.2
17 O  s               0.0       0.0       0.0      95.5       4.4       0.0



                      *****************************
                      * MAYER POPULATION ANALYSIS *
                      *****************************

  NA   - Mulliken gross atomic population
  ZA   - Total nuclear charge
  QA   - Mulliken gross atomic charge
  VA   - Mayer's total valence
  BVA  - Mayer's bonded valence
  FA   - Mayer's free valence

  ATOM       NA         ZA         QA         VA         BVA        FA
  0 C      6.5281     6.0000    -0.5281     3.7886     3.7886    -0.0000
  1 C      6.0898     6.0000    -0.0898     3.7041     3.7041    -0.0000
  2 H      0.8168     1.0000     0.1832     0.9543     0.9543     0.0000
  3 C      5.8273     6.0000     0.1727     3.5184     3.5184    -0.0000
  4 C      6.2379     6.0000    -0.2379     3.8778     3.8778    -0.0000
  5 C      6.3003     6.0000    -0.3003     3.6509     3.6509     0.0000
  6 C      5.7746     6.0000     0.2254     3.8675     3.8675     0.0000
  7 C      6.3644     6.0000    -0.3644     3.5679     3.5679     0.0000
  8 C      5.6340     6.0000     0.3660     3.7858     3.7858     0.0000
  9 C      6.3195     6.0000    -0.3195     3.7515     3.7515    -0.0000
 10 C      6.2642     6.0000    -0.2642     3.6317     3.6317    -0.0000
 11 C      5.8438     6.0000     0.1562     3.9114     3.9114     0.0000
 12 C      6.2438     6.0000    -0.2438     3.8062     3.8062     0.0000
 13 O      8.1801     8.0000    -0.1801     1.9971     1.9971    -0.0000
 14 C      6.3316     6.0000    -0.3316     3.7640     3.7640     0.0000
 15 C      5.6998     6.0000     0.3002     3.9511     3.9511    -0.0000
 16 O      8.3858     8.0000    -0.3858     1.9894     1.9894    -0.0000
 17 O      8.3338     8.0000    -0.3338     1.9466     1.9466     0.0000
 18 H      0.8409     1.0000     0.1591     0.9598     0.9598    -0.0000
 19 H      0.8328     1.0000     0.1672     0.9582     0.9582    -0.0000
 20 H      0.8292     1.0000     0.1708     0.9563     0.9563    -0.0000
 21 H      0.8429     1.0000     0.1571     0.9659     0.9659    -0.0000
 22 H      0.8606     1.0000     0.1394     0.9735     0.9735     0.0000
 23 H      0.8559     1.0000     0.1441     0.9732     0.9732     0.0000
 24 H      0.8418     1.0000     0.1582     0.9681     0.9681    -0.0000
 25 H      0.8559     1.0000     0.1441     0.9723     0.9723     0.0000
 26 H      0.8591     1.0000     0.1409     0.9707     0.9707    -0.0000
 27 H      0.8459     1.0000     0.1541     0.9537     0.9537     0.0000
 28 H      0.8440     1.0000     0.1560     0.9576     0.9576     0.0000
 29 H      0.8462     1.0000     0.1538     0.9539     0.9539     0.0000
 30 H      0.6690     1.0000     0.3310     0.8975     0.8975     0.0000

  Mayer bond orders larger than 0.100000
B(  0-C ,  1-C ) :   0.8554 B(  0-C , 18-H ) :   0.9705 B(  0-C , 19-H ) :   0.9635 
B(  0-C , 20-H ) :   0.9870 B(  1-C ,  2-H ) :   0.9918 B(  1-C ,  3-C ) :   0.7935 
B(  1-C , 15-C ) :   0.9831 B(  3-C ,  4-C ) :   1.2747 B(  3-C , 12-C ) :   1.4895 
B(  4-C ,  5-C ) :   1.4771 B(  4-C , 21-H ) :   0.9423 B(  5-C ,  6-C ) :   1.1928 
B(  5-C , 22-H ) :   0.9575 B(  6-C ,  7-C ) :   1.1812 B(  6-C , 11-C ) :   1.5289 
B(  7-C ,  8-C ) :   1.4250 B(  7-C , 23-H ) :   0.9039 B(  8-C ,  9-C ) :   1.2725 
B(  8-C , 13-O ) :   1.0636 B(  9-C , 10-C ) :   1.4504 B(  9-C , 24-H ) :   0.9436 
B( 10-C , 11-C ) :   1.1969 B( 10-C , 25-H ) :   0.9503 B( 11-C , 12-C ) :   1.2140 
B( 12-C , 26-H ) :   0.9428 B( 13-O , 14-C ) :   0.8574 B( 14-C , 27-H ) :   0.9626 
B( 14-C , 28-H ) :   0.9681 B( 14-C , 29-H ) :   0.9627 B( 15-C , 16-O ) :   1.9277 
B( 15-C , 17-O ) :   1.0385 B( 17-O , 30-H ) :   0.8588 

-------
TIMINGS
-------

Total SCF time: 0 days 0 hours 1 min 22 sec 

Total time                  ....      82.975 sec
Sum of individual times     ....      81.512 sec  ( 98.2%)

SCF preparation             ....       0.355 sec  (  0.4%)
Fock matrix formation       ....      77.786 sec  ( 93.7%)
  Startup                   ....       0.110 sec  (  0.1% of F)
  Split-RI-J                ....      23.241 sec  ( 29.9% of F)
  XC integration            ....      53.547 sec  ( 68.8% of F)
    XC Preparation          ....       0.000 sec  (  0.0% of XC)
    Basis function eval.    ....       9.716 sec  ( 18.1% of XC)
    Density eval.           ....      19.932 sec  ( 37.2% of XC)
    XC-Functional eval.     ....       4.198 sec  (  7.8% of XC)
    XC-Potential eval.      ....      17.459 sec  ( 32.6% of XC)
Diagonalization             ....       0.000 sec  (  0.0%)
Density matrix formation    ....       0.567 sec  (  0.7%)
Total Energy calculation    ....       0.062 sec  (  0.1%)
Population analysis         ....       0.385 sec  (  0.5%)
Orbital Transformation      ....       0.241 sec  (  0.3%)
Orbital Orthonormalization  ....       0.000 sec  (  0.0%)
DIIS solution               ....       1.925 sec  (  2.3%)
  MO trafo                  ....       0.000 sec  (  0.0 % of DIIS)
  Orb grad                  ....       0.000 sec  (  0.0 % of DIIS)
  Energy W gradient         ....       0.000 sec  (  0.0 % of DIIS)
  DIIS error                ....       0.087 sec  (  4.5 % of DIIS)
  DIIS work                 ....       1.671 sec  ( 86.8 % of DIIS)
  Form Q                    ....       0.000 sec  (  0.0 % of DIIS)
  Form QpQm                 ....       0.000 sec  (  0.0 % of DIIS)
  Exp/Cayley                ....       0.000 sec  (  0.0 % of DIIS)
  Orb update                ....       0.000 sec  (  0.0 % of DIIS)
  Wake-sleep                ....       0.036 sec  (  1.9 % of DIIS)
SOSCF solution              ....       0.192 sec  (  0.2%)
  MO trafo                  ....       0.121 sec  ( 62.8 % of SOSCF)
  Orb grad                  ....       0.001 sec  (  0.7 % of SOSCF)
  Rot update                ....       0.000 sec  (  0.1 % of SOSCF)
  Step                      ....       0.070 sec  ( 36.4 % of SOSCF)
Finished LeanSCF after  83.1 sec

Maximum memory used throughout the entire LEANSCF-calculation: 49.9 MB


-------------------------------------------------------------------------------
                          DFT DISPERSION CORRECTION                            
                                                                               
                                DFTD4 V3.4.0                                   
-------------------------------------------------------------------------------
The R2SCAN3C composite method is recognized
Using three-body term ABC
Active option DFTDOPT                   ...         5   

-------------------------   ----------------
Dispersion correction           -0.013108492
-------------------------   ----------------

------------------   -----------------
gCP correction             0.013671898
------------------   -----------------

-------------------------   --------------------
FINAL SINGLE POINT ENERGY      -767.446300225685
-------------------------   --------------------


------------------------------------------------------------------------------
                              ORCA PROPERTY CALCULATIONS
------------------------------------------------------------------------------

GBWName                                 ... sp_gas.gbw
Number of atoms                         ...     31
Number of basis functions               ...    408
Max core memory                         ...   1024 MB

Electric properties:
Dipole moment                           ... YES
Quadrupole moment                       ...  NO
Static polarizability (Dipole/Dipole)   ...  NO
Static polarizability (Dipole/Quad.)    ...  NO
Static polarizability (Quad./Quad.)     ...  NO
Static polarizability (Velocity)        ...  NO

Atomic electric properties:
Dipole moment                           ...  NO
Quadrupole moment                       ...  NO
Static polarizability                   ...  NO

Choice of electric origin               ... Center of mass
Position of electric origin             ...     0.000013     0.000004    -0.000012

General magnetic properties:
Magnetizability                         ...  NO

EPR properties:
g-Tensor (aka g-matrix)                 ...  NO
Zero-Field splitting spin-orbit         ...  NO
Zero-field splitting spin-spin          ...  NO
Hyperfine couplings                     ...  NO (   0 nuclei)
Quadrupole couplings                    ...  NO (   0 nuclei)
Contact density                         ...  NO (   0 nuclei)

NMR properties:
Chemical shifts                         ...  NO (   0 nuclei)
Spin-rotation constants                 ...  NO (   0 nuclei)
Spin-spin couplings                     ...  NO (   0 nuclei,    0 pairs)

Choice of magnetic origin               ... GIAO
Position of magnetic origin             ...     0.000000     0.000000     0.000000

Properties with geometric perturbations:
SCF Hessian                             ...  NO
IR spectrum                             ...  NO
VCD spectrum                            ...  NO
X-ray spectroscopy properties:
SCF XES/XAS/RIXS spectra                ...  NO


-------------
DIPOLE MOMENT
-------------

Method             : SCF
Type of density    : Electron Density
Multiplicity       :   1
Irrep              :   0
Energy             :  -767.4468636317678829 Eh
Relativity type    : 
Basis              : AO
                                X                 Y                 Z
Electronic contribution:     -2.474240055      -1.115229652       3.380517874
Nuclear contribution   :      3.062839620       1.426642992      -3.371667769
                        -----------------------------------------
Total Dipole Moment    :      0.588599565       0.311413340       0.008850105
                        -----------------------------------------
Magnitude (a.u.)       :      0.665962492
Magnitude (Debye)      :      1.692742131



--------------------
Rotational spectrum 
--------------------
 
Rotational constants in cm-1:             0.042312             0.007274             0.006778 
Rotational constants in MHz :          1268.468159           218.068706           203.212102 

Dipole components along the rotational axes: 
x,y,z [a.u.] :     0.582139     0.322665     0.022541 
x,y,z [Debye]:     1.479679     0.820148     0.057295 

 

Dipole moment calculation done in   0.0 sec 

Maximum memory used throughout the entire PROP-calculation: 33.0 MB

--------------------------------
SUGGESTED CITATIONS FOR THIS RUN
--------------------------------

Below you find a list of papers that are relevant to this ORCA run
We neither can nor want to force you to cite these papers, but we appreciate if you do
You receive ORCA, which is the product of decades of hard work by many enthusiastic individuals, for free
The only thing we kindly ask in return is that you cite our papers,
We deeply appreciate it, if you show your appreciation for ORCA by not just citing the generic ORCA reference.

Please note that relegating all ORCA citations to the supporting information does *not* help us.
SI sections are not indexed - citations you put there will not count into any citation statistics
But we need these citations in order to attract the funding resources that allow us to do what we are doing

Therefore, if you are a happy ORCA user, please consider citing a few of the papers listed below in the main body of your paper

In addition to the list printed below, the program has created the file sp_gas.bibtex that contains the list in bibtex format
You can import this file easily into all common literature databanks and citation aid programs


List of essential papers. We consider these as the minimum necessary citations

  1. Neese,F.
     Software update: the ORCA program system, version 5.0
     WIRES Comput. Molec. Sci., 2022 12(1)e1606
     doi.org/10.1002/wcms.1606
  2. Grimme,S.; Hansen,A.; Ehlert,S.; Mewes,J.
     r2SCAN-3c: A 'Swiss army knife' composite electronic-structure method
     J. Chem. Phys., 2021 154 064103
     doi.org/10.1063/5.0040021

List of papers to cite with high priority. The work reported in these papers was absolutely
necessary for this run to complete.
Our perspective: the developers of density functionals and basis sets usually get cited in chemistry papers
Good! But without the algorithms to do something with them, the functionals or basis sets would not do anything.
Hence, in our opinion, the algorithm design and method developments papers are equally worthy of getting cited

  1. Neese,F.
     An improvement of the resolution of the identity approximation for the formation of the Coulomb matrix
     J. Comp. Chem., 2003 24(14)1740-1747
     doi.org/10.1002/jcc.10318
  2. Neese,F.
     The SHARK Integral Generation and Digestion System
     J. Comp. Chem., 2022  1-16
     doi.org/10.1002/jcc.26942
  3. Lehtola,S.; Steigemann,C.; Oliveira,M.; Marques,M.
     Recent developments in Libxc - A comprehensive library of functionals for density functional theory
     Software X, 2018 7 
     doi.org/10.1016/j.softx.2017.11.002
  4. Caldeweyher,E.; Bannwarth,C.; Grimme,S.
     Extension of the D3 dispersion coefficient model
     J. Chem. Phys., 2017 147 034112-XXXX
     doi.org/10.1063/1.4993215
  5. Caldeweyher,E.; Ehlert,S.; Hansen,A.; Neugebauer,H.; Spicher,S.; Bannwarth,C.; Grimme,S.
     A generally applicable atomic-charge dependent London dispersion correction
     J. Chem. Phys., 2019 150 154122-XXXX
     doi.org/10.1063/1.5090222
  6. Caldeweyher,E.; Mewes,J.; Ehlert,S.; Grimme,S.
     Extension and evaluation of the D4 London-dispersion model for periodic systems
     Phys. Chem. Chem. Phys., 2020 22(16)8499-8512
     doi.org/10.1039/D0CP00502A

List of suggested additional citations. These are papers that are important in the 'surrounding' of 
of this run, or papers that preceded the highly important papers. If you like your results we are grateful for a citation.

  1. Neese,F.
     The ORCA program system
     WIRES Comput. Molec. Sci., 2012 2(1)73-78
     doi.org/10.1002/wcms.81
  2. Neese,F.
     Software update: the ORCA program system, version 4.0
     WIRES Comput. Molec. Sci., 2018 8(1)1-6
     doi.org/10.1002/wcms.1327
  3. Neese,F.; Wennmohs,F.; Becker,U.; Riplinger,C.
     The ORCA quantum chemistry program package
     J. Chem. Phys., 2020 152 Art. No. L224108
     doi.org/10.1063/5.0004608

List of optional additional citations

  1. Neese,F.
     Approximate second-order SCF convergence for spin unrestricted wavefunctions
     Chem. Phys. Lett., 2000 325(1-3)93-98
     doi.org/10.1016/s0009-2614(00)00662-x

Timings for individual modules:

Sum of individual times          ...       87.253 sec (=   1.454 min)
Startup calculation              ...        3.206 sec (=   0.053 min)   3.7 %
SCF iterations                   ...       83.872 sec (=   1.398 min)  96.1 %
Property calculations            ...        0.174 sec (=   0.003 min)   0.2 %
                             ****ORCA TERMINATED NORMALLY****
TOTAL RUN TIME: 0 days 0 hours 1 minutes 28 seconds 373 msec
