      -----------------------------------------------------------      
     |                   =====================                   |     
     |                           x T B                           |     
     |                   =====================                   |     
     |                         S. Grimme                         |     
     |          Mulliken Center for Theoretical Chemistry        |     
     |                    University of Bonn                     |     
      -----------------------------------------------------------      

   * xtb version 6.7.1 (edcfbbe) compiled by 'albert@albert-system' on 2024-07-22

   xtb is free software: you can redistribute it and/or modify it under
   the terms of the GNU Lesser General Public License as published by
   the Free Software Foundation, either version 3 of the License, or
   (at your option) any later version.
   
   xtb is distributed in the hope that it will be useful,
   but WITHOUT ANY WARRANTY; without even the implied warranty of
   MERCHANTABILITY or FITNESS FOR A PARTICULAR PURPOSE.  See the
   GNU Lesser General Public License for more details.
   
   Cite this work as:
   * C. Bannwarth, E. Caldeweyher, S. Ehlert, A. Hansen, P. Pracht,
     J. Seibert, S. Spicher, S. Grimme, WIREs Comput. Mol. Sci., 2020, 11,
     e01493. DOI: 10.1002/wcms.1493
   
   for GFN2-xTB:
   * C. Bannwarth, S. Ehlert and S. Grimme., J. Chem. Theory Comput., 2019,
     15, 1652-1671. DOI: 10.1021/acs.jctc.8b01176
   for GFN1-xTB:
   * S. Grimme, C. Bannwarth, P. Shushkov, J. Chem. Theory Comput., 2017,
     13, 1989-2009. DOI: 10.1021/acs.jctc.7b00118
   for GFN0-xTB:
   * P. Pracht, E. Caldeweyher, S. Ehlert, S. Grimme, ChemRxiv, 2019, preprint.
     DOI: 10.26434/chemrxiv.8326202.v1
   for GFN-FF:
   * S. Spicher and S. Grimme, Angew. Chem. Int. Ed., 2020, 59, 15665-15673.
     DOI: 10.1002/anie.202004239
   
   for ALPB and GBSA implicit solvation:
   * S. Ehlert, M. Stahn, S. Spicher, S. Grimme, J. Chem. Theory Comput.,
     2021, 17, 4250-4261. DOI: 10.1021/acs.jctc.1c00471
   
   for ddCOSMO and CPCM-X implicit solvation:
   * M. Stahn, S. Ehlert, S. Grimme, J. Phys. Chem. A,
     2023, XX, XXXX-XXXX. DOI: 10.1021/acs.jpca.3c04382
   
   for DFT-D4:
   * E. Caldeweyher, C. Bannwarth and S. Grimme, J. Chem. Phys., 2017,
     147, 034112. DOI: 10.1063/1.4993215
   * E. Caldeweyher, S. Ehlert, A. Hansen, H. Neugebauer, S. Spicher,
     C. Bannwarth and S. Grimme, J. Chem. Phys., 2019, 150, 154122.
     DOI: 10.1063/1.5090222
   * E. Caldeweyher, J.-M. Mewes, S. Ehlert and S. Grimme, Phys. Chem. Chem. Phys.
     2020, 22, 8499-8512. DOI: 10.1039/D0CP00502A
   
   for sTDA-xTB:
   * S. Grimme and C. Bannwarth, J. Chem. Phys., 2016, 145, 054103.
     DOI: 10.1063/1.4959605
   
   in the mass-spec context:
   * V. Asgeirsson, C. Bauer and S. Grimme, Chem. Sci., 2017, 8, 4879.
     DOI: 10.1039/c7sc00601b
   * J. Koopman and S. Grimme, ACS Omega 2019, 4, 12, 15120-15133.
     DOI: 10.1021/acsomega.9b02011
   
   for metadynamics refer to:
   * S. Grimme, J. Chem. Theory Comput., 2019, 155, 2847-2862
     DOI: 10.1021/acs.jctc.9b00143
   
   for SPH calculations refer to:
   * S. Spicher and S. Grimme, J. Chem. Theory Comput., 2021, 17, 1701-1714
     DOI: 10.1021/acs.jctc.0c01306
   
   for ONIOM refer to:
   * C. Plett, A. Katbashev, S. Ehlert, S. Grimme, M. Bursch,
     Phys. Chem. Chem. Phys., 2023, 25, 17860-17868. DOI: 10.1039/D3CP02178E
   
   for DIPRO refer to:
   * J. Kohn, N. Gildemeister, S. Grimme, D. Fazzi, A. Hansen,
     J. Chem. Phys., 2023, just accepted.
   
   for PTB refer to:
   * S. Grimme, M. Mueller, A. Hansen, J. Chem. Phys., 2023, 158, 124111.
     DOI: 10.1063/5.0137838
   
   with help from (in alphabetical order)
   P. Atkinson, C. Bannwarth, F. Bohle, G. Brandenburg, E. Caldeweyher
   M. Checinski, S. Dohm, S. Ehlert, S. Ehrlich, I. Gerasimov, C. Hölzer
   A. Katbashev, J. Kohn, J. Koopman, C. Lavigne, S. Lehtola, F. März, M. Müller,
   F. Musil, H. Neugebauer, J. Pisarek, C. Plett, P. Pracht, F. Pultar,
   J. Seibert, P. Shushkov, S. Spicher, M. Stahn, M. Steiner, T. Strunk,
   J. Stückrath, T. Rose, and J. Unsleber
   
 * started run on 2025/04/11 at 12:24:49.275     
   ID    Z sym.   atoms
    1    6 C      1-3, 5-7
    2    7 N      4
    3    1 H      8-22

           -------------------------------------------------
          |                Calculation Setup                |
           -------------------------------------------------

          program call               : /srv/scratch/z5358697/.xtb/bin/xtb gas.coord --gfn2 --sp --chrg 0 --norestart --parallel 1
          hostname                   : k062
          coordinate file            : gas.coord
          omp threads                :                     1


           -------------------------------------------------
          |                 G F N 2 - x T B                 |
           -------------------------------------------------

        Reference                      10.1021/acs.jctc.8b01176
      * Hamiltonian:
        H0-scaling (s, p, d)           1.850000    2.230000    2.230000
        zeta-weighting                 0.500000
      * Dispersion:
        s8                             2.700000
        a1                             0.520000
        a2                             5.000000
        s9                             5.000000
      * Repulsion:
        kExp                           1.500000    1.000000
        rExp                           1.000000
      * Coulomb:
        alpha                          2.000000
        third order                    shell-resolved
        anisotropic                    true
        a3                             3.000000
        a5                             4.000000
        cn-shift                       1.200000
        cn-exp                         4.000000
        max-rad                        5.000000


          ...................................................
          :                      SETUP                      :
          :.................................................:
          :  # basis functions                  43          :
          :  # atomic orbitals                  43          :
          :  # shells                           29          :
          :  # electrons                        44          :
          :  max. iterations                   250          :
          :  Hamiltonian                  GFN2-xTB          :
          :  restarted?                      false          :
          :  GBSA solvation                  false          :
          :  PC potential                    false          :
          :  electronic temp.          300.0000000     K    :
          :  accuracy                    1.0000000          :
          :  -> integral cutoff          0.2500000E+02      :
          :  -> integral neglect         0.1000000E-07      :
          :  -> SCF convergence          0.1000000E-05 Eh   :
          :  -> wf. convergence          0.1000000E-03 e    :
          :  Broyden damping             0.4000000          :
          :  net charge                          0          :
          :  unpaired electrons                  0          :
          ...................................................

 iter      E             dE          RMSdq      gap      omega  full diag
   1    -23.7102822 -0.237103E+02  0.247E+00   10.08       0.0  T
   2    -23.7492590 -0.389769E-01  0.137E+00   10.11       1.0  T
   3    -23.7503862 -0.112719E-02  0.635E-01   10.16       1.0  T
   4    -23.7505328 -0.146529E-03  0.135E-01   10.07       1.0  T
   5    -23.7506246 -0.918561E-04  0.539E-02   10.08       1.0  T
   6    -23.7506265 -0.184619E-05  0.171E-02   10.07       1.2  T
   7    -23.7506267 -0.185480E-06  0.182E-03   10.08      11.7  T
   8    -23.7506267 -0.556179E-08  0.352E-04   10.08      60.6  T
   9    -23.7506267 -0.395488E-09  0.158E-04   10.08     134.7  T

   *** convergence criteria satisfied after 9 iterations ***

         #    Occupation            Energy/Eh            Energy/eV
      -------------------------------------------------------------
         1        2.0000           -0.6292775             -17.1235
       ...           ...                  ...                  ...
        16        2.0000           -0.4558661             -12.4047
        17        2.0000           -0.4450909             -12.1115
        18        2.0000           -0.4429825             -12.0542
        19        2.0000           -0.4334496             -11.7948
        20        2.0000           -0.4245885             -11.5536
        21        2.0000           -0.4155134             -11.3067
        22        2.0000           -0.3418625              -9.3026 (HOMO)
        23                          0.0284199               0.7733 (LUMO)
        24                          0.0811720               2.2088
        25                          0.0974888               2.6528
        26                          0.1186533               3.2287
        27                          0.1219193               3.3176
       ...                                ...                  ...
        43                          0.3318354               9.0297
      -------------------------------------------------------------
                  HL-Gap            0.3702824 Eh           10.0759 eV
             Fermi-level           -0.1567213 Eh           -4.2646 eV

 SCC (total)                   0 d,  0 h,  0 min,  0.017 sec
 SCC setup                      ...        0 min,  0.000 sec (  1.064%)
 Dispersion                     ...        0 min,  0.000 sec (  0.774%)
 classical contributions        ...        0 min,  0.000 sec (  0.157%)
 integral evaluation            ...        0 min,  0.002 sec (  9.185%)
 iterations                     ...        0 min,  0.006 sec ( 33.300%)
 molecular gradient             ...        0 min,  0.009 sec ( 54.577%)
 printout                       ...        0 min,  0.000 sec (  0.849%)

         :::::::::::::::::::::::::::::::::::::::::::::::::::::
         ::                     SUMMARY                     ::
         :::::::::::::::::::::::::::::::::::::::::::::::::::::
         :: total energy             -23.418372120588 Eh    ::
         :: gradient norm              0.002797115289 Eh/a0 ::
         :: HOMO-LUMO gap             10.075896787387 eV    ::
         ::.................................................::
         :: SCC energy               -23.750540945746 Eh    ::
         :: -> isotropic ES            0.013122763486 Eh    ::
         :: -> anisotropic ES          0.008756433341 Eh    ::
         :: -> anisotropic XC          0.017074527967 Eh    ::
         :: -> dispersion             -0.014168438265 Eh    ::
         :: repulsion energy           0.332168825158 Eh    ::
         :: add. restraining           0.000000000000 Eh    ::
         :: total charge              -0.000000000000 e     ::
         :::::::::::::::::::::::::::::::::::::::::::::::::::::

           -------------------------------------------------
          |                Property Printout                |
           -------------------------------------------------

    * Orbital Energies and Occupations

         #    Occupation            Energy/Eh            Energy/eV
      -------------------------------------------------------------
         1        2.0000           -0.6292775             -17.1235
       ...           ...                  ...                  ...
        10        2.0000           -0.4957049             -13.4888
        11        2.0000           -0.4883150             -13.2877
        12        2.0000           -0.4791071             -13.0372
        13        2.0000           -0.4752127             -12.9312
        14        2.0000           -0.4609153             -12.5421
        15        2.0000           -0.4595322             -12.5045
        16        2.0000           -0.4558661             -12.4047
        17        2.0000           -0.4450909             -12.1115
        18        2.0000           -0.4429825             -12.0542
        19        2.0000           -0.4334496             -11.7948
        20        2.0000           -0.4245885             -11.5536
        21        2.0000           -0.4155134             -11.3067
        22        2.0000           -0.3418625              -9.3026 (HOMO)
        23                          0.0284199               0.7733 (LUMO)
        24                          0.0811720               2.2088
        25                          0.0974888               2.6528
        26                          0.1186533               3.2287
        27                          0.1219193               3.3176
        28                          0.1303506               3.5470
        29                          0.1381895               3.7603
        30                          0.1544939               4.2040
        31                          0.1771226               4.8198
        32                          0.1879177               5.1135
        33                          0.2023184               5.5054
       ...                                ...                  ...
        43                          0.3318354               9.0297
      -------------------------------------------------------------
                  HL-Gap            0.3702824 Eh           10.0759 eV
             Fermi-level           -0.1567213 Eh           -4.2646 eV

     #   Z          covCN         q      C6AA      α(0)
     1   6 C        3.752    -0.110    22.673     6.790
     2   6 C        3.783     0.054    19.685     6.320
     3   6 C        3.755    -0.111    22.678     6.790
     4   7 N        2.683    -0.269    26.951     7.710
     5   6 C        3.783     0.054    19.685     6.320
     6   6 C        3.753    -0.111    22.685     6.792
     7   6 C        3.757    -0.115    22.755     6.801
     8   1 H        0.925     0.033     2.539     2.492
     9   1 H        0.925     0.027     2.623     2.533
    10   1 H        0.925     0.032     2.564     2.504
    11   1 H        0.924     0.026     2.649     2.545
    12   1 H        0.925     0.037     2.493     2.469
    13   1 H        0.925     0.046     2.365     2.405
    14   1 H        0.925     0.035     2.519     2.482
    15   1 H        0.860     0.131     1.540     1.944
    16   1 H        0.924     0.029     2.607     2.525
    17   1 H        0.925     0.032     2.564     2.504
    18   1 H        0.925     0.030     2.582     2.513
    19   1 H        0.925     0.034     2.536     2.490
    20   1 H        0.925     0.045     2.389     2.417
    21   1 H        0.925     0.034     2.532     2.488
    22   1 H        0.925     0.039     2.466     2.456

 Mol. C6AA /au·bohr⁶  :       3197.013166
 Mol. C8AA /au·bohr⁸  :      65518.844550
 Mol. α(0) /au        :         84.291553


Wiberg/Mayer (AO) data.
largest (>0.10) Wiberg bond orders for each atom

 ---------------------------------------------------------------------------
     #   Z sym  total        # sym  WBO       # sym  WBO       # sym  WBO
 ---------------------------------------------------------------------------
     1   6 C    3.997 --     2 C    0.992     9 H    0.987    10 H    0.986
                             8 H    0.985
     2   6 C    3.986 --     4 N    1.008     3 C    1.004     1 C    0.992
                            11 H    0.967
     3   6 C    3.997 --     2 C    1.004    14 H    0.987    13 H    0.986
                            12 H    0.983
     4   7 N    3.081 --     2 C    1.008     5 C    1.003    15 H    0.957
     5   6 C    3.986 --     4 N    1.003     6 C    1.000     7 C    1.000
                            16 H    0.963
     6   6 C    3.997 --     5 C    1.000    17 H    0.986    18 H    0.986
                            19 H    0.985
     7   6 C    3.996 --     5 C    1.000    22 H    0.987    20 H    0.987
                            21 H    0.986
     8   1 H    0.999 --     1 C    0.985
     9   1 H    0.999 --     1 C    0.987
    10   1 H    0.999 --     1 C    0.986
    11   1 H    0.999 --     2 C    0.967
    12   1 H    0.999 --     3 C    0.983
    13   1 H    0.998 --     3 C    0.986
    14   1 H    0.999 --     3 C    0.987
    15   1 H    0.983 --     4 N    0.957
    16   1 H    0.999 --     5 C    0.963
    17   1 H    0.999 --     6 C    0.986
    18   1 H    0.999 --     6 C    0.986
    19   1 H    0.999 --     6 C    0.985
    20   1 H    0.998 --     7 C    0.987
    21   1 H    0.999 --     7 C    0.986
    22   1 H    0.998 --     7 C    0.987
 ---------------------------------------------------------------------------

Topologies differ in total number of bonds
Writing topology from bond orders to xtbtopo.mol

molecular dipole:
                 x           y           z       tot (Debye)
 q only:        0.018       0.028       0.044
   full:        0.056      -0.021       0.389       1.001
molecular quadrupole (traceless):
                xx          xy          yy          xz          yz          zz
 q only:        0.447      -0.011       0.229      -0.236      -0.489      -0.676
  q+dip:        0.388      -0.009       1.690      -0.583      -0.758      -2.078
   full:        0.651      -0.026       1.367      -0.564      -0.957      -2.017


           -------------------------------------------------
          | TOTAL ENERGY              -23.418372120588 Eh   |
          | GRADIENT NORM               0.002797115289 Eh/α |
          | HOMO-LUMO GAP              10.075896787387 eV   |
           -------------------------------------------------

------------------------------------------------------------------------
 * finished run on 2025/04/11 at 12:24:49.322     
------------------------------------------------------------------------
 total:
 * wall-time:     0 d,  0 h,  0 min,  0.046 sec
 *  cpu-time:     0 d,  0 h,  0 min,  0.022 sec
 * ratio c/w:     0.489 speedup
 SCF:
 * wall-time:     0 d,  0 h,  0 min,  0.017 sec
 *  cpu-time:     0 d,  0 h,  0 min,  0.013 sec
 * ratio c/w:     0.761 speedup

