      -----------------------------------------------------------      
     |                   =====================                   |     
     |                           x T B                           |     
     |                   =====================                   |     
     |                         S. Grimme                         |     
     |          Mulliken Center for Theoretical Chemistry        |     
     |                    University of Bonn                     |     
      -----------------------------------------------------------      

   * xtb version 6.7.1 (edcfbbe) compiled by 'albert@albert-system' on 2024-07-22

   xtb is free software: you can redistribute it and/or modify it under
   the terms of the GNU Lesser General Public License as published by
   the Free Software Foundation, either version 3 of the License, or
   (at your option) any later version.
   
   xtb is distributed in the hope that it will be useful,
   but WITHOUT ANY WARRANTY; without even the implied warranty of
   MERCHANTABILITY or FITNESS FOR A PARTICULAR PURPOSE.  See the
   GNU Lesser General Public License for more details.
   
   Cite this work as:
   * C. Bannwarth, E. Caldeweyher, S. Ehlert, A. Hansen, P. Pracht,
     J. Seibert, S. Spicher, S. Grimme, WIREs Comput. Mol. Sci., 2020, 11,
     e01493. DOI: 10.1002/wcms.1493
   
   for GFN2-xTB:
   * C. Bannwarth, S. Ehlert and S. Grimme., J. Chem. Theory Comput., 2019,
     15, 1652-1671. DOI: 10.1021/acs.jctc.8b01176
   for GFN1-xTB:
   * S. Grimme, C. Bannwarth, P. Shushkov, J. Chem. Theory Comput., 2017,
     13, 1989-2009. DOI: 10.1021/acs.jctc.7b00118
   for GFN0-xTB:
   * P. Pracht, E. Caldeweyher, S. Ehlert, S. Grimme, ChemRxiv, 2019, preprint.
     DOI: 10.26434/chemrxiv.8326202.v1
   for GFN-FF:
   * S. Spicher and S. Grimme, Angew. Chem. Int. Ed., 2020, 59, 15665-15673.
     DOI: 10.1002/anie.202004239
   
   for ALPB and GBSA implicit solvation:
   * S. Ehlert, M. Stahn, S. Spicher, S. Grimme, J. Chem. Theory Comput.,
     2021, 17, 4250-4261. DOI: 10.1021/acs.jctc.1c00471
   
   for ddCOSMO and CPCM-X implicit solvation:
   * M. Stahn, S. Ehlert, S. Grimme, J. Phys. Chem. A,
     2023, XX, XXXX-XXXX. DOI: 10.1021/acs.jpca.3c04382
   
   for DFT-D4:
   * E. Caldeweyher, C. Bannwarth and S. Grimme, J. Chem. Phys., 2017,
     147, 034112. DOI: 10.1063/1.4993215
   * E. Caldeweyher, S. Ehlert, A. Hansen, H. Neugebauer, S. Spicher,
     C. Bannwarth and S. Grimme, J. Chem. Phys., 2019, 150, 154122.
     DOI: 10.1063/1.5090222
   * E. Caldeweyher, J.-M. Mewes, S. Ehlert and S. Grimme, Phys. Chem. Chem. Phys.
     2020, 22, 8499-8512. DOI: 10.1039/D0CP00502A
   
   for sTDA-xTB:
   * S. Grimme and C. Bannwarth, J. Chem. Phys., 2016, 145, 054103.
     DOI: 10.1063/1.4959605
   
   in the mass-spec context:
   * V. Asgeirsson, C. Bauer and S. Grimme, Chem. Sci., 2017, 8, 4879.
     DOI: 10.1039/c7sc00601b
   * J. Koopman and S. Grimme, ACS Omega 2019, 4, 12, 15120-15133.
     DOI: 10.1021/acsomega.9b02011
   
   for metadynamics refer to:
   * S. Grimme, J. Chem. Theory Comput., 2019, 155, 2847-2862
     DOI: 10.1021/acs.jctc.9b00143
   
   for SPH calculations refer to:
   * S. Spicher and S. Grimme, J. Chem. Theory Comput., 2021, 17, 1701-1714
     DOI: 10.1021/acs.jctc.0c01306
   
   for ONIOM refer to:
   * C. Plett, A. Katbashev, S. Ehlert, S. Grimme, M. Bursch,
     Phys. Chem. Chem. Phys., 2023, 25, 17860-17868. DOI: 10.1039/D3CP02178E
   
   for DIPRO refer to:
   * J. Kohn, N. Gildemeister, S. Grimme, D. Fazzi, A. Hansen,
     J. Chem. Phys., 2023, just accepted.
   
   for PTB refer to:
   * S. Grimme, M. Mueller, A. Hansen, J. Chem. Phys., 2023, 158, 124111.
     DOI: 10.1063/5.0137838
   
   with help from (in alphabetical order)
   P. Atkinson, C. Bannwarth, F. Bohle, G. Brandenburg, E. Caldeweyher
   M. Checinski, S. Dohm, S. Ehlert, S. Ehrlich, I. Gerasimov, C. Hölzer
   A. Katbashev, J. Kohn, J. Koopman, C. Lavigne, S. Lehtola, F. März, M. Müller,
   F. Musil, H. Neugebauer, J. Pisarek, C. Plett, P. Pracht, F. Pultar,
   J. Seibert, P. Shushkov, S. Spicher, M. Stahn, M. Steiner, T. Strunk,
   J. Stückrath, T. Rose, and J. Unsleber
   
 * started run on 2025/04/11 at 15:59:02.100     
   ID    Z sym.   atoms
    1    6 C      1-5, 8
    2    8 O      6, 7
    3    1 H      9-20

           -------------------------------------------------
          |                Calculation Setup                |
           -------------------------------------------------

          program call               : /srv/scratch/z5358697/.xtb/bin/xtb solv.coord --gfn2 --sp --chrg 0 --norestart --parallel 1 --alpb water reference -I xtb_sp-xcontrol-inp
          hostname                   : k068
          coordinate file            : solv.coord
          omp threads                :                     1


           -------------------------------------------------
          |                 G F N 2 - x T B                 |
           -------------------------------------------------

        Reference                      10.1021/acs.jctc.8b01176
      * Hamiltonian:
        H0-scaling (s, p, d)           1.850000    2.230000    2.230000
        zeta-weighting                 0.500000
      * Dispersion:
        s8                             2.700000
        a1                             0.520000
        a2                             5.000000
        s9                             5.000000
      * Repulsion:
        kExp                           1.500000    1.000000
        rExp                           1.000000
      * Coulomb:
        alpha                          2.000000
        third order                    shell-resolved
        anisotropic                    true
        a3                             3.000000
        a5                             4.000000
        cn-shift                       1.200000
        cn-exp                         4.000000
        max-rad                        5.000000

      * Solvation model:               ALPB
        Solvent                        water
        Parameter file                 internal GFN2-xTB/ALPB
        Dielectric constant                8.0200E+01
        Reference state                gsolv=reference [X=1]
        Free energy shift                  2.8945E-03 Eh       1.8164E+00 kcal/mol
        Temperature                        2.9815E+02 K
        Density                            1.0000E+00 kg/L
        Solvent mass                       1.8000E+01 g/mol
        Interaction kernel             P16
        Born radius scaling (c1)           1.4744E+00
        Born radii integrator          GBOBC
        Born offset                        0.0000E+00 a0       0.0000E+00 AA
        H-bond correction              true
        Ion screening                  false
        Surface tension                    1.0000E-05 Eh       1.5569E+01 dyn/cm
        Grid points                               974 per atom

          ...................................................
          :                      SETUP                      :
          :.................................................:
          :  # basis functions                  44          :
          :  # atomic orbitals                  44          :
          :  # shells                           28          :
          :  # electrons                        48          :
          :  max. iterations                   250          :
          :  Hamiltonian                  GFN2-xTB          :
          :  restarted?                      false          :
          :  GBSA solvation                   true          :
          :  PC potential                    false          :
          :  electronic temp.          300.0000000     K    :
          :  accuracy                    1.0000000          :
          :  -> integral cutoff          0.2500000E+02      :
          :  -> integral neglect         0.1000000E-07      :
          :  -> SCF convergence          0.1000000E-05 Eh   :
          :  -> wf. convergence          0.1000000E-03 e    :
          :  Broyden damping             0.4000000          :
          :  net charge                          0          :
          :  unpaired electrons                  0          :
          ...................................................

 iter      E             dE          RMSdq      gap      omega  full diag
   1    -27.3703775 -0.273704E+02  0.412E+00    5.78       0.0  T
   2    -27.4293162 -0.589387E-01  0.209E+00    4.98       1.0  T
   3    -27.4308261 -0.150985E-02  0.103E+00    5.28       1.0  T
   4    -27.4322985 -0.147247E-02  0.160E-01    5.02       1.0  T
   5    -27.4325051 -0.206596E-03  0.685E-02    5.06       1.0  T
   6    -27.4325067 -0.158214E-05  0.188E-02    5.05       1.2  T
   7    -27.4325075 -0.759009E-06  0.361E-03    5.05       6.2  T
   8    -27.4325075 -0.163725E-07  0.202E-03    5.05      11.1  T
   9    -27.4325075 -0.441137E-08  0.258E-04    5.05      86.5  T
  10    -27.4325075 -0.233385E-09  0.141E-04    5.05     158.8  T

   *** convergence criteria satisfied after 10 iterations ***

         #    Occupation            Energy/Eh            Energy/eV
      -------------------------------------------------------------
         1        2.0000           -0.7510735             -20.4377
       ...           ...                  ...                  ...
        18        2.0000           -0.4685474             -12.7498
        19        2.0000           -0.4512108             -12.2781
        20        2.0000           -0.4462487             -12.1430
        21        2.0000           -0.4435932             -12.0708
        22        2.0000           -0.4368044             -11.8861
        23        2.0000           -0.4240886             -11.5400
        24        2.0000           -0.4227165             -11.5027 (HOMO)
        25                         -0.2370046              -6.4492 (LUMO)
        26                         -0.0066615              -0.1813
        27                          0.0891717               2.4265
        28                          0.1075880               2.9276
        29                          0.1241290               3.3777
       ...                                ...                  ...
        44                          0.6198340              16.8665
      -------------------------------------------------------------
                  HL-Gap            0.1857119 Eh            5.0535 eV
             Fermi-level           -0.3298605 Eh           -8.9760 eV

 SCC (total)                   0 d,  0 h,  0 min,  0.020 sec
 SCC setup                      ...        0 min,  0.001 sec (  6.146%)
 Dispersion                     ...        0 min,  0.000 sec (  0.581%)
 classical contributions        ...        0 min,  0.000 sec (  0.123%)
 integral evaluation            ...        0 min,  0.002 sec (  7.606%)
 iterations                     ...        0 min,  0.012 sec ( 61.044%)
 molecular gradient             ...        0 min,  0.005 sec ( 23.645%)
 printout                       ...        0 min,  0.000 sec (  0.778%)

         :::::::::::::::::::::::::::::::::::::::::::::::::::::
         ::                     SUMMARY                     ::
         :::::::::::::::::::::::::::::::::::::::::::::::::::::
         :: total energy             -27.117073180714 Eh    ::
         :: total w/o Gsasa/hb       -27.118924579563 Eh    ::
         :: gradient norm              0.000045776508 Eh/a0 ::
         :: HOMO-LUMO gap              5.053476920555 eV    ::
         ::.................................................::
         :: SCC energy               -27.432559492969 Eh    ::
         :: -> isotropic ES            0.057940572560 Eh    ::
         :: -> anisotropic ES          0.001576502634 Eh    ::
         :: -> anisotropic XC          0.008392038791 Eh    ::
         :: -> dispersion             -0.011094718137 Eh    ::
         :: -> Gsolv                  -0.007051100960 Eh    ::
         ::    -> Gelec               -0.008902499810 Eh    ::
         ::    -> Gsasa                0.001358055756 Eh    ::
         ::    -> Ghb                 -0.002401206066 Eh    ::
         ::    -> Gshift               0.002894549160 Eh    ::
         :: repulsion energy           0.315486312255 Eh    ::
         :: add. restraining           0.000000000000 Eh    ::
         :: total charge               0.000000000000 e     ::
         :::::::::::::::::::::::::::::::::::::::::::::::::::::

           -------------------------------------------------
          |                Property Printout                |
           -------------------------------------------------

    * Orbital Energies and Occupations

         #    Occupation            Energy/Eh            Energy/eV
      -------------------------------------------------------------
         1        2.0000           -0.7510735             -20.4377
       ...           ...                  ...                  ...
        12        2.0000           -0.5274515             -14.3527
        13        2.0000           -0.5120671             -13.9341
        14        2.0000           -0.5083736             -13.8335
        15        2.0000           -0.4944166             -13.4538
        16        2.0000           -0.4835655             -13.1585
        17        2.0000           -0.4739119             -12.8958
        18        2.0000           -0.4685474             -12.7498
        19        2.0000           -0.4512108             -12.2781
        20        2.0000           -0.4462487             -12.1430
        21        2.0000           -0.4435932             -12.0708
        22        2.0000           -0.4368044             -11.8861
        23        2.0000           -0.4240886             -11.5400
        24        2.0000           -0.4227165             -11.5027 (HOMO)
        25                         -0.2370046              -6.4492 (LUMO)
        26                         -0.0066615              -0.1813
        27                          0.0891717               2.4265
        28                          0.1075880               2.9276
        29                          0.1241290               3.3777
        30                          0.1391300               3.7859
        31                          0.1408476               3.8327
        32                          0.1567523               4.2654
        33                          0.1633162               4.4441
        34                          0.1816693               4.9435
        35                          0.1876476               5.1062
       ...                                ...                  ...
        44                          0.6198340              16.8665
      -------------------------------------------------------------
                  HL-Gap            0.1857119 Eh            5.0535 eV
             Fermi-level           -0.3298605 Eh           -8.9760 eV

     #   Z          covCN         q      C6AA      α(0)
     1   6 C        3.752    -0.114    22.744     6.801
     2   6 C        3.801    -0.061    21.678     6.629
     3   6 C        3.804    -0.059    21.639     6.622
     4   6 C        3.805    -0.102    22.446     6.745
     5   6 C        2.711     0.364    20.818     7.468
     6   8 O        0.856    -0.482    23.394     6.485
     7   8 O        1.704    -0.274    18.546     5.814
     8   6 C        3.643     0.005    20.847     6.564
     9   1 H        0.925     0.039     2.468     2.457
    10   1 H        0.925     0.043     2.405     2.425
    11   1 H        0.925     0.039     2.468     2.457
    12   1 H        0.924     0.040     2.451     2.448
    13   1 H        0.924     0.040     2.455     2.450
    14   1 H        0.924     0.043     2.409     2.427
    15   1 H        0.924     0.045     2.388     2.417
    16   1 H        0.924     0.090     1.880     2.144
    17   1 H        0.924     0.088     1.903     2.157
    18   1 H        0.925     0.096     1.822     2.111
    19   1 H        0.925     0.086     1.915     2.164
    20   1 H        0.924     0.077     2.014     2.219

 Mol. C6AA /au·bohr⁶  :       3000.177975
 Mol. C8AA /au·bohr⁸  :      63883.127872
 Mol. α(0) /au        :         81.004769


Wiberg/Mayer (AO) data.
largest (>0.10) Wiberg bond orders for each atom

 ---------------------------------------------------------------------------
     #   Z sym  total        # sym  WBO       # sym  WBO       # sym  WBO
 ---------------------------------------------------------------------------
     1   6 C    3.995 --     2 C    1.020     9 H    0.988    11 H    0.988
                            10 H    0.987
     2   6 C    3.996 --     1 C    1.020     3 C    1.008    12 H    0.978
                            13 H    0.978
     3   6 C    3.993 --     2 C    1.008     4 C    1.006    14 H    0.977
                            15 H    0.976
     4   6 C    3.990 --     3 C    1.006     5 C    0.982    17 H    0.950
                            16 H    0.944
     5   6 C    3.905 --     6 O    1.698     7 O    1.157     4 C    0.982
     6   8 O    1.982 --     5 C    1.698     7 O    0.170
     7   8 O    2.308 --     5 C    1.157     8 C    0.937     6 O    0.170
     8   6 C    3.901 --    20 H    0.977    18 H    0.975    19 H    0.973
                             7 O    0.937
     9   1 H    0.999 --     1 C    0.988
    10   1 H    0.998 --     1 C    0.987
    11   1 H    0.999 --     1 C    0.988
    12   1 H    0.998 --     2 C    0.978
    13   1 H    0.998 --     2 C    0.978
    14   1 H    0.998 --     3 C    0.977
    15   1 H    0.998 --     3 C    0.976
    16   1 H    0.992 --     4 C    0.944
    17   1 H    0.992 --     4 C    0.950
    18   1 H    0.991 --     8 C    0.975
    19   1 H    0.992 --     8 C    0.973
    20   1 H    0.994 --     8 C    0.977
 ---------------------------------------------------------------------------

Topologies differ in total number of bonds
Writing topology from bond orders to xtbtopo.mol

molecular dipole:
                 x           y           z       tot (Debye)
 q only:        0.153      -0.309       1.010
   full:        0.207      -0.315       1.044       2.822
molecular quadrupole (traceless):
                xx          xy          yy          xz          yz          zz
 q only:       10.456      -0.252      -3.244       1.997       1.117      -7.212
  q+dip:        7.346      -0.277      -0.168       1.910       2.217      -7.179
   full:        8.315      -0.299      -0.563       1.918       2.209      -7.752


           -------------------------------------------------
          | TOTAL ENERGY              -27.117073180714 Eh   |
          | GRADIENT NORM               0.000045776508 Eh/α |
          | HOMO-LUMO GAP               5.053476920555 eV   |
           -------------------------------------------------

------------------------------------------------------------------------
 * finished run on 2025/04/11 at 15:59:02.161     
------------------------------------------------------------------------
 total:
 * wall-time:     0 d,  0 h,  0 min,  0.060 sec
 *  cpu-time:     0 d,  0 h,  0 min,  0.023 sec
 * ratio c/w:     0.381 speedup
 SCF:
 * wall-time:     0 d,  0 h,  0 min,  0.021 sec
 *  cpu-time:     0 d,  0 h,  0 min,  0.015 sec
 * ratio c/w:     0.718 speedup

