20
 energy: -386.242852885715 gnorm: 0.000744148030 xtb: 6.7.1 (edcfbbe)
C           -3.41514025671046       -0.98922648476218        0.23801125123980
C           -2.04916654648358       -0.38003627045293        0.53275655566639
C           -1.30687978767727       -0.01542828917501       -0.76663403823897
C            0.01722161708410        0.61432095358147       -0.45317013497216
O            0.22335367705157        1.81694315807321       -0.38885596672982
O            0.96406189202119       -0.30693499623081       -0.19705182372548
C            2.27769267788578        0.19993222393791        0.20166293713770
C            3.15357440658786       -0.99737452512101        0.46799564841181
H           -3.93522511445132       -1.24733212953931        1.16572871501338
H           -4.04567250121614       -0.28808321184379       -0.31916194881593
H           -3.31581455183548       -1.90190260098603       -0.35937784399503
H           -1.43972957678423       -1.08556381736632        1.10843833394715
H           -2.16386853940561        0.52256034682991        1.14421744052066
H           -1.89588364461166        0.70329188219016       -1.34282616366413
H           -1.15491278989572       -0.91702122207676       -1.36792171414900
H            2.66726555428346        0.82033427999109       -0.61090469010384
H            2.15030216127675        0.82110020213624        1.09296255319562
H            4.14879749058646       -0.65147247728037        0.76317414524666
H            2.74828185534363       -1.60931170560650        1.27873298228012
H            3.25721382520484       -1.61639699393816       -0.42768728884539
20
 energy: -386.242854382005 gnorm: 0.000485659532 xtb: 6.7.1 (edcfbbe)
C           -3.41564926387532       -0.98842595173764        0.23786607704030
C           -2.04948983208338       -0.38016528008666        0.53282840291333
C           -1.30678777072537       -0.01643499865927       -0.76640715499345
C            0.01751084073528        0.61338245113342       -0.45378737740594
O            0.22212855468299        1.81628687084746       -0.38628463774973
O            0.96468547435416       -0.30739748741128       -0.19798303981213
C            2.27798194462905        0.20004091635583        0.20152392117605
C            3.15446753044658       -0.99692180696746        0.46765825846764
H           -3.93601056064707       -1.24593392536766        1.16553475503847
H           -4.04556992575229       -0.28707820993606       -0.31960009698044
H           -3.31664139735700       -1.90123525099929       -0.35920031746613
H           -1.44081073487334       -1.08589688286886        1.10902063667429
H           -2.16382066296024        0.52272917333662        1.14393341282185
H           -1.89557905541169        0.70183598705510       -1.34305367159201
H           -1.15447758143323       -0.91841517780695       -1.36700096135567
H            2.66735946051606        0.82096460443418       -0.61086519190905
H            2.14980455365838        0.82140885703657        1.09286682552006
H            4.14923936078874       -0.65146624060391        0.76389161976445
H            2.74834417345157       -1.60958369839004        1.27763946413321
H            3.25878675996733       -1.61529542933163       -0.42849143466655
20
 energy: -386.242854382005 gnorm: 0.000485659532 xtb: 6.7.1 (edcfbbe)
C           -3.41564926387532       -0.98842595173764        0.23786607704030
C           -2.04948983208338       -0.38016528008666        0.53282840291333
C           -1.30678777072537       -0.01643499865927       -0.76640715499345
C            0.01751084073528        0.61338245113342       -0.45378737740594
O            0.22212855468299        1.81628687084746       -0.38628463774973
O            0.96468547435416       -0.30739748741128       -0.19798303981213
C            2.27798194462905        0.20004091635583        0.20152392117605
C            3.15446753044658       -0.99692180696746        0.46765825846764
H           -3.93601056064707       -1.24593392536766        1.16553475503847
H           -4.04556992575229       -0.28707820993606       -0.31960009698044
H           -3.31664139735700       -1.90123525099929       -0.35920031746613
H           -1.44081073487334       -1.08589688286886        1.10902063667429
H           -2.16382066296024        0.52272917333662        1.14393341282185
H           -1.89557905541169        0.70183598705510       -1.34305367159201
H           -1.15447758143323       -0.91841517780695       -1.36700096135567
H            2.66735946051606        0.82096460443418       -0.61086519190905
H            2.14980455365838        0.82140885703657        1.09286682552006
H            4.14923936078874       -0.65146624060391        0.76389161976445
H            2.74834417345157       -1.60958369839004        1.27763946413321
H            3.25878675996733       -1.61529542933163       -0.42849143466655
