      -----------------------------------------------------------      
     |                   =====================                   |     
     |                           x T B                           |     
     |                   =====================                   |     
     |                         S. Grimme                         |     
     |          Mulliken Center for Theoretical Chemistry        |     
     |                    University of Bonn                     |     
      -----------------------------------------------------------      

   * xtb version 6.7.1 (edcfbbe) compiled by 'albert@albert-system' on 2024-07-22

   xtb is free software: you can redistribute it and/or modify it under
   the terms of the GNU Lesser General Public License as published by
   the Free Software Foundation, either version 3 of the License, or
   (at your option) any later version.
   
   xtb is distributed in the hope that it will be useful,
   but WITHOUT ANY WARRANTY; without even the implied warranty of
   MERCHANTABILITY or FITNESS FOR A PARTICULAR PURPOSE.  See the
   GNU Lesser General Public License for more details.
   
   Cite this work as:
   * C. Bannwarth, E. Caldeweyher, S. Ehlert, A. Hansen, P. Pracht,
     J. Seibert, S. Spicher, S. Grimme, WIREs Comput. Mol. Sci., 2020, 11,
     e01493. DOI: 10.1002/wcms.1493
   
   for GFN2-xTB:
   * C. Bannwarth, S. Ehlert and S. Grimme., J. Chem. Theory Comput., 2019,
     15, 1652-1671. DOI: 10.1021/acs.jctc.8b01176
   for GFN1-xTB:
   * S. Grimme, C. Bannwarth, P. Shushkov, J. Chem. Theory Comput., 2017,
     13, 1989-2009. DOI: 10.1021/acs.jctc.7b00118
   for GFN0-xTB:
   * P. Pracht, E. Caldeweyher, S. Ehlert, S. Grimme, ChemRxiv, 2019, preprint.
     DOI: 10.26434/chemrxiv.8326202.v1
   for GFN-FF:
   * S. Spicher and S. Grimme, Angew. Chem. Int. Ed., 2020, 59, 15665-15673.
     DOI: 10.1002/anie.202004239
   
   for ALPB and GBSA implicit solvation:
   * S. Ehlert, M. Stahn, S. Spicher, S. Grimme, J. Chem. Theory Comput.,
     2021, 17, 4250-4261. DOI: 10.1021/acs.jctc.1c00471
   
   for ddCOSMO and CPCM-X implicit solvation:
   * M. Stahn, S. Ehlert, S. Grimme, J. Phys. Chem. A,
     2023, XX, XXXX-XXXX. DOI: 10.1021/acs.jpca.3c04382
   
   for DFT-D4:
   * E. Caldeweyher, C. Bannwarth and S. Grimme, J. Chem. Phys., 2017,
     147, 034112. DOI: 10.1063/1.4993215
   * E. Caldeweyher, S. Ehlert, A. Hansen, H. Neugebauer, S. Spicher,
     C. Bannwarth and S. Grimme, J. Chem. Phys., 2019, 150, 154122.
     DOI: 10.1063/1.5090222
   * E. Caldeweyher, J.-M. Mewes, S. Ehlert and S. Grimme, Phys. Chem. Chem. Phys.
     2020, 22, 8499-8512. DOI: 10.1039/D0CP00502A
   
   for sTDA-xTB:
   * S. Grimme and C. Bannwarth, J. Chem. Phys., 2016, 145, 054103.
     DOI: 10.1063/1.4959605
   
   in the mass-spec context:
   * V. Asgeirsson, C. Bauer and S. Grimme, Chem. Sci., 2017, 8, 4879.
     DOI: 10.1039/c7sc00601b
   * J. Koopman and S. Grimme, ACS Omega 2019, 4, 12, 15120-15133.
     DOI: 10.1021/acsomega.9b02011
   
   for metadynamics refer to:
   * S. Grimme, J. Chem. Theory Comput., 2019, 155, 2847-2862
     DOI: 10.1021/acs.jctc.9b00143
   
   for SPH calculations refer to:
   * S. Spicher and S. Grimme, J. Chem. Theory Comput., 2021, 17, 1701-1714
     DOI: 10.1021/acs.jctc.0c01306
   
   for ONIOM refer to:
   * C. Plett, A. Katbashev, S. Ehlert, S. Grimme, M. Bursch,
     Phys. Chem. Chem. Phys., 2023, 25, 17860-17868. DOI: 10.1039/D3CP02178E
   
   for DIPRO refer to:
   * J. Kohn, N. Gildemeister, S. Grimme, D. Fazzi, A. Hansen,
     J. Chem. Phys., 2023, just accepted.
   
   for PTB refer to:
   * S. Grimme, M. Mueller, A. Hansen, J. Chem. Phys., 2023, 158, 124111.
     DOI: 10.1063/5.0137838
   
   with help from (in alphabetical order)
   P. Atkinson, C. Bannwarth, F. Bohle, G. Brandenburg, E. Caldeweyher
   M. Checinski, S. Dohm, S. Ehlert, S. Ehrlich, I. Gerasimov, C. Hölzer
   A. Katbashev, J. Kohn, J. Koopman, C. Lavigne, S. Lehtola, F. März, M. Müller,
   F. Musil, H. Neugebauer, J. Pisarek, C. Plett, P. Pracht, F. Pultar,
   J. Seibert, P. Shushkov, S. Spicher, M. Stahn, M. Steiner, T. Strunk,
   J. Stückrath, T. Rose, and J. Unsleber
   
 * started run on 2025/04/11 at 15:56:47.818     
   ID    Z sym.   atoms
    1    6 C      1-7, 9-15, 18, 19
    2    8 O      8, 16, 20
    3    7 N      17
    4    1 H      21-33

           -------------------------------------------------
          |                Calculation Setup                |
           -------------------------------------------------

          program call               : /srv/scratch/z5358697/.xtb/bin/xtb gas.coord --gfn2 --sp --chrg 0 --norestart --parallel 1
          hostname                   : k030
          coordinate file            : gas.coord
          omp threads                :                     1


           -------------------------------------------------
          |                 G F N 2 - x T B                 |
           -------------------------------------------------

        Reference                      10.1021/acs.jctc.8b01176
      * Hamiltonian:
        H0-scaling (s, p, d)           1.850000    2.230000    2.230000
        zeta-weighting                 0.500000
      * Dispersion:
        s8                             2.700000
        a1                             0.520000
        a2                             5.000000
        s9                             5.000000
      * Repulsion:
        kExp                           1.500000    1.000000
        rExp                           1.000000
      * Coulomb:
        alpha                          2.000000
        third order                    shell-resolved
        anisotropic                    true
        a3                             3.000000
        a5                             4.000000
        cn-shift                       1.200000
        cn-exp                         4.000000
        max-rad                        5.000000


          ...................................................
          :                      SETUP                      :
          :.................................................:
          :  # basis functions                  93          :
          :  # atomic orbitals                  93          :
          :  # shells                           53          :
          :  # electrons                       100          :
          :  max. iterations                   250          :
          :  Hamiltonian                  GFN2-xTB          :
          :  restarted?                      false          :
          :  GBSA solvation                  false          :
          :  PC potential                    false          :
          :  electronic temp.          300.0000000     K    :
          :  accuracy                    1.0000000          :
          :  -> integral cutoff          0.2500000E+02      :
          :  -> integral neglect         0.1000000E-07      :
          :  -> SCF convergence          0.1000000E-05 Eh   :
          :  -> wf. convergence          0.1000000E-03 e    :
          :  Broyden damping             0.4000000          :
          :  net charge                          0          :
          :  unpaired electrons                  0          :
          ...................................................

 iter      E             dE          RMSdq      gap      omega  full diag
   1    -56.7094810 -0.567095E+02  0.503E+00    1.07       0.0  T
   2    -56.7932261 -0.837452E-01  0.294E+00    1.67       1.0  T
   3    -56.7805349  0.126912E-01  0.163E+00    1.37       1.0  T
   4    -56.8018212 -0.212863E-01  0.591E-01    1.61       1.0  T
   5    -56.8158696 -0.140484E-01  0.126E-01    1.48       1.0  T
   6    -56.8161634 -0.293795E-03  0.592E-02    1.51       1.0  T
   7    -56.8161974 -0.340343E-04  0.230E-02    1.51       1.0  T
   8    -56.8161983 -0.911115E-06  0.933E-03    1.51       1.9  T
   9    -56.8161993 -0.985341E-06  0.364E-03    1.51       4.8  T
  10    -56.8161994 -0.106250E-06  0.124E-03    1.51      14.1  T
  11    -56.8161994 -0.102315E-08  0.680E-04    1.51      25.6  T
  12    -56.8161994 -0.625386E-08  0.190E-04    1.51      91.4  T

   *** convergence criteria satisfied after 12 iterations ***

         #    Occupation            Energy/Eh            Energy/eV
      -------------------------------------------------------------
         1        2.0000           -0.7031530             -19.1338
       ...           ...                  ...                  ...
        44        2.0000           -0.4298694             -11.6973
        45        2.0000           -0.4217308             -11.4759
        46        2.0000           -0.4172070             -11.3528
        47        2.0000           -0.4166933             -11.3388
        48        2.0000           -0.3966680             -10.7939
        49        2.0000           -0.3795997             -10.3294
        50        2.0000           -0.3704987             -10.0818 (HOMO)
        51                         -0.3151825              -8.5766 (LUMO)
        52                         -0.2648724              -7.2075
        53                         -0.2383807              -6.4867
        54                         -0.2264984              -6.1633
        55                         -0.1805972              -4.9143
       ...                                ...                  ...
        93                          0.7172960              19.5186
      -------------------------------------------------------------
                  HL-Gap            0.0553162 Eh            1.5052 eV
             Fermi-level           -0.3428406 Eh           -9.3292 eV

 SCC (total)                   0 d,  0 h,  0 min,  0.074 sec
 SCC setup                      ...        0 min,  0.000 sec (  0.394%)
 Dispersion                     ...        0 min,  0.000 sec (  0.495%)
 classical contributions        ...        0 min,  0.000 sec (  0.069%)
 integral evaluation            ...        0 min,  0.006 sec (  8.260%)
 iterations                     ...        0 min,  0.047 sec ( 64.088%)
 molecular gradient             ...        0 min,  0.019 sec ( 26.306%)
 printout                       ...        0 min,  0.000 sec (  0.368%)

         :::::::::::::::::::::::::::::::::::::::::::::::::::::
         ::                     SUMMARY                     ::
         :::::::::::::::::::::::::::::::::::::::::::::::::::::
         :: total energy             -55.999134062201 Eh    ::
         :: gradient norm              0.031883883396 Eh/a0 ::
         :: HOMO-LUMO gap              1.505230086823 eV    ::
         ::.................................................::
         :: SCC energy               -56.816179846145 Eh    ::
         :: -> isotropic ES            0.084490878900 Eh    ::
         :: -> anisotropic ES          0.000495076019 Eh    ::
         :: -> anisotropic XC          0.018222592631 Eh    ::
         :: -> dispersion             -0.036557652123 Eh    ::
         :: repulsion energy           0.817045783944 Eh    ::
         :: add. restraining           0.000000000000 Eh    ::
         :: total charge               0.000000000000 e     ::
         :::::::::::::::::::::::::::::::::::::::::::::::::::::

           -------------------------------------------------
          |                Property Printout                |
           -------------------------------------------------

    * Orbital Energies and Occupations

         #    Occupation            Energy/Eh            Energy/eV
      -------------------------------------------------------------
         1        2.0000           -0.7031530             -19.1338
       ...           ...                  ...                  ...
        38        2.0000           -0.4672864             -12.7155
        39        2.0000           -0.4551260             -12.3846
        40        2.0000           -0.4517111             -12.2917
        41        2.0000           -0.4508793             -12.2691
        42        2.0000           -0.4443964             -12.0926
        43        2.0000           -0.4314922             -11.7415
        44        2.0000           -0.4298694             -11.6973
        45        2.0000           -0.4217308             -11.4759
        46        2.0000           -0.4172070             -11.3528
        47        2.0000           -0.4166933             -11.3388
        48        2.0000           -0.3966680             -10.7939
        49        2.0000           -0.3795997             -10.3294
        50        2.0000           -0.3704987             -10.0818 (HOMO)
        51                         -0.3151825              -8.5766 (LUMO)
        52                         -0.2648724              -7.2075
        53                         -0.2383807              -6.4867
        54                         -0.2264984              -6.1633
        55                         -0.1805972              -4.9143
        56                         -0.1753956              -4.7728
        57                         -0.1061776              -2.8892
        58                         -0.0551426              -1.5005
        59                          0.0027279               0.0742
        60                          0.0398878               1.0854
        61                          0.0698804               1.9015
       ...                                ...                  ...
        93                          0.7172960              19.5186
      -------------------------------------------------------------
                  HL-Gap            0.0553162 Eh            1.5052 eV
             Fermi-level           -0.3428406 Eh           -9.3292 eV

     #   Z          covCN         q      C6AA      α(0)
     1   6 C        2.917    -0.023    28.570     8.765
     2   6 C        2.918    -0.022    28.554     8.763
     3   6 C        2.924    -0.017    28.437     8.745
     4   6 C        2.976    -0.009    28.227     8.715
     5   6 C        2.976    -0.013    28.336     8.732
     6   6 C        2.923    -0.016    28.420     8.742
     7   6 C        2.836     0.221    23.355     7.920
     8   8 O        0.858    -0.380    21.284     6.185
     9   6 C        2.972    -0.012    28.320     8.729
    10   6 C        2.925    -0.031    28.772     8.796
    11   6 C        2.912    -0.022    28.551     8.762
    12   6 C        2.919    -0.053    29.316     8.879
    13   6 C        2.896     0.091    25.970     8.355
    14   6 C        2.971    -0.053    29.301     8.879
    15   6 C        2.830     0.213    23.508     7.945
    16   8 O        0.858    -0.428    22.246     6.324
    17   7 N        2.693    -0.149    24.220     7.309
    18   6 C        3.734    -0.010    20.839     6.515
    19   6 C        3.675     0.070    19.620     6.347
    20   8 O        1.655    -0.431    21.457     6.253
    21   1 H        0.926     0.044     2.395     2.420
    22   1 H        0.926     0.044     2.396     2.421
    23   1 H        0.926     0.066     2.126     2.280
    24   1 H        0.926     0.065     2.136     2.285
    25   1 H        0.926     0.065     2.142     2.289
    26   1 H        0.926     0.042     2.417     2.431
    27   1 H        0.926     0.035     2.510     2.478
    28   1 H        0.860     0.227     0.979     1.550
    29   1 H        0.924     0.048     2.345     2.395
    30   1 H        0.925     0.054     2.274     2.358
    31   1 H        0.924     0.065     2.138     2.286
    32   1 H        0.924     0.028     2.617     2.530
    33   1 H        0.805     0.288     0.758     1.367

 Mol. C6AA /au·bohr⁶  :      14364.631062
 Mol. C8AA /au·bohr⁸  :     352457.119809
 Mol. α(0) /au        :        188.750974


Wiberg/Mayer (AO) data.
largest (>0.10) Wiberg bond orders for each atom

 ---------------------------------------------------------------------------
     #   Z sym  total        # sym  WBO       # sym  WBO       # sym  WBO
 ---------------------------------------------------------------------------
     1   6 C    3.985 --     6 C    1.449     2 C    1.422    21 H    0.970
     2   6 C    3.987 --     3 C    1.447     1 C    1.422    22 H    0.970
     3   6 C    3.983 --     2 C    1.447     4 C    1.392    23 H    0.964
     4   6 C    3.988 --     3 C    1.392     5 C    1.332    15 C    1.036
     5   6 C    3.989 --     6 C    1.387     4 C    1.332     7 C    1.043
     6   6 C    3.985 --     1 C    1.449     5 C    1.387    24 H    0.964
     7   6 C    3.937 --     8 O    1.749     5 C    1.043     9 C    1.038
     8   8 O    2.027 --     7 C    1.749
     9   6 C    3.988 --    10 C    1.434    14 C    1.293     7 C    1.038
    10   6 C    3.982 --     9 C    1.434    11 C    1.362    25 H    0.964
    11   6 C    3.989 --    12 C    1.522    10 C    1.362    26 H    0.969
    12   6 C    3.986 --    11 C    1.522    13 C    1.262    27 H    0.962
    13   6 C    3.971 --    17 N    1.300    12 C    1.262    14 C    1.240
    14   6 C    3.979 --     9 C    1.293    13 C    1.240    15 C    1.131
    15   6 C    3.945 --    16 O    1.644    14 C    1.131     4 C    1.036
    16   8 O    2.025 --    15 C    1.644
    17   7 N    3.476 --    13 C    1.300    18 C    1.010    28 H    0.869
    18   6 C    3.979 --    17 N    1.010    19 C    0.982    30 H    0.963
                            29 H    0.963
    19   6 C    3.956 --    20 O    1.008    18 C    0.982    32 H    0.969
                            31 H    0.969
    20   8 O    1.970 --    19 C    1.008    33 H    0.903
    21   1 H    0.997 --     1 C    0.970
    22   1 H    0.997 --     2 C    0.970
    23   1 H    0.995 --     3 C    0.964
    24   1 H    0.995 --     6 C    0.964
    25   1 H    0.995 --    10 C    0.964
    26   1 H    0.997 --    11 C    0.969
    27   1 H    0.998 --    12 C    0.962
    28   1 H    0.948 --    17 N    0.869
    29   1 H    0.996 --    18 C    0.963
    30   1 H    0.997 --    18 C    0.963
    31   1 H    0.996 --    19 C    0.969
    32   1 H    0.998 --    19 C    0.969
    33   1 H    0.917 --    20 O    0.903
 ---------------------------------------------------------------------------

Topologies differ in total number of bonds
Writing topology from bond orders to xtbtopo.mol

molecular dipole:
                 x           y           z       tot (Debye)
 q only:        1.475      -0.302       0.307
   full:        1.652      -0.193       0.349       4.320
molecular quadrupole (traceless):
                xx          xy          yy          xz          yz          zz
 q only:       19.633      13.586     -12.257       4.232      -1.153      -7.376
  q+dip:       26.229      18.079     -11.798       5.452      -2.157     -14.430
   full:       23.200      17.752     -15.412       3.896      -1.777      -7.787


           -------------------------------------------------
          | TOTAL ENERGY              -55.999134062201 Eh   |
          | GRADIENT NORM               0.031883883396 Eh/α |
          | HOMO-LUMO GAP               1.505230086823 eV   |
           -------------------------------------------------

------------------------------------------------------------------------
 * finished run on 2025/04/11 at 15:56:47.950     
------------------------------------------------------------------------
 total:
 * wall-time:     0 d,  0 h,  0 min,  0.132 sec
 *  cpu-time:     0 d,  0 h,  0 min,  0.062 sec
 * ratio c/w:     0.471 speedup
 SCF:
 * wall-time:     0 d,  0 h,  0 min,  0.074 sec
 *  cpu-time:     0 d,  0 h,  0 min,  0.049 sec
 * ratio c/w:     0.659 speedup

