20
 energy: -27.121829690800 gnorm: 0.035070709588 xtb: 6.7.1 (edcfbbe)
C           -3.36799552453283       -1.07648964495350        0.23212409477729
C           -1.97055654817664       -0.73428069829883       -0.27315589196998
C           -1.35591360571772        0.42792047900689        0.52726711262221
C            0.00213138189361        0.78440281713202       -0.00118273926475
O            0.25262884743285        1.76009216771104       -0.69205641906540
O            0.92990738180151       -0.12728503321189        0.34368082325288
C            2.27488062600640        0.08168493624046       -0.19187472283215
C            3.11662046249013       -1.09427162058968        0.23656490417644
H           -4.04108561098676       -0.21803970059063        0.13682309012284
H           -3.79573177065247       -1.90629801182682       -0.33871921350845
H           -3.34078866607594       -1.36923038582408        1.28710789332957
H           -2.01274535851675       -0.45550512810815       -1.33261557014567
H           -1.31841157387474       -1.61049255544257       -0.19444521968089
H           -1.27162714395105        0.14205224161412        1.58099954605107
H           -1.99007616090062        1.31459351542002        0.44965108625114
H            2.20324872541314        0.15632931352403       -1.28078182167382
H            2.65893468389956        1.02611590167319        0.20483302385030
H            3.16972530516696       -1.16526780331622        1.32660709455259
H            2.71706690431300       -2.03057603746761       -0.16322647971433
H            4.13119483334597       -0.96068109187420       -0.14927135688188
20
 energy: -27.122889986571 gnorm: 0.013495403316 xtb: 6.7.1 (edcfbbe)
C           -3.36183907158757       -1.07340556955642        0.23383656298817
C           -1.96794613017878       -0.73148059300491       -0.27235680365934
C           -1.35677719468401        0.42782361547966        0.52911508834151
C            0.00042426205532        0.77601359812694       -0.01091367062868
O            0.25012595934244        1.74889630281936       -0.69350694855083
O            0.92451387162391       -0.12421246735264        0.32949879034999
C            2.26531423477433        0.07634426206965       -0.18750689849087
C            3.12077171334751       -1.09619871893823        0.23653418431281
H           -4.02791431741020       -0.21728054006770        0.13671012424816
H           -3.78009077344533       -1.89849409892813       -0.33978444120763
H           -3.32952236442360       -1.36580615422109        1.28231422270204
H           -2.01702483720064       -0.44923830278361       -1.32767105695064
H           -1.31658000261257       -1.60433341177450       -0.18813623929557
H           -1.26125202237256        0.13356537434504        1.57598048451057
H           -1.99261993669217        1.31140154653783        0.45260651684646
H            2.19483540708599        0.15991638627023       -1.27543195172066
H            2.64159362234616        1.02299844965552        0.20990663928582
H            3.15899475443881       -1.16538020779895        1.32122818838855
H            2.71518389504095       -2.02438603974484       -0.15936077748680
H            4.13121611892963       -0.96196977031562       -0.14473277973406
20
 energy: -27.123074822920 gnorm: 0.004643973176 xtb: 6.7.1 (edcfbbe)
C           -3.35772835128616       -1.07388997967747        0.23432720590592
C           -1.96357723023774       -0.73043794422244       -0.27166115606075
C           -1.35363808037720        0.42701185101444        0.53196311279154
C            0.00422405297567        0.77590353884171       -0.01087717628005
O            0.24998148215733        1.74337961499960       -0.70088522665256
O            0.92219705544266       -0.12233918741528        0.32089002201745
C            2.25663413196429        0.07523983920353       -0.18797822796615
C            3.11470658544830       -1.09817457594576        0.23840395911344
H           -4.01965543438640       -0.21780399944270        0.13755270542386
H           -3.77246530907895       -1.89631340675040       -0.34105846216438
H           -3.32230709659538       -1.36622961271857        1.27984378775357
H           -2.01486203793118       -0.44560573814980       -1.32463378963626
H           -1.31227261421958       -1.60134997751472       -0.18621294952079
H           -1.25224401582735        0.12849427565275        1.57498892228121
H           -1.98969875938538        1.30887485793190        0.45637160999660
H            2.19403915541706        0.16371193232253       -1.27692392775487
H            2.63373590059697        1.02184553179156        0.21071883714090
H            3.14513384016638       -1.16442676928954        1.32131203601513
H            2.70723718029811       -2.02283534314568       -0.15751915635179
H            4.12196673323614       -0.96028124666811       -0.14029289180301
20
 energy: -27.123102364610 gnorm: 0.001662072413 xtb: 6.7.1 (edcfbbe)
C           -3.35593312206955       -1.07473500099766        0.23495756713104
C           -1.96167797131675       -0.72950122491355       -0.27195196912393
C           -1.35217547128947        0.42679481505890        0.53390074248040
C            0.00408704944035        0.77445670403424       -0.01612657641881
O            0.24739727294975        1.74460883972095       -0.70524333597961
O            0.92157299352701       -0.12133420201127        0.31617974122311
C            2.25419117414993        0.07631104931945       -0.18864039716361
C            3.11027945433069       -1.09889636245870        0.24025602534313
H           -4.01782280676817       -0.21830907101693        0.13992004689489
H           -3.77021860450286       -1.89640065918529       -0.34192916812309
H           -3.31897447016973       -1.36876033252508        1.28005082705515
H           -2.01363440769353       -0.44258902744353       -1.32421917562050
H           -1.30989802816286       -1.60020322914543       -0.18865330531198
H           -1.24603461889317        0.12522165441735        1.57547895801042
H           -1.98814008404744        1.30880928917257        0.46264790820101
H            2.19792766615769        0.16493093447517       -1.27849914712780
H            2.63365284072458        1.02268907038579        0.20995221624827
H            3.13672540450075       -1.16432330498811        1.32343962707472
H            2.70198322057130       -2.02277451906764       -0.15711576011749
H            4.11809969693909       -0.96122176201365       -0.13607559042631
20
 energy: -27.123075470740 gnorm: 0.005780368630 xtb: 6.7.1 (edcfbbe)
C           -3.35322846409335       -1.07601216891994        0.23590523818272
C           -1.95881957903324       -0.72808900719371       -0.27238999036954
C           -1.34997257270979        0.42647086867181        0.53681575456582
C            0.00388339911685        0.77230022492605       -0.02401034690952
O            0.24349875087598        1.74646417387207       -0.71181054479265
O            0.92063695211330       -0.11980949205299        0.30909296923758
C            2.25051868585640        0.07792350341882       -0.18964358058923
C            3.10361243047708       -1.09998473387380        0.24304479307806
H           -4.01506735122267       -0.21907689093990        0.14348880100786
H           -3.76683683394952       -1.89653725387802       -0.34324102382964
H           -3.31395349076212       -1.37257839968125        1.28036131516945
H           -2.01178907030559       -0.43804432895412       -1.32359570813354
H           -1.30632107757671       -1.59847404188020       -0.19233064130938
H           -1.23668864034522        0.12029874960711        1.57621545248570
H           -1.98579965062292        1.30870884315222        0.47209586003915
H            2.20378332176096        0.16676152709722       -1.28087599522941
H            2.63353793546984        1.02395724854012        0.20878882711884
H            3.12406121854279       -1.16416858295294        1.32664388136201
H            2.69406947718489       -2.02268528756340       -0.15650573473155
H            4.11228174760065       -0.96265129057757       -0.12972009210369
20
 energy: -27.123109181502 gnorm: 0.002583887713 xtb: 6.7.1 (edcfbbe)
C           -3.35367951528498       -1.07660132871395        0.23549284004387
C           -1.95975265505059       -0.72804582575656       -0.27241914594979
C           -1.35042421389858        0.42706243351054        0.53573132098010
C            0.00416678172322        0.77651372214845       -0.01915762758698
O            0.24273484615548        1.74722932869500       -0.71132641817890
O            0.92159019385997       -0.11817082027149        0.31168421170106
C            2.25263965760278        0.07762598147194       -0.19049266283413
C            3.10490122215405       -1.09998470789724        0.24249420006377
H           -4.01667689675727       -0.22014094257242        0.14358621150017
H           -3.76800364221098       -1.89757953907864       -0.34305903814127
H           -3.31464899096864       -1.37325090778171        1.28025771848856
H           -2.01276374650900       -0.43856016778053       -1.32404573111437
H           -1.30690007747071       -1.59846103610387       -0.19237663284931
H           -1.23931295020451        0.12220513599937        1.57589109711320
H           -1.98747637157206        1.30854337647757        0.46997972556986
H            2.20300948197458        0.16541328957309       -1.28126864638359
H            2.63574247158555        1.02348830672385        0.20743016110425
H            3.12634544198929       -1.16449782368206        1.32625471369106
H            2.69529441407534       -2.02319804708147       -0.15632235287666
H            4.11462173718467       -0.96481676706229       -0.13000471009191
20
 energy: -27.123116625939 gnorm: 0.000391234706 xtb: 6.7.1 (edcfbbe)
C           -3.35335061546720       -1.07718306195663        0.23558968079972
C           -1.96062374419802       -0.72728768238996       -0.27294813391893
C           -1.35060354399983        0.42741355987627        0.53511671798294
C            0.00364446137311        0.77884882733454       -0.01805145099848
O            0.24152253620164        1.74806100394083       -0.71133837795974
O            0.92238874127142       -0.11617170637240        0.31311191193899
C            2.25465123399589        0.07775055610118       -0.19124919003357
C            3.10523104420426       -1.10002357390368        0.24271805465889
H           -4.01779474236530       -0.22157402051724        0.14530749844754
H           -3.76797141098053       -1.89807855872937       -0.34304026856309
H           -3.31370079820696       -1.37496932838173        1.28011258503876
H           -2.01464317260168       -0.43725399430201       -1.32454907836412
H           -1.30714944991453       -1.59752952141750       -0.19418591943205
H           -1.23990138239235        0.12232079872279        1.57542684813112
H           -1.98866114549648        1.30841039590479        0.47017260874147
H            2.20250824529936        0.16379367060173       -1.28166131258567
H            2.63792353930954        1.02363121213289        0.20569366721437
H            3.12646802491778       -1.16468365407454        1.32649765148871
H            2.69543101785078       -2.02337328095961       -0.15568010812758
H            4.11603834957671       -0.96732798079276       -0.12871415021028
20
 energy: -27.123119589051 gnorm: 0.000482373821 xtb: 6.7.1 (edcfbbe)
C           -3.35194739623034       -1.07826366225505        0.23613352291159
C           -1.96063271687526       -0.72588092868555       -0.27390237145977
C           -1.35012948763790        0.42771094102978        0.53535091404678
C            0.00330380445488        0.78066579777928       -0.01868058575985
O            0.23984228532305        1.74846673731647       -0.71394786645032
O            0.92270611352849       -0.11368965665677        0.31318022673016
C            2.25521504058834        0.07803115985157       -0.19215396599314
C            3.10363769567981       -1.10042742471120        0.24382618559229
H           -4.01765742463565       -0.22336265845367        0.14882012134778
H           -3.76658973096937       -1.89841422934948       -0.34350474485996
H           -3.31031056194015       -1.37827332288200        1.27992355178793
H           -2.01661757757454       -0.43378291023698       -1.32485715184393
H           -1.30620508548616       -1.59569652865660       -0.19797377616961
H           -1.23788608113162        0.12079106105931        1.57495345180956
H           -1.98893311473714        1.30835555977320        0.47287945561561
H            2.20265229519295        0.16234166229245       -1.28258371165238
H            2.63965346870839        1.02390759082100        0.20345175312007
H            3.12260149049315       -1.16449250917943        1.32764911458461
H            2.69322320359652       -2.02342736010568       -0.15466549234508
H            4.11548096803017       -0.96978565793305       -0.12556939676333
20
 energy: -27.123123182548 gnorm: 0.000360449796 xtb: 6.7.1 (edcfbbe)
C           -3.34986307877200       -1.07976160726506        0.23704267816914
C           -1.96040077224760       -0.72368649625616       -0.27535483744515
C           -1.34934072943049        0.42811863512114        0.53607562662441
C            0.00277387954346        0.78192568621031       -0.02085743537783
O            0.23770777730288        1.74784745261180       -0.71917126978985
O            0.92299744765901       -0.11045355228776        0.31362307630337
C            2.25541318726239        0.07862717543572       -0.19282028149917
C            3.10102014739006       -1.10105615232591        0.24546740595415
H           -4.01707883052910       -0.22565540224631        0.15395677959316
H           -3.76449198338121       -1.89873885604513       -0.34421068340533
H           -3.30515234268866       -1.38294332962423        1.27974288813929
H           -2.01928073608075       -0.42835049200202       -1.32520810171842
H           -1.30455263596121       -1.59281394629126       -0.20373089629270
H           -1.23434394076990        0.11817158278122        1.57441057914395
H           -1.98877581991931        1.30852017684660        0.47737618459710
H            2.20257561397948        0.16089834283153       -1.28339405734973
H            2.64175227582437        1.02447046838912        0.20094836227517
H            3.11637273425279       -1.16471177044005        1.32932854287987
H            2.68998648226517       -2.02335105046085       -0.15396110429655
H            4.11408851267824       -0.97228320416513       -0.12093422225587
20
 energy: -27.123125911329 gnorm: 0.000183716281 xtb: 6.7.1 (edcfbbe)
C           -3.34804527956180       -1.08128671351201        0.23807016974875
C           -1.96063211967793       -0.72106344475037       -0.27723843729667
C           -1.34873174132800        0.42869423187317        0.53662022434491
C            0.00245356844936        0.78263792504558       -0.02253694489012
O            0.23592455165858        1.74560880748793       -0.72552403972901
O            0.92342229617301       -0.10744524404255        0.31547007387428
C            2.25536348314051        0.07893776396221       -0.19286190303084
C            3.09909037900195       -1.10160633148110        0.24702738581275
H           -4.01685787046399       -0.22794148847289        0.16007480333761
H           -3.76295504261361       -1.89888585849471       -0.34492036634035
H           -3.29951387776493       -1.38816392281282        1.27952885768881
H           -2.02293474686104       -0.42193670804685       -1.32580926259494
H           -1.30328001750639       -1.58947747136612       -0.21066441819700
H           -1.23145963617605        0.11573713516152        1.57370908234000
H           -1.98838782424402        1.30908758048987        0.48135575979203
H            2.20163478792585        0.15946898129973       -1.28355528279341
H            2.64372181508332        1.02476583860839        0.19893920748305
H            3.11147408766594       -1.16518016387349        1.33092145760647
H            2.68801516721093       -2.02343835441163       -0.15343229843947
H            4.11310520826593       -0.97373890184627       -0.11684483446785
20
 energy: -27.123128496352 gnorm: 0.000241118899 xtb: 6.7.1 (edcfbbe)
C           -3.34675301616851       -1.08263243091556        0.23932848162449
C           -1.96185081324930       -0.71802729973617       -0.27963578034613
C           -1.34834345518210        0.42912279222005        0.53681585344375
C            0.00213084738588        0.78227973132469       -0.02436366561843
O            0.23440239774399        1.74163654459144       -0.73265336264002
O            0.92420725222955       -0.10477986121986        0.31870040965439
C            2.25562500682437        0.07913489806318       -0.19203532900652
C            3.09831786613846       -1.10189326866240        0.24850401284299
H           -4.01723795905330       -0.23006613920080        0.16754678520180
H           -3.76243400806212       -1.89841160701594       -0.34564970531452
H           -3.29370856493250       -1.39396223369773        1.27925459181220
H           -2.02832150917492       -0.41449846526444       -1.32668712303790
H           -1.30304712915229       -1.58581542906212       -0.21912334212407
H           -1.22955442163373        0.11308424573767        1.57276147511577
H           -1.98754622882020        1.30998520573380        0.48471995870386
H            2.20011461056452        0.15805453323349       -1.28275541229151
H            2.64586378042959        1.02500239092090        0.19775068304296
H            3.10885969792211       -1.16577902416828        1.33238670902064
H            2.68774573575505       -2.02354639400563       -0.15290538213180
H            4.11293709881306       -0.97411452805871       -0.11363062370289
20
 energy: -27.123131453208 gnorm: 0.000271735494 xtb: 6.7.1 (edcfbbe)
C           -3.34568882523149       -1.08418046389178        0.24128656326364
C           -1.96441954957806       -0.71379862203430       -0.28340153876825
C           -1.34782345311746        0.42916959800700        0.53679596233616
C            0.00203437185829        0.78095960330495       -0.02656483871249
O            0.23232319304462        1.73449024115748       -0.74350673370213
O            0.92564567291329       -0.10163732422995        0.32362983901309
C            2.25607220067760        0.07936408170099       -0.19021024051209
C            3.09833401987006       -1.10196452558409        0.25054544591874
H           -4.01804325954182       -0.23230237183214        0.17925134630948
H           -3.76328972940533       -1.89676351708439       -0.34676840062927
H           -3.28580263361222       -1.40246678087183        1.27876841194369
H           -2.03723930316559       -0.40359108874315       -1.32808560469042
H           -1.30395127677185       -1.58098553667556       -0.23216703440462
H           -1.22745164135250        0.10877777508189        1.57117126367033
H           -1.98569874069855        1.31118699372762        0.48892234988670
H            2.19843956748100        0.15681270195887       -1.28097745640601
H            2.64865831432447        1.02521379042788        0.19730446836009
H            3.10745246349622       -1.16633191519807        1.33442358800181
H            2.68852001489818       -2.02353698456772       -0.15182668545323
H            4.11333578228880       -0.97364199383614       -0.11026147117618
20
 energy: -27.123133589307 gnorm: 0.000254204332 xtb: 6.7.1 (edcfbbe)
C           -3.34574586378203       -1.08507804719451        0.24324401176023
C           -1.96799193172256       -0.71005881075300       -0.28727073867575
C           -1.34734596986517        0.42835425217426        0.53630972328534
C            0.00198084770100        0.77845602551105       -0.02913278590439
O            0.23046911470581        1.72683606047402       -0.75334359532027
O            0.92745756972651       -0.09949803413857        0.32813807850800
C            2.25727224132911        0.07985168183946       -0.18794088559116
C            3.09970134893776       -1.10150028126984        0.25241944026146
H           -4.01916817178592       -0.23335575333086        0.19122376076621
H           -3.76631911144567       -1.89399718344285       -0.34778283244127
H           -3.27922938567781       -1.41045717097175        1.27814848459926
H           -2.04700830175080       -0.39342959264521       -1.32957946414289
H           -1.30659018192086       -1.57708155701956       -0.24523573469944
H           -1.22573115544564        0.10376729747875        1.56923099430049
H           -1.98345936780549        1.31188320204588        0.49261558448648
H            2.19781795500000        0.15646288192982       -1.27866824926094
H            2.65118882462530        1.02570371912318        0.19819153735442
H            3.10904710560577       -1.16615467610250        1.33628877793879
H            2.69039828736806       -2.02325386764086       -0.15010198926743
H            4.11466333458025       -0.97267648524933       -0.10842488370812
20
 energy: -27.123135040406 gnorm: 0.000170635619 xtb: 6.7.1 (edcfbbe)
C           -3.34646408171302       -1.08508969187353        0.24446420143652
C           -1.97066521868828       -0.70828159270248       -0.28974288360915
C           -1.34693653763462        0.42700596402598        0.53581231337725
C            0.00213397152866        0.77639782542579       -0.03069343376225
O            0.22920408569078        1.72163087789652       -0.75945423838065
O            0.92876277868410       -0.09870859258133        0.33032278799477
C            2.25831534832983        0.08041193662559       -0.18627340935057
C            3.10122033556129       -1.10082465811770        0.25356762800955
H           -4.01971336868997       -0.23294657376378        0.19896817137643
H           -3.76970724775902       -1.89115782218629       -0.34852867633322
H           -3.27599617905359       -1.41519072759001        1.27754147815957
H           -2.05336957603513       -0.38772095160206       -1.33048438982597
H           -1.30936669193554       -1.57558949443841       -0.25336685602315
H           -1.22452795591732        0.09976670776291        1.56778121742347
H           -1.98167963320072        1.31164261844303        0.49486087787742
H            2.19855815490866        0.15719037196796       -1.27697548434143
H            2.65248599140606        1.02618736564035        0.19983327505309
H            3.11202735097556       -1.16508957020471        1.33745803299904
H            2.69140983846317       -2.02274176701554       -0.14807358899438
H            4.11571582345674       -0.97211856489469       -0.10868778883730
20
 energy: -27.123136470247 gnorm: 0.000121266442 xtb: 6.7.1 (edcfbbe)
C           -3.34788408147501       -1.08450245873276        0.24524190777970
C           -1.97316895961336       -0.70758569649696       -0.29158072383660
C           -1.34646755129512        0.42507213356928        0.53527232669604
C            0.00227499233314        0.77420630822087       -0.03221394891139
O            0.22809351887564        1.71757645818783       -0.76365596027502
O            0.93005788292634       -0.09863023763620        0.33138326845359
C            2.25973042903467        0.08123662422781       -0.18487453904895
C            3.10309374978782       -1.09985071397284        0.25442381505308
H           -4.02009031104062       -0.23132588568087        0.20479865600935
H           -3.77404721806137       -1.88788715874166       -0.34933477285194
H           -3.27484319891442       -1.41841001081878        1.27687361704512
H           -2.05821440730047       -0.38429376868654       -1.33123360258548
H           -1.31263254439374       -1.57559683818735       -0.25910540150887
H           -1.22316662906709        0.09573329453320        1.56647444959843
H           -1.98016622519430        1.31060111385457        0.49676290895797
H            2.20021487025027        0.15864319450839       -1.27552218177849
H            2.65330883085227        1.02694328361516        0.20199240057049
H            3.11669300108342       -1.16301758864227        1.33836283352317
H            2.69183695157078       -2.02202268310055       -0.14518520518798
H            4.11678408801878       -0.97211570920273       -0.11055061345320
20
 energy: -27.123137595613 gnorm: 0.000127260682 xtb: 6.7.1 (edcfbbe)
C           -3.34948968812938       -1.08358517352082        0.24582280076497
C           -1.97550609337322       -0.70719039980813       -0.29332155940238
C           -1.34577764920941        0.42267226697749        0.53506736201432
C            0.00235711580038        0.77198604130153       -0.03386531659850
O            0.22655148535985        1.71342518927780       -0.76838817560290
O            0.93141611797516       -0.09842657561516        0.33226162171635
C            2.26118219136082        0.08223218939197       -0.18362492747143
C            3.10493687583057       -1.09866878381673        0.25538645167652
H           -4.02025656064370       -0.22902395818838        0.21033846647494
H           -3.77873821732874       -1.88397305472202       -0.35057280909116
H           -3.27431573631746       -1.42146018091359        1.27603116488023
H           -2.06250335503989       -0.38114371852393       -1.33197784885790
H           -1.31604673427903       -1.57620570407772       -0.26453311062956
H           -1.22093760473958        0.09079911301345        1.56527446598713
H           -1.97866495893253        1.30893279932330        0.49964444433241
H            2.20202384613761        0.16012066794003       -1.27424047799418
H            2.65417933504518        1.02792764367603        0.20388163763800
H            3.12172340119714       -1.15997798051051        1.33938819566600
H            2.69161026366094       -2.02113659561572       -0.14139792259434
H            4.11766315400292       -0.97253012477129       -0.11284522865949
20
 energy: -27.123138236255 gnorm: 0.000100112692 xtb: 6.7.1 (edcfbbe)
C           -3.35094698777217       -1.08266902393584        0.24584502410922
C           -1.97713963061368       -0.70704215652551       -0.29430319059065
C           -1.34506773768309        0.42059983443351        0.53530590244295
C            0.00240640728142        0.77018469348532       -0.03501595027462
O            0.22526028185552        1.71016115995205       -0.77173234560964
O            0.93257783745884       -0.09818032026642        0.33301276169614
C            2.26222606297905        0.08298294258702       -0.18307391992580
C            3.10636551427545       -1.09756213121679        0.25618680830711
H           -4.02024424138763       -0.22687832471517        0.21351597766495
H           -3.78248849985053       -1.88082352167459       -0.35184641234107
H           -3.27479682308955       -1.42315913675487        1.27507592303723
H           -2.06490328459534       -0.37913385684750       -1.33227537662135
H           -1.31879886327018       -1.57695035389371       -0.26780269181030
H           -1.21871498899068        0.08651724992006        1.56457446787190
H           -1.97753604981590        1.30724743226883        0.50261891789263
H            2.20297466744928        0.16074309191926       -1.27369066633314
H            2.65478673685812        1.02887222121493        0.20437990225966
H            3.12579563331452       -1.15691296869528        1.34025523720861
H            2.69141874323059       -2.02045381138911       -0.13790062316487
H            4.11823241074359       -0.97276935904859       -0.11480051156992
20
 energy: -27.123138768163 gnorm: 0.000090019499 xtb: 6.7.1 (edcfbbe)
C           -3.35236989186317       -1.08146892743181        0.24561341760535
C           -1.97844787460318       -0.70698669425071       -0.29508764941161
C           -1.34438830696357        0.41843862509263        0.53606692324366
C            0.00229526150306        0.76844343104459       -0.03585230188537
O            0.22359312735088        1.70674955725313       -0.77521275927811
O            0.93372764747297       -0.09778412784501        0.33410031403864
C            2.26307922501996        0.08356214357851       -0.18281461674568
C            3.10781330159541       -1.09635250872934        0.25697711063246
H           -4.02033299379396       -0.22452075352350        0.21578414237638
H           -3.78573774939310       -1.87760278501189       -0.35343280269664
H           -3.27578370254697       -1.42438345570341        1.27403272531500
H           -2.06656792488438       -0.37714092366787       -1.33244805908958
H           -1.32128315566629       -1.57788275314269       -0.27059404922705
H           -1.21640297006291        0.08207312520816        1.56436954627909
H           -1.97652614462833        1.30541736522558        0.50622620959238
H            2.20326287998800        0.16044032257406       -1.27345265418665
H            2.65543472846737        1.02989822464298        0.20374353872225
H            3.12950303333590       -1.15356207936471        1.34111495431618
H            2.69159700855985       -2.01982957533672       -0.13439180116063
H            4.11894168949010       -0.97273454979438       -0.11641295419103
20
 energy: -27.123139307013 gnorm: 0.000097738761 xtb: 6.7.1 (edcfbbe)
C           -3.35374685170395       -1.08037986566505        0.24507446808336
C           -1.97948147130387       -0.70681226731865       -0.29543835971054
C           -1.34367615715194        0.41655301136755        0.53721372729187
C            0.00222046856299        0.76684943776685       -0.03633118585437
O            0.22199205091023        1.70345778656040       -0.77831071697937
O            0.93484629662031       -0.09734903249093        0.33534781242118
C            2.26366689907132        0.08389740777906       -0.18293478584143