
                                 *****************
                                 * O   R   C   A *
                                 *****************

                                            #,                                       
                                            ###                                      
                                            ####                                     
                                            #####                                    
                                            ######                                   
                                           ########,                                 
                                     ,,################,,,,,                         
                               ,,#################################,,                 
                          ,,##########################################,,             
                       ,#########################################, ''#####,          
                    ,#############################################,,   '####,        
                  ,##################################################,,,,####,       
                ,###########''''           ''''###############################       
              ,#####''   ,,,,##########,,,,          '''####'''          '####       
            ,##' ,,,,###########################,,,                        '##       
           ' ,,###''''                  '''############,,,                           
         ,,##''                                '''############,,,,        ,,,,,,###''
      ,#''                                            '''#######################'''  
     '                                                          ''''####''''         
             ,#######,   #######,   ,#######,      ##                                
            ,#'     '#,  ##    ##  ,#'     '#,    #''#        ,####,   ,####,        
            ##       ##  ##   ,#'  ##            #'  '#       #'       #'  '#        
            ##       ##  #######   ##           ,######,      #####,   #    #        
            '#,     ,#'  ##    ##  '#,     ,#' ,#      #,     #,   #   #,  ,#        
             '#######'   ##     ##  '#######'  #'      '#     '####' # '####'        



                #########################################################
                #                        -***-                          #
                #          Department of theory and spectroscopy        #
                #                                                       #
                #                      Frank Neese                      #
                #                                                       #
                #     Directorship, Architecture, Infrastructure        #
                #                    SHARK, DRIVERS                     #
                #        Core code/Algorithms in most modules           #
                #                                                       #
                #        Max Planck Institute fuer Kohlenforschung      #
                #                Kaiser Wilhelm Platz 1                 #
                #                 D-45470 Muelheim/Ruhr                 #
                #                      Germany                          #
                #                                                       #
                #                  All rights reserved                  #
                #                        -***-                          #
                #########################################################


                         Program Version 6.0.0  -   RELEASE  -


 With contributions from (in alphabetic order):
   Daniel Aravena         : Magnetic Suceptibility
   Michael Atanasov       : Ab Initio Ligand Field Theory (pilot matlab implementation)
   Alexander A. Auer      : GIAO ZORA, VPT2 properties, NMR spectrum
   Ute Becker             : All parallelization in ORCA, NUMFREQ, NUMCALC
   Giovanni Bistoni       : ED, misc. LED, open-shell LED, HFLD
   Martin Brehm           : Molecular dynamics
   Dmytro Bykov           : pre 5.0 version of the SCF Hessian
   Marcos Casanova-Páez   : Triplet and SCS-CIS(D). UHF-(DLPNO)-IP/EA/STEOM-CCSD. UHF-CVS-IP/STEOM-CCSD
   Vijay G. Chilkuri      : MRCI spin determinant printing, contributions to CSF-ICE
   Pauline Colinet        : FMM embedding
   Dipayan Datta          : RHF DLPNO-CCSD density
   Achintya Kumar Dutta   : EOM-CC, STEOM-CC
   Nicolas Foglia         : Exact transition moments, OPA infrastructure, MCD improvements
   Dmitry Ganyushin       : Spin-Orbit,Spin-Spin,Magnetic field MRCI
   Miquel Garcia          : C-PCM and meta-GGA Hessian, CCSD/C-PCM, Gaussian charge scheme
   Tiago L. C. Gouveia    : GS-ROHF, GS-ROCIS
   Yang Guo               : DLPNO-NEVPT2, F12-NEVPT2, CIM, IAO-localization
   Andreas Hansen         : Spin unrestricted coupled pair/coupled cluster methods
   Ingolf Harden          : AUTO-CI MPn and infrastructure 
   Benjamin Helmich-Paris : MC-RPA, TRAH-(SCF,CASSCF), AVAS, COSX integrals, SCF dyn. polar.
   Lee Huntington         : MR-EOM, pCC
   Robert Izsak           : Overlap fitted RIJCOSX, COSX-SCS-MP3, EOM
   Riya Kayal             : Wick's Theorem for AUTO-CI, AUTO-CI UHF-CCSDT
   Emily Kempfer          : AUTO-CI, RHF CISDT and CCSDT
   Christian Kollmar      : KDIIS, OOCD, Brueckner-CCSD(T), CCSD density, CASPT2, CASPT2-K, improved NEVPT2
   Axel Koslowski         : Symmetry handling
   Simone Kossmann        : Meta GGA functionals, TD-DFT gradient, OOMP2, (MP2 Hessian; deprecated post 5.0)
   Lucas Lang             : DCDCAS
   Marvin Lechner         : AUTO-CI (C++ implementation), FIC-MRCC
   Spencer Leger          : CASSCF response
   Dagmar Lenk            : GEPOL surface, SMD, ORCA-2-JSON
   Dimitrios Liakos       : Extrapolation schemes; Compound Job, initial MDCI parallelization
   Dimitrios Manganas     : Further ROCIS development; embedding schemes. LFT, Crystal Embedding
   Dimitrios Pantazis     : SARC Basis sets
   Anastasios Papadopoulos: AUTO-CI, single reference methods and gradients
   Taras Petrenko         : pre 6.0 DFT Hessian and TD-DFT gradient, (ASA, deprecated), ECA, 1-Electron XAS/XES, NRVS
   Peter Pinski           : DLPNO-MP2, DLPNO-MP2 Gradient
   Christoph Reimann      : Effective Core Potentials
   Marius Retegan         : Local ZFS, SOC
   Christoph Riplinger    : Optimizer, TS searches, QM/MM, DLPNO-CCSD(T), (RO)-DLPNO pert. Triples
   Michael Roemelt        : Original ROCIS implementation
   Masaaki Saitow         : Open-shell DLPNO-CCSD energy and density
   Barbara Sandhoefer     : DKH picture change effects
   Kantharuban Sivalingam : CASSCF convergence/infrastructure, NEVPT2 and variants, FIC-MRCI
   Bernardo de Souza      : ESD, SOC TD-DFT
   Georgi Stoychev        : AutoAux, RI-MP2 NMR, DLPNO-MP2 response, X2C
   Van Anh Tran           : RI-MP2 g-tensors
   Willem Van den Heuvel  : Paramagnetic NMR
   Zikuan Wang            : NOTCH, Electric field optimization 
   Frank Wennmohs         : Technical directorship and infrastructure
   Hang Xu                : AUTO-CI-Response properties 


 We gratefully acknowledge several colleagues who have allowed us to
 interface, adapt or use parts of their codes:
   Stefan Grimme, W. Hujo, H. Kruse, P. Pracht,  : VdW corrections, initial TS optimization,
                  C. Bannwarth, S. Ehlert,         DFT functionals, gCP, sTDA/sTD-DF
                  L. Wittmann, M. Mueller
   Ed Valeev, F. Pavosevic, A. Kumar             : LibInt (2-el integral package), F12 methods
   Garnet Chan, S. Sharma, J. Yang, R. Olivares  : DMRG
   Ulf Ekstrom                                   : XCFun DFT Library
   Mihaly Kallay                                 : mrcc  (arbitrary order and MRCC methods)
   Frank Weinhold                                : gennbo (NPA and NBO analysis)
   Simon Mueller                                 : openCOSMO-RS
   Christopher J. Cramer and Donald G. Truhlar   : smd solvation model
   Lars Goerigk                                  : TD-DFT with DH, B97 family of functionals
   V. Asgeirsson, H. Jonsson                     : NEB implementation
   FAccTs GmbH                                   : IRC, NEB, NEB-TS, DLPNO-Multilevel, CI-OPT
                                                   MM, QMMM, 2- and 3-layer-ONIOM, Crystal-QMMM,
                                                   LR-CPCM, SF, NACMEs, symmetry and pop. for TD-DFT,
                                                   nearIR, NL-DFT gradient (VV10), updates on ESD,
                                                   ML-optimized integration grids, MBIS, APM,
                                                   GOAT, DOCKER, SOLVATOR, interface openCOSMO-RS
   S Lehtola, MJT Oliveira, MAL Marques          : LibXC Library
   Liviu Ungur et al                             : ANISO software


 Your calculation uses the libint2 library for the computation of 2-el integrals
 For citations please refer to: http://libint.valeyev.net

 Your ORCA version has been built with support for libXC version: 6.2.2
 For citations please refer to: https://libxc.gitlab.io

 This ORCA versions uses:
   CBLAS   interface :  Fast vector & matrix operations
   LAPACKE interface :  Fast linear algebra routines
   SCALAPACK package :  Parallel linear algebra routines
   Shared memory     :  Shared parallel matrices
   BLAS/LAPACK       :  OpenBLAS 0.3.27  USE64BITINT DYNAMIC_ARCH NO_AFFINITY SkylakeX SINGLE_THREADED
        Core in use  :  SkylakeX
   Copyright (c) 2011-2014, The OpenBLAS Project


Your calculation utilizes the geometrical counterpoise correction gCP
Please cite in your paper:
H.Kruse, S. Grimme J.Chem.Phys., 136, (2012), 154101 
   

Your calculation utilizes the atom-pairwise dispersion correction
based on EEQ partial charges (D4)


================================================================================

----- Orbital basis set information -----
Your calculation utilizes the basis: def2-mTZVPP
   Stefan Grimme, Andreas Hansen, Sebastian Ehlert, and Jan-Michael Mewes 
   J. Chem. Phys. 154, 064103 (2021). DOI: 10.1063/5.0040021

----- AuxJ basis set information -----
Your calculation utilizes the auxiliary basis: def2/J
   F. Weigend, Phys. Chem. Chem. Phys. 8, 1057 (2006).

================================================================================
                                        WARNINGS
                       Please study these warnings very carefully!
================================================================================

Using LibXC functional ID 497 : Re-regularized SCAN exchange by Furness et al
[ 1]  J. W. Furness, A. D. Kaplan, J. Ning, J. P. Perdew, and J. Sun.,  J. Phys. Chem. Lett. 11, 8208-8215 (2020)
[ 2]  J. W. Furness, A. D. Kaplan, J. Ning, J. P. Perdew, and J. Sun.,  J. Phys. Chem. Lett. 11, 9248-9248 (2020)
Using LibXC functional ID 498 : Re-regularized SCAN correlation by Furness et al
[ 1]  J. W. Furness, A. D. Kaplan, J. Ning, J. P. Perdew, and J. Sun.,  J. Phys. Chem. Lett. 11, 8208-8215 (2020)
[ 2]  J. W. Furness, A. D. Kaplan, J. Ning, J. P. Perdew, and J. Sun.,  J. Phys. Chem. Lett. 11, 9248-9248 (2020)
Using LibXC functional ID 497 : Re-regularized SCAN exchange by Furness et al
[ 1]  J. W. Furness, A. D. Kaplan, J. Ning, J. P. Perdew, and J. Sun.,  J. Phys. Chem. Lett. 11, 8208-8215 (2020)
[ 2]  J. W. Furness, A. D. Kaplan, J. Ning, J. P. Perdew, and J. Sun.,  J. Phys. Chem. Lett. 11, 9248-9248 (2020)
Using LibXC functional ID 498 : Re-regularized SCAN correlation by Furness et al
[ 1]  J. W. Furness, A. D. Kaplan, J. Ning, J. P. Perdew, and J. Sun.,  J. Phys. Chem. Lett. 11, 8208-8215 (2020)
[ 2]  J. W. Furness, A. D. Kaplan, J. Ning, J. P. Perdew, and J. Sun.,  J. Phys. Chem. Lett. 11, 9248-9248 (2020)

================================================================================
                                       INPUT FILE
================================================================================
NAME = sp_gas.inp
|  1> ! r2scan-3c def2/J RI DEFGRID2 scfconv6 printgap
|  2> %output
|  3>     printlevel normal
|  4> end
|  5> * xyz 0 1
|  6> C -3.539365821 -1.1816506872 -1.3735009625
|  7> C -3.1367632123 -0.64863684 0.002901367
|  8> H -3.5611440728 -1.2941692485 0.7778833691
|  9> C -1.6271815496 -0.6250102663 0.1466466976
| 10> C -0.9849209337 -1.573390066 0.9638510419
| 11> C 0.3770587385 -1.5903243103 1.0787597152
| 12> C 1.1741442066 -0.6562895897 0.3862121488
| 13> C 2.5807027497 -0.6564163344 0.4931227977
| 14> C 3.3283901402 0.264951262 -0.1963794901
| 15> C 2.6853155326 1.2216283858 -1.0180481235
| 16> C 1.3290620012 1.2384679325 -1.1335643781
| 17> C 0.5313361543 0.3025251379 -0.4378865756
| 18> C -0.871757567 0.2928386548 -0.539579191
| 19> O 4.6876061345 0.3586288211 -0.1710589972
| 20> C 5.4129501784 -0.5597573223 0.6240691096
| 21> C -3.6420901415 0.7684818949 0.2038259011
| 22> O -3.9255808773 1.5198509194 -0.6994355935
| 23> O -3.7297489243 1.1887907961 1.4652526245
| 24> H -3.1033100881 -2.163701977 -1.532851251
| 25> H -4.6215508061 -1.2525014009 -1.4481430871
| 26> H -3.1884914471 -0.5076289513 -2.1502944001
| 27> H -1.5790210782 -2.3012961801 1.496228472
| 28> H 0.8609166815 -2.3250174644 1.7049209912
| 29> H 3.0406994168 -1.3974747731 1.1273485272
| 30> H 3.3087008053 1.9282457948 -1.5427976962
| 31> H 0.8427713241 1.9704389404 -1.7610185607
| 32> H -1.3519567492 1.0291002197 -1.1692383824
| 33> H 5.1451768017 -0.4631169893 1.6793735833
| 34> H 6.4588897226 -0.2962347518 0.4854271143
| 35> H 5.2443108746 -1.5870168791 0.2909092608
| 36> H -3.4882062495 0.5186194798 2.1294262664
| 37> *
| 38> 
| 39>                          ****END OF INPUT****
================================================================================

                       ****************************
                       * Single Point Calculation *
                       ****************************

---------------------------------
CARTESIAN COORDINATES (ANGSTROEM)
---------------------------------
  C     -3.539366   -1.181651   -1.373501
  C     -3.136763   -0.648637    0.002901
  H     -3.561144   -1.294169    0.777883
  C     -1.627182   -0.625010    0.146647
  C     -0.984921   -1.573390    0.963851
  C      0.377059   -1.590324    1.078760
  C      1.174144   -0.656290    0.386212
  C      2.580703   -0.656416    0.493123
  C      3.328390    0.264951   -0.196379
  C      2.685316    1.221628   -1.018048
  C      1.329062    1.238468   -1.133564
  C      0.531336    0.302525   -0.437887
  C     -0.871758    0.292839   -0.539579
  O      4.687606    0.358629   -0.171059
  C      5.412950   -0.559757    0.624069
  C     -3.642090    0.768482    0.203826
  O     -3.925581    1.519851   -0.699436
  O     -3.729749    1.188791    1.465253
  H     -3.103310   -2.163702   -1.532851
  H     -4.621551   -1.252501   -1.448143
  H     -3.188491   -0.507629   -2.150294
  H     -1.579021   -2.301296    1.496228
  H      0.860917   -2.325017    1.704921
  H      3.040699   -1.397475    1.127349
  H      3.308701    1.928246   -1.542798
  H      0.842771    1.970439   -1.761019
  H     -1.351957    1.029100   -1.169238
  H      5.145177   -0.463117    1.679374
  H      6.458890   -0.296235    0.485427
  H      5.244311   -1.587017    0.290909
  H     -3.488206    0.518619    2.129426

----------------------------
CARTESIAN COORDINATES (A.U.)
----------------------------
  NO LB      ZA    FRAG     MASS         X           Y           Z
   0 C     6.0000    0    12.011   -6.688432   -2.232996   -2.595541
   1 C     6.0000    0    12.011   -5.927623   -1.225746    0.005483
   2 H     1.0000    0     1.008   -6.729587   -2.445625    1.469987
   3 C     6.0000    0    12.011   -3.074927   -1.181098    0.277122
   4 C     6.0000    0    12.011   -1.861231   -2.973276    1.821415
   5 C     6.0000    0    12.011    0.712538   -3.005277    2.038560
   6 C     6.0000    0    12.011    2.218811   -1.240208    0.729835
   7 C     6.0000    0    12.011    4.876821   -1.240447    0.931867
   8 C     6.0000    0    12.011    6.289746    0.500685   -0.371103
   9 C     6.0000    0    12.011    5.074511    2.308543   -1.923832
  10 C     6.0000    0    12.011    2.511563    2.340365   -2.142126
  11 C     6.0000    0    12.011    1.004080    0.571690   -0.827486
  12 C     6.0000    0    12.011   -1.647383    0.553385   -1.019657
  13 O     8.0000    0    15.999    8.858292    0.677710   -0.323255
  14 C     6.0000    0    12.011   10.228993   -1.057788    1.179320
  15 C     6.0000    0    12.011   -6.882553    1.452220    0.385175
  16 O     8.0000    0    15.999   -7.418273    2.872102   -1.321742
  17 O     8.0000    0    15.999   -7.048204    2.246489    2.768926
  18 H     1.0000    0     1.008   -5.864406   -4.088804   -2.896669
  19 H     1.0000    0     1.008   -8.733465   -2.366885   -2.736594
  20 H     1.0000    0     1.008   -6.025376   -0.959280   -4.063468
  21 H     1.0000    0     1.008   -2.983917   -4.348820    2.827462
  22 H     1.0000    0     1.008    1.626897   -4.393646    3.221834
  23 H     1.0000    0     1.008    5.746089   -2.640845    2.130380
  24 H     1.0000    0     1.008    6.252538    3.643856   -2.915465
  25 H     1.0000    0     1.008    1.592607    3.723590   -3.327843
  26 H     1.0000    0     1.008   -2.554828    1.944718   -2.209540
  27 H     1.0000    0     1.008    9.722975   -0.875164    3.173556
  28 H     1.0000    0     1.008   12.205533   -0.559803    0.917324
  29 H     1.0000    0     1.008    9.910311   -2.999027    0.549739
  30 H     1.0000    0     1.008   -6.591755    0.980049    4.024032

--------------------------------
INTERNAL COORDINATES (ANGSTROEM)
--------------------------------
 C      0   0   0     0.000000000000     0.00000000     0.00000000
 C      1   0   0     1.529926793834     0.00000000     0.00000000
 H      2   1   0     1.094261535814   109.24290108     0.00000000
 C      2   1   3     1.516594122174   110.64843617   120.19283490
 C      4   2   1     1.407034428704   119.92738785   253.38580771
 C      5   4   2     1.366923333372   120.79631094   178.28355275
 C      6   5   4     1.409747578281   120.92130101     0.22411935
 C      7   6   5     1.410615765572   121.76873457   179.91767758
 C      8   7   6     1.372358585243   120.33887909   179.87155753
 C      9   8   7     1.415597193150   119.85779992     0.07391559
 C     10   9   8     1.361268238388   120.67850342   359.96735977
 C     11  10   9     1.412912964930   120.83316388   359.96430276
 C      4   2   1     1.372595353932   120.72036538    71.73494429
 O      9   8   7     1.362675578265   125.46842704   180.08076368
 C     14   9   8     1.414844795952   118.50169726     0.05379067
 C      2   1   3     1.517877294969   110.90050989   239.66386719
 O     16   2   1     1.208637139877   124.02534520   337.84788749
 O     16   2   1     1.332494282591   116.21269952   159.81932747
 H      1   2   3     1.086260490139   109.95660050   295.80003274
 H      1   2   3     1.087067436902   110.27032948    56.40259085
 H      1   2   3     1.086658258803   110.00159015   175.69536637
 H      5   4   2     1.079920377027   119.30934481   358.94872175
 H      6   5   4     1.079801131342   120.24211056   180.28073001
 H      8   7   6     1.078427938840   118.03111119   359.91536257
 H     10   9   8     1.078554344931   117.55478610   179.98498939
 H     11  10   9     1.079795781758   120.42376694   179.96234053
 H     13   4   2     1.081269181957   120.13555545     1.80112651
 H     15  14   9     1.093027660877   111.07613490   298.55293056
 H     15  14   9     1.087499553170   105.31567280   179.84677077
 H     15  14   9     1.093021910428   111.07916498    61.13979559
 H     18  16   2     0.973960514362   114.34321837   357.77317113

---------------------------
INTERNAL COORDINATES (A.U.)
---------------------------
 C      0   0   0     0.000000000000     0.00000000     0.00000000
 C      1   0   0     2.891142645295     0.00000000     0.00000000
 H      2   1   0     2.067854621572   109.24290108     0.00000000
 C      2   1   3     2.865947547224   110.64843617   120.19283490
 C      4   2   1     2.658909731249   119.92738785   253.38580771
 C      5   4   2     2.583110746139   120.79631094   178.28355275
 C      6   5   4     2.664036840910   120.92130101     0.22411935
 C      7   6   5     2.665677477123   121.76873457   179.91767758
 C      8   7   6     2.593381883645   120.33887909   179.87155753
 C      9   8   7     2.675091011002   119.85779992     0.07391559
 C     10   9   8     2.572424165359   120.67850342   359.96735977
 C     11  10   9     2.670018554784   120.83316388   359.96430276
 C      4   2   1     2.593829311625   120.72036538    71.73494429
 O      9   8   7     2.575083652304   125.46842704   180.08076368
 C     14   9   8     2.673669186354   118.50169726     0.05379067
 C      2   1   3     2.868372392389   110.90050989   239.66386719
 O     16   2   1     2.283993189653   124.02534520   337.84788749
 O     16   2   1     2.518049269113   116.21269952   159.81932747
 H      1   2   3     2.052734836462   109.95660050   295.80003274
 H      1   2   3     2.054259744848   110.27032948    56.40259085
 H      1   2   3     2.053486510301   110.00159015   175.69536637
 H      5   4   2     2.040753759023   119.30934481   358.94872175
 H      6   5   4     2.040528417335   120.24211056   180.28073001
 H      8   7   6     2.037933459577   118.03111119   359.91536257
 H     10   9   8     2.038172332471   117.55478610   179.98498939
 H     11  10   9     2.040518308086   120.42376694   179.96234053
 H     13   4   2     2.043302630947   120.13555545     1.80112651
 H     15  14   9     2.065522935859   111.07613490   298.55293056
 H     15  14   9     2.055076326253   105.31567280   179.84677077
 H     15  14   9     2.065512069084   111.07916498    61.13979559
 H     18  16   2     1.840518637397   114.34321837   357.77317113

---------------------
BASIS SET INFORMATION
---------------------
There are 3 groups of distinct atoms

 Group   1 Type C   : 11s6p1d contracted to 5s3p1d pattern {62111/411/1}
 Group   2 Type H   : 4s1p contracted to 2s1p pattern {31/1}
 Group   3 Type O   : 11s6p2d contracted to 5s3p2d pattern {62111/411/11}

Atom   0C    basis set group =>   1
Atom   1C    basis set group =>   1
Atom   2H    basis set group =>   2
Atom   3C    basis set group =>   1
Atom   4C    basis set group =>   1
Atom   5C    basis set group =>   1
Atom   6C    basis set group =>   1
Atom   7C    basis set group =>   1
Atom   8C    basis set group =>   1
Atom   9C    basis set group =>   1
Atom  10C    basis set group =>   1
Atom  11C    basis set group =>   1
Atom  12C    basis set group =>   1
Atom  13O    basis set group =>   3
Atom  14C    basis set group =>   1
Atom  15C    basis set group =>   1
Atom  16O    basis set group =>   3
Atom  17O    basis set group =>   3
Atom  18H    basis set group =>   2
Atom  19H    basis set group =>   2
Atom  20H    basis set group =>   2
Atom  21H    basis set group =>   2
Atom  22H    basis set group =>   2
Atom  23H    basis set group =>   2
Atom  24H    basis set group =>   2
Atom  25H    basis set group =>   2
Atom  26H    basis set group =>   2
Atom  27H    basis set group =>   2
Atom  28H    basis set group =>   2
Atom  29H    basis set group =>   2
Atom  30H    basis set group =>   2
---------------------------------
AUXILIARY/J BASIS SET INFORMATION
---------------------------------
There are 3 groups of distinct atoms

 Group   1 Type C   : 12s5p4d2f1g contracted to 6s4p3d1f1g pattern {711111/2111/211/2/1}
 Group   2 Type H   : 5s2p1d contracted to 3s1p1d pattern {311/2/1}
 Group   3 Type O   : 12s5p4d2f1g contracted to 6s4p3d1f1g pattern {711111/2111/211/2/1}

Atom   0C    basis set group =>   1
Atom   1C    basis set group =>   1
Atom   2H    basis set group =>   2
Atom   3C    basis set group =>   1
Atom   4C    basis set group =>   1
Atom   5C    basis set group =>   1
Atom   6C    basis set group =>   1
Atom   7C    basis set group =>   1
Atom   8C    basis set group =>   1
Atom   9C    basis set group =>   1
Atom  10C    basis set group =>   1
Atom  11C    basis set group =>   1
Atom  12C    basis set group =>   1
Atom  13O    basis set group =>   3
Atom  14C    basis set group =>   1
Atom  15C    basis set group =>   1
Atom  16O    basis set group =>   3
Atom  17O    basis set group =>   3
Atom  18H    basis set group =>   2
Atom  19H    basis set group =>   2
Atom  20H    basis set group =>   2
Atom  21H    basis set group =>   2
Atom  22H    basis set group =>   2
Atom  23H    basis set group =>   2
Atom  24H    basis set group =>   2
Atom  25H    basis set group =>   2
Atom  26H    basis set group =>   2
Atom  27H    basis set group =>   2
Atom  28H    basis set group =>   2
Atom  29H    basis set group =>   2
Atom  30H    basis set group =>   2

Checking for AutoStart:
The File: sp_gas.gbw exists
Trying to determine its content:
     ... Fine, the file contains calculation information
     ... Fine, the calculation information was read
     ... Fine, the file contains a basis set
     ... Fine, the basis set was read
     ... Fine, the file contains a geometry
     ... Fine, the geometry was read
     ... Fine, the file contains a set of orbitals
     ... Fine, the orbitals can be read
     => possible old guess file was deleted
     => GBW file was renamed to GES file
     => GES file is set as startup file
     => Guess is set to MORead
     ... now leaving AutoStart

------------------------------------------------------------------------------
                             ORCA STARTUP CALCULATIONS
                           -- RI-GTO INTEGRALS CHOSEN --
------------------------------------------------------------------------------
------------------------------------------------------------------------------
                   ___                                                        
                  /   \      - P O W E R E D   B Y -                         
                 /     \                                                     
                 |  |  |   _    _      __       _____    __    __             
                 |  |  |  | |  | |    /  \     |  _  \  |  |  /  |          
                  \  \/   | |  | |   /    \    | | | |  |  | /  /          
                 / \  \   | |__| |  /  /\  \   | |_| |  |  |/  /          
                |  |  |   |  __  | /  /__\  \  |    /   |      \           
                |  |  |   | |  | | |   __   |  |    \   |  |\   \          
                \     /   | |  | | |  |  |  |  | |\  \  |  | \   \       
                 \___/    |_|  |_| |__|  |__|  |_| \__\ |__|  \__/        
                                                                              
                      - O R C A' S   B I G   F R I E N D -                    
                                      &                                       
                       - I N T E G R A L  F E E D E R -                       
                                                                              
 v1 FN, 2020, v2 2021, v3 2022-2024                                           
------------------------------------------------------------------------------


----------------------
SHARK INTEGRAL PACKAGE
----------------------

Number of atoms                             ...     31
Number of basis functions                   ...    408
Number of shells                            ...    198
Maximum angular momentum                    ...      2
Integral batch strategy                     ... SHARK/LIBINT Hybrid
RI-J (if used) integral strategy            ... SPLIT-RIJ (Revised 2003 algorithm where possible)
Printlevel                                  ...      1
Contraction scheme used                     ... SEGMENTED contraction
Prescreening option                         ... SCHWARTZ
   Thresh                                   ... 1.000e-10
   Tcut                                     ... 1.000e-11
   Tpresel                                  ... 1.000e-11 
Coulomb Range Separation                    ... NOT USED
Exchange Range Separation                   ... NOT USED
Multipole approximations                    ... NOT USED
Finite Nucleus Model                        ... NOT USED
CABS basis                                  ... NOT available
Auxiliary Coulomb fitting basis             ... AVAILABLE
   # of basis functions in Aux-J            ...    987
   # of shells in Aux-J                     ...    325
   Maximum angular momentum in Aux-J        ...      4
Auxiliary J/K fitting basis                 ... NOT available
Auxiliary Correlation fitting basis         ... NOT available
Auxiliary 'external' fitting basis          ... NOT available

Checking pre-screening integrals            ... done (  0.0 sec) Dimension = 198
Check shell pair data                       ... done (  0.0 sec)
Shell pair information
Shell pair cut-off parameter TPreSel        ...   1.0e-11
Total number of shell pairs                 ...     19701
Shell pairs after pre-screening             ...     14291
Total number of primitive shell pairs       ...     72426
Primitive shell pairs kept                  ...     34137
          la=0 lb=0:   4463 shell pairs
          la=1 lb=0:   5469 shell pairs
          la=1 lb=1:   1701 shell pairs
          la=2 lb=0:   1552 shell pairs
          la=2 lb=1:    959 shell pairs
          la=2 lb=2:    147 shell pairs

Calculating one electron integrals          ... done (  0.1 sec)
Calculating RI/J V-Matrix + Cholesky decomp.... done (  0.2 sec)
Calculating Nuclear repulsion               ... done (  0.0 sec) ENN=   1140.925072281893 Eh

Diagonalization of the overlap matrix:
Smallest eigenvalue                        ... 1.266e-05
Time for diagonalization                   ...    0.024 sec
Threshold for overlap eigenvalues          ... 1.000e-07
Number of eigenvalues below threshold      ... 0
Time for construction of square roots      ...    0.032 sec
Total time needed                          ...    0.094 sec

-------------------
DFT GRID GENERATION
-------------------

General Integration Accuracy     IntAcc      ... 4.388
Radial Grid Type                 RadialGrid  ... OptM3 with GC (2021)
Angular Grid (max. ang.)         AngularGrid ... 4 (Lebedev-302)
Angular grid pruning method      GridPruning ... 4 (adaptive)
Weight generation scheme         WeightScheme... mBecke (2022)
Basis function cutoff            BFCut       ... 1.0000e-10
Integration weight cutoff        WCut        ... 1.0000e-14
Partially contracted basis set               ... off
Rotationally invariant grid construction     ... off
Angular grids for H and He will be reduced by one unit
Diffuse basis detected: some atoms will have their outermost
                        angular grid increased by 1.

Total number of grid points                  ...   147371
Total number of batches                      ...     2315
Average number of points per batch           ...       63
Average number of grid points per atom       ...     4754
Initializing property integral containers    ... done (  0.0 sec)

SHARK setup successfully completed in   3.1 seconds

Maximum memory used throughout the entire STARTUP-calculation: 72.6 MB
-------------------------------------------------------------------------------
                                 ORCA GUESS
                   Start orbitals & Density for SCF / CASSCF
-------------------------------------------------------------------------------

------------
SCF SETTINGS
------------
Hamiltonian:
 Density Functional     Method          .... DFT(GTOs)
  Functional kind                       .... Exchange
  Functional name                       .... Re-regularized SCAN exchange by Furness et al
  Functional family                     .... MGGA
  Functional refs                              
    [ 0] J. W. Furness, A. D. Kaplan, J. Ning, J. P. Perdew, and J. Sun.,  J. Phys. Chem. Lett. 11, 8208-8215 (2020), doi: 10.1021/acs.jpclett.0c02405
    [ 1] J. W. Furness, A. D. Kaplan, J. Ning, J. P. Perdew, and J. Sun.,  J. Phys. Chem. Lett. 11, 9248-9248 (2020), doi: 10.1021/acs.jpclett.0c03077
  Functional external parameters        .... 6
    Parameter  0 _c1        =  6.670000e-01 : c1 parameter        
    Parameter  1 _c2        =  8.000000e-01 : c2 parameter        
    Parameter  2 _d         =  1.240000e+00 : d parameter         
    Parameter  3 _k1        =  6.500000e-02 : k1 parameter        
    Parameter  4 _eta       =  1.000000e-03 : eta parameter       
    Parameter  5 _dp2       =  3.610000e-01 : dp2 parameter       
  Functional kind                       .... Correlation
  Functional name                       .... Re-regularized SCAN correlation by Furness et al
  Functional family                     .... MGGA
  Functional refs                              
    [ 0] J. W. Furness, A. D. Kaplan, J. Ning, J. P. Perdew, and J. Sun.,  J. Phys. Chem. Lett. 11, 8208-8215 (2020), doi: 10.1021/acs.jpclett.0c02405
    [ 1] J. W. Furness, A. D. Kaplan, J. Ning, J. P. Perdew, and J. Sun.,  J. Phys. Chem. Lett. 11, 9248-9248 (2020), doi: 10.1021/acs.jpclett.0c03077
  Functional external parameters        .... 1
    Parameter  0 _eta       =  1.000000e-03 : Regularization parameter
 Gradients option       PostSCFGGA      .... off
 RI-approximation to the Coulomb term is turned on
   Number of AuxJ basis functions       .... 987


General Settings:
 Integral files         IntName         .... sp_gas
 Hartree-Fock type      HFTyp           .... RHF
 Total Charge           Charge          ....    0
 Multiplicity           Mult            ....    1
 Number of Electrons    NEL             ....  122
 Basis Dimension        Dim             ....  408
 Nuclear Repulsion      ENuc            ....   1140.9250722819 Eh

Convergence Acceleration:
 AO-DIIS                CNVDIIS         .... on
   Start iteration      DIISMaxIt       ....    12
   Startup error        DIISStart       ....  0.200000
   # of expansion vecs  DIISMaxEq       ....     5
   Bias factor          DIISBfac        ....   1.050
   Max. coefficient     DIISMaxC        ....  10.000
 MO-DIIS                CNVKDIIS        .... off
 Trust-Rad. Augm. Hess. CNVTRAH         .... auto
   Auto Start mean grad. ratio tolernc. ....  1.125000
   Auto Start start iteration           ....     1
   Auto Start num. interpolation iter.  ....    10
   Max. Number of Micro iterations      ....    24
   Max. Number of Macro iterations      .... Maxiter - #DIIS iter
   Number of Davidson start vectors     ....     2
   Converg. threshold    (grad. norm)   ....   3.330e-04
   Grad. Scal. Fac. for Micro threshold ....   0.100
   Minimum threshold for Micro iter.    ....   1.000e-02
   NR start threshold (gradient norm)   ....   1.000e-04
   Initial trust radius                 ....   0.400
   Minimum AH scaling param. (alpha)    ....   1.000
   Maximum AH scaling param. (alpha)    .... 1000.000
   Quad. conv. algorithm                .... NR
   White noise on init. David. guess    .... on
   Maximum white noise                  ....   0.010
   Pseudo random numbers                .... off
   Inactive MOs                         .... canonical
   Orbital update algorithm             .... Taylor
   Preconditioner                       .... Diag
   Full preconditioner red. dimension   ....   250
   COSX micro iterations for RIJONX calc.... off
 SOSCF                  CNVSOSCF        .... on
   Start iteration      SOSCFMaxIt      ....   150
   Startup grad/error   SOSCFStart      ....  0.003300
   Hessian update       SOSCFHessUp     .... L-BFGS
 Level Shifting         CNVShift        .... on
   Level shift para.    LevelShift      ....    0.2500
   Turn off err/grad.   ShiftErr        ....    0.0010
 Zerner damping         CNVZerner       .... off
 Static damping         CNVDamp         .... on
   Fraction old density DampFac         ....    0.7000
   Max. Damping (<1)    DampMax         ....    0.9800
   Min. Damping (>=0)   DampMin         ....    0.0000
   Turn off err/grad.   DampErr         ....    0.1000

SCF Procedure:
 Maximum # iterations   MaxIter         ....   125
 SCF integral mode      SCFMode         .... Direct
   Integral package                     .... SHARK and LIBINT hybrid scheme
 Reset frequency        DirectResetFreq ....    20
 Integral Threshold     Thresh          ....  1.000e-10 Eh
 Primitive CutOff       TCut            ....  1.000e-11 Eh

Convergence Tolerance:
 Convergence Check Mode ConvCheckMode   .... Total+1el-Energy
 Convergence forced     ConvForced      .... 0
 Energy Change          TolE            ....  1.000e-06 Eh
 1-El. energy change                    ....  1.000e-03 Eh
 Orbital Gradient       TolG            ....  3.330e-04
 Orbital Rotation angle TolX            ....  3.330e-04
 DIIS Error             TolErr          ....  1.000e-06

---------------------
INITIAL GUESS: MOREAD
---------------------
Guess MOs are being read from file: sp_gas.ges
Input Geometry matches current geometry (good)
Atom 0: N(Shells)= 9 and 6 - projection required
Input basis set needs projection
NBasis(read)= 266
NBasis(calc)= 408
Basis set overlap was calculated
Using GuessMode=FMatrix for the initial guess
C*T matrix was formed
Effective Fockian was calculated
Effective Fockian was diagonalized
Initial density was built
                      ------------------
                      INITIAL GUESS DONE (   0.2 sec)
                      ------------------
             **** ENERGY FILE WAS UPDATED (sp_gas.en.tmp) ****
Finished Guess after   0.7 sec
Maximum memory used throughout the entire GUESS-calculation: 37.4 MB

-------------------------------------------------------------------------------------------
                                      ORCA LEAN-SCF
                              memory conserving SCF solver
-------------------------------------------------------------------------------------------

----------------------------------------D-I-I-S--------------------------------------------
Iteration    Energy (Eh)           Delta-E    RMSDP     MaxDP     DIISErr   Damp  Time(sec)
-------------------------------------------------------------------------------------------
               ***  Starting incremental Fock matrix formation  ***
    1    -767.0803699442985817     0.00e+00  1.74e-02  1.34e+00  6.28e-01  0.700   9.4
    2    -767.1884809907026010    -1.08e-01  1.33e-02  9.88e-01  4.41e-01  0.700   8.3
    3    -767.2647683924781177    -7.63e-02  9.47e-03  6.92e-01  3.09e-01  0.700   8.1
    4    -767.3182962786438566    -5.35e-02  6.66e-03  4.83e-01  2.16e-01  0.700   8.2
                               ***Turning on AO-DIIS***
    5    -767.3558297695774399    -3.75e-02  4.67e-03  3.36e-01  1.52e-01  0.700   7.9
    6    -767.3821333835787755    -2.63e-02  3.27e-03  2.35e-01  1.06e-01  0.700   7.6
    7    -767.4005696077090306    -1.84e-02  2.29e-03  1.65e-01  7.42e-02  0.700   7.3
    8    -767.4134852815197974    -1.29e-02  5.35e-03  3.83e-01  5.20e-02  0.000   7.1
                              *** Initializing SOSCF ***
---------------------------------------S-O-S-C-F--------------------------------------
Iteration    Energy (Eh)           Delta-E    RMSDP     MaxDP     MaxGrad    Time(sec)
--------------------------------------------------------------------------------------
    9    -767.4436558837001030    -3.02e-02  9.90e-06  3.81e-04  1.48e-04     7.7
               *** Restarting incremental Fock matrix formation ***
   10    -767.4436559648099774    -8.11e-08  2.83e-05  1.68e-03  7.27e-05     9.2
                  *** Gradient check signals convergence ***

               *****************************************************
               *                     SUCCESS                       *
               *           SCF CONVERGED AFTER  10 CYCLES          *
               *****************************************************

             **** ENERGY FILE WAS UPDATED (sp_gas.en.tmp) ****

----------------
TOTAL SCF ENERGY
----------------

Total Energy       :       -767.44365596480998 Eh          -20883.20356 eV

Components:
Nuclear Repulsion  :       1140.92507228189265 Eh           31046.14957 eV
Electronic Energy  :      -1908.36872824670263 Eh          -51929.35313 eV
One Electron Energy:      -3307.49837631623586 Eh          -90001.60641 eV
Two Electron Energy:       1399.12964806953323 Eh           38072.25328 eV

Virial components:
Potential Energy   :      -1531.87632221993954 Eh          -41684.47393 eV
Kinetic Energy     :        764.43266625512945 Eh           20801.27036 eV
Virial Ratio       :          2.00393885536633

DFT components:
N(Alpha)           :       60.999986601626 electrons
N(Beta)            :       60.999986601626 electrons
N(Total)           :      121.999973203252 electrons
E(X)               :     -102.811832644550 Eh       
E(C)               :       -3.989728333070 Eh       
E(XC)              :     -106.801560977620 Eh       

---------------
SCF CONVERGENCE
---------------

  Last Energy change         ...    8.1110e-08  Tolerance :   1.0000e-06
  Last MAX-Density change    ...    1.6759e-03  Tolerance :   1.0000e-05
  Last RMS-Density change    ...    2.8259e-05  Tolerance :   1.0000e-06
  Last DIIS Error            ...    1.4813e-04  Tolerance :   1.0000e-06
  Last Orbital Gradient      ...    7.2742e-05  Tolerance :   3.3300e-04
  Last Orbital Rotation      ...    2.6572e-04  Tolerance :   3.3300e-04


----------------
ORBITAL ENERGIES
----------------

  NO   OCC          E(Eh)            E(eV) 
   0   2.0000     -19.003583      -517.1138 
   1   2.0000     -18.994065      -516.8548 
   2   2.0000     -18.931883      -515.1627 
   3   2.0000     -10.160806      -276.4896 
   4   2.0000     -10.102946      -274.9151 
   5   2.0000     -10.093020      -274.6450 
   6   2.0000     -10.065782      -273.9039 
   7   2.0000     -10.053743      -273.5763 
   8   2.0000     -10.052780      -273.5500 
   9   2.0000     -10.047819      -273.4151 
  10   2.0000     -10.044225      -273.3173 
  11   2.0000     -10.043874      -273.3077 
  12   2.0000     -10.042417      -273.2681 
  13   2.0000     -10.040747      -273.2226 
  14   2.0000     -10.039375      -273.1853 
  15   2.0000     -10.038143      -273.1518 
  16   2.0000     -10.027720      -272.8681 
  17   2.0000      -1.072555       -29.1857 
  18   2.0000      -1.041486       -28.3403 
  19   2.0000      -0.982650       -26.7393 
  20   2.0000      -0.854754       -23.2590 
  21   2.0000      -0.812481       -22.1087 
  22   2.0000      -0.770638       -20.9701 
  23   2.0000      -0.747432       -20.3387 
  24   2.0000      -0.720681       -19.6107 
  25   2.0000      -0.697094       -18.9689 
  26   2.0000      -0.672741       -18.3062 
  27   2.0000      -0.632336       -17.2067 
  28   2.0000      -0.604399       -16.4465 
  29   2.0000      -0.592778       -16.1303 
  30   2.0000      -0.577166       -15.7055 
  31   2.0000      -0.568479       -15.4691 
  32   2.0000      -0.511557       -13.9202 
  33   2.0000      -0.498045       -13.5525 
  34   2.0000      -0.492962       -13.4142 
  35   2.0000      -0.474828       -12.9207 
  36   2.0000      -0.445375       -12.1193 
  37   2.0000      -0.445070       -12.1110 
  38   2.0000      -0.427919       -11.6443 
  39   2.0000      -0.424980       -11.5643 
  40   2.0000      -0.424115       -11.5408 
  41   2.0000      -0.411693       -11.2027 
  42   2.0000      -0.400095       -10.8871 
  43   2.0000      -0.397409       -10.8140 
  44   2.0000      -0.385440       -10.4884 
  45   2.0000      -0.383108       -10.4249 
  46   2.0000      -0.376941       -10.2571 
  47   2.0000      -0.364395        -9.9157 
  48   2.0000      -0.350730        -9.5439 
  49   2.0000      -0.344133        -9.3643 
  50   2.0000      -0.333878        -9.0853 
  51   2.0000      -0.327280        -8.9057 
  52   2.0000      -0.322899        -8.7865 
  53   2.0000      -0.312756        -8.5105 
  54   2.0000      -0.301494        -8.2041 
  55   2.0000      -0.290712        -7.9107 
  56   2.0000      -0.286356        -7.7921 
  57   2.0000      -0.267600        -7.2818 
  58   2.0000      -0.239199        -6.5089 
  59   2.0000      -0.223939        -6.0937 
  60   2.0000      -0.198252        -5.3947 
  61   0.0000      -0.070585        -1.9207 
  62   0.0000      -0.041515        -1.1297 
  63   0.0000      -0.016951        -0.4613 
  64   0.0000      -0.008706        -0.2369 
  65   0.0000       0.035504         0.9661 
  66   0.0000       0.057966         1.5773 
  67   0.0000       0.063230         1.7206 
  68   0.0000       0.073544         2.0012 
  69   0.0000       0.085946         2.3387 
  70   0.0000       0.087444         2.3795 
  71   0.0000       0.095804         2.6069 
*Only the first 10 virtual orbitals were printed.

                    ********************************
                    * MULLIKEN POPULATION ANALYSIS *
                    ********************************

-----------------------
MULLIKEN ATOMIC CHARGES
-----------------------
   0 C :   -0.493401
   1 C :   -0.178512
   2 H :    0.154285
   3 C :    0.157779
   4 C :   -0.229304
   5 C :   -0.306046
   6 C :    0.233236
   7 C :   -0.367975
   8 C :    0.365535
   9 C :   -0.315160
  10 C :   -0.257194
  11 C :    0.172443
  12 C :   -0.239438
  13 O :   -0.179017
  14 C :   -0.330984
  15 C :    0.343526
  16 O :   -0.386164
  17 O :   -0.326012
  18 H :    0.151980
  19 H :    0.152107
  20 H :    0.183195
  21 H :    0.145261
  22 H :    0.139383
  23 H :    0.144097
  24 H :    0.159164
  25 H :    0.147885
  26 H :    0.165383
  27 H :    0.153989
  28 H :    0.156992
  29 H :    0.153976
  30 H :    0.328992
Sum of atomic charges:    0.0000000

--------------------------------
MULLIKEN REDUCED ORBITAL CHARGES
--------------------------------
  0 C s       :     3.351942  s :     3.351942
      pz      :     0.946575  p :     3.114967
      px      :     1.090579
      py      :     1.077813
      dz2     :     0.007197  d :     0.026492
      dxz     :     0.003682
      dyz     :     0.006302
      dx2y2   :     0.006268
      dxy     :     0.003042

  1 C s       :     3.118199  s :     3.118199
      pz      :     1.090418  p :     3.014688
      px      :     0.964151
      py      :     0.960118
      dz2     :     0.009740  d :     0.045626
      dxz     :     0.008308
      dyz     :     0.008676
      dx2y2   :     0.010844
      dxy     :     0.008058

  2 H s       :     0.828008  s :     0.828008
      pz      :     0.007009  p :     0.017706
      px      :     0.004450
      py      :     0.006248

  3 C s       :     3.103227  s :     3.103227
      pz      :     0.942184  p :     2.691845
      px      :     0.778236
      py      :     0.971425
      dz2     :     0.007580  d :     0.047148
      dxz     :     0.009473
      dyz     :     0.006863
      dx2y2   :     0.011743
      dxy     :     0.011489

  4 C s       :     3.197332  s :     3.197332
      pz      :     1.000911  p :     2.994053
      px      :     1.001025
      py      :     0.992117
      dz2     :     0.004812  d :     0.037919
      dxz     :     0.008994
      dyz     :     0.004698
      dx2y2   :     0.008744
      dxy     :     0.010670

  5 C s       :     3.273817  s :     3.273817
      pz      :     1.000341  p :     2.994846
      px      :     0.981024
      py      :     1.013482
      dz2     :     0.003949  d :     0.037383
      dxz     :     0.009179
      dyz     :     0.004645
      dx2y2   :     0.008945
      dxy     :     0.010664

  6 C s       :     3.168486  s :     3.168486
      pz      :     0.902187  p :     2.549515
      px      :     0.767917
      py      :     0.879412
      dz2     :     0.006743  d :     0.048762
      dxz     :     0.011014
      dyz     :     0.006572
      dx2y2   :     0.011845
      dxy     :     0.012587

  7 C s       :     3.195191  s :     3.195191
      pz      :     1.076942  p :     3.137529
      px      :     1.005258
      py      :     1.055328
      dz2     :     0.004320  d :     0.035255
      dxz     :     0.008164
      dyz     :     0.004697
      dx2y2   :     0.008446
      dxy     :     0.009628

  8 C s       :     3.122753  s :     3.122753
      pz      :     0.880233  p :     2.438827
      px      :     0.713479
      py      :     0.845114
      dz2     :     0.009735  d :     0.072886
      dxz     :     0.018092
      dyz     :     0.006945
      dx2y2   :     0.018849
      dxy     :     0.019265

  9 C s       :     3.257966  s :     3.257966
      pz      :     1.009418  p :     3.021395
      px      :     0.996749
      py      :     1.015228
      dz2     :     0.004487  d :     0.035799
      dxz     :     0.008721
      dyz     :     0.004442
      dx2y2   :     0.007626
      dxy     :     0.010524

 10 C s       :     3.257771  s :     3.257771
      pz      :     1.002698  p :     2.961562
      px      :     0.953281
      py      :     1.005583
      dz2     :     0.003987  d :     0.037862
      dxz     :     0.009450
      dyz     :     0.004640
      dx2y2   :     0.008988
      dxy     :     0.010797

 11 C s       :     3.185467  s :     3.185467
      pz      :     0.918193  p :     2.594274
      px      :     0.774307
      py      :     0.901774
      dz2     :     0.006664  d :     0.047817
      dxz     :     0.010482
      dyz     :     0.006555
      dx2y2   :     0.011736
      dxy     :     0.012379

 12 C s       :     3.177694  s :     3.177694
      pz      :     1.025512  p :     3.024504
      px      :     0.994542
      py      :     1.004450
      dz2     :     0.004648  d :     0.037240
      dxz     :     0.008338
      dyz     :     0.004939
      dx2y2   :     0.009599
      dxy     :     0.009715

 13 O s       :     3.714500  s :     3.714500
      pz      :     1.659560  p :     4.433706
      px      :     1.158017
      py      :     1.616130
      dz2     :     0.004613  d :     0.030811
      dxz     :     0.005709
      dyz     :     0.005270
      dx2y2   :     0.006826
      dxy     :     0.008394

 14 C s       :     3.342707  s :     3.342707
      pz      :     0.973509  p :     2.941793
      px      :     1.028463
      py      :     0.939822
      dz2     :     0.013545  d :     0.046484
      dxz     :     0.005911
      dyz     :     0.007813
      dx2y2   :     0.012085
      dxy     :     0.007130

 15 C s       :     3.116344  s :     3.116344
      pz      :     0.739927  p :     2.415035
      px      :     0.788608
      py      :     0.886499
      dz2     :     0.045197  d :     0.125095
      dxz     :     0.024878
      dyz     :     0.030676
      dx2y2   :     0.012914
      dxy     :     0.011431

 16 O s       :     3.842406  s :     3.842406
      pz      :     1.513231  p :     4.515729
      px      :     1.428765
      py      :     1.573733
      dz2     :     0.004049  d :     0.028028
      dxz     :     0.005481
      dyz     :     0.009599
      dx2y2   :     0.003999
      dxy     :     0.004900

 17 O s       :     3.727404  s :     3.727404
      pz      :     1.181688  p :     4.569907
      px      :     1.761874
      py      :     1.626345
      dz2     :     0.004158  d :     0.028702
      dxz     :     0.000456
      dyz     :     0.008424
      dx2y2   :     0.007713
      dxy     :     0.007951

 18 H s       :     0.829719  s :     0.829719
      pz      :     0.003790  p :     0.018301
      px      :     0.004834
      py      :     0.009677

 19 H s       :     0.829660  s :     0.829660
      pz      :     0.003583  p :     0.018233
      px      :     0.010985
      py      :     0.003665

 20 H s       :     0.798438  s :     0.798438
      pz      :     0.007381  p :     0.018367
      px      :     0.004258
      py      :     0.006729

 21 H s       :     0.835034  s :     0.835034
      pz      :     0.006082  p :     0.019705
      px      :     0.005811
      py      :     0.007812

 22 H s       :     0.840953  s :     0.840953
      pz      :     0.006918  p :     0.019663
      px      :     0.004887
      py      :     0.007859

 23 H s       :     0.835477  s :     0.835477
      pz      :     0.007343  p :     0.020427
      px      :     0.004974
      py      :     0.008109

 24 H s       :     0.821142  s :     0.821142
      pz      :     0.005971  p :     0.019694
      px      :     0.006176
      py      :     0.007548

 25 H s       :     0.832500  s :     0.832500
      pz      :     0.006862  p :     0.019615
      px      :     0.004924
      py      :     0.007829

 26 H s       :     0.814604  s :     0.814604
      pz      :     0.006825  p :     0.020013
      px      :     0.005309
      py      :     0.007879

 27 H s       :     0.828509  s :     0.828509
      pz      :     0.011018  p :     0.017502
      px      :     0.003511
      py      :     0.002973

 28 H s       :     0.825459  s :     0.825459
      pz      :     0.003274  p :     0.017549
      px      :     0.010886
      py      :     0.003390

 29 H s       :     0.828518  s :     0.828518
      pz      :     0.003684  p :     0.017506
      px      :     0.003267
      py      :     0.010556

 30 H s       :     0.629522  s :     0.629522
      pz      :     0.014501  p :     0.041486
      px      :     0.011652
      py      :     0.015333


------------------------
MULLIKEN OVERLAP CHARGES
------------------------
B(  0-C ,  1-C ) :   0.4758 B(  0-C ,  3-C ) :  -0.1415 B(  0-C , 15-C ) :  -0.1863 
B(  0-C , 16-O ) :   0.0792 B(  0-C , 18-H ) :   0.8217 B(  0-C , 19-H ) :   0.8009 
B(  0-C , 20-H ) :   0.8624 B(  1-C ,  2-H ) :   1.0127 B(  1-C ,  3-C ) :  -0.3556 
B(  1-C ,  4-C ) :  -0.2539 B(  1-C ,  5-C ) :   0.0826 B(  1-C , 11-C ) :   0.1128 
B(  1-C , 15-C ) :   0.2337 B(  1-C , 16-O ) :  -0.2243 B(  1-C , 17-O ) :  -0.2275 
B(  1-C , 18-H ) :  -0.0945 B(  1-C , 19-H ) :  -0.1007 B(  2-H ,  3-C ) :  -0.2797 
B(  2-H , 15-C ) :  -0.0857 B(  3-C ,  4-C ) :   0.5193 B(  3-C ,  5-C ) :   0.1054 
B(  3-C ,  6-C ) :  -0.1865 B(  3-C ,  7-C ) :  -0.0548 B(  3-C , 10-C ) :   0.1146 
B(  3-C , 11-C ) :   0.3174 B(  3-C , 15-C ) :   0.0924 B(  3-C , 20-H ) :  -0.0541 
B(  3-C , 21-H ) :  -0.0991 B(  3-C , 26-H ) :  -0.1137 B(  4-C ,  5-C ) :   0.3047 
B(  4-C ,  7-C ) :   0.0638 B(  4-C , 11-C ) :  -0.3934 B(  4-C , 12-C ) :   0.3628 
B(  4-C , 21-H ) :   0.7834 B(  5-C ,  6-C ) :   0.5700 B(  5-C ,  7-C ) :  -0.5127 
B(  5-C ,  8-C ) :   0.0723 B(  5-C , 10-C ) :   0.1542 B(  5-C , 11-C ) :   0.2194 
B(  5-C , 12-C ) :  -0.7267 B(  5-C , 22-H ) :   0.7857 B(  6-C ,  7-C ) :   0.0951 
B(  6-C ,  9-C ) :  -0.0992 B(  6-C , 10-C ) :  -0.1282 B(  6-C , 11-C ) :   1.0194 
B(  6-C , 12-C ) :   0.1491 B(  6-C , 22-H ) :  -0.0847 B(  7-C ,  8-C ) :   0.5926 
B(  7-C ,  9-C ) :  -0.3076 B(  7-C , 10-C ) :  -0.3297 B(  7-C , 11-C ) :  -0.2324 
B(  7-C , 12-C ) :   0.2916 B(  7-C , 13-O ) :  -0.1497 B(  7-C , 23-H ) :   0.7066 
B(  8-C ,  9-C ) :   0.7024 B(  8-C , 10-C ) :   0.1004 B(  8-C , 11-C ) :  -0.0531 
B(  8-C , 13-O ) :   0.5630 B(  8-C , 14-C ) :  -0.3220 B(  9-C , 10-C ) :  -0.0823 
B(  9-C , 11-C ) :   0.0658 B(  9-C , 13-O ) :  -0.0974 B(  9-C , 24-H ) :   0.7765 
B(  9-C , 25-H ) :  -0.0506 B( 10-C , 11-C ) :   0.5031 B( 10-C , 12-C ) :  -0.5309 
B( 10-C , 25-H ) :   0.7932 B( 11-C , 12-C ) :  -0.6682 B( 11-C , 25-H ) :  -0.0506 
B( 11-C , 26-H ) :  -0.1405 B( 12-C , 26-H ) :   0.9004 B( 13-O , 14-C ) :   0.3894 
B( 13-O , 27-H ) :  -0.0819 B( 13-O , 28-H ) :  -0.0802 B( 13-O , 29-H ) :  -0.0819 
B( 14-C , 27-H ) :   0.8253 B( 14-C , 28-H ) :   0.7757 B( 14-C , 29-H ) :   0.8255 
B( 15-C , 16-O ) :   1.1141 B( 15-C , 17-O ) :   0.4733 B( 15-C , 20-H ) :  -0.0517 
B( 15-C , 30-H ) :  -0.0923 B( 16-O , 17-O ) :  -0.2227 B( 17-O , 30-H ) :   0.5869 
B( 27-H , 29-H ) :  -0.0799 


                     *******************************
                     * LOEWDIN POPULATION ANALYSIS *
                     *******************************

----------------------
LOEWDIN ATOMIC CHARGES
----------------------
   0 C :   -0.370798
   1 C :   -0.166401
   2 H :    0.173836
   3 C :   -0.086771
   4 C :   -0.161812
   5 C :   -0.145439
   6 C :   -0.045877
   7 C :   -0.163062
   8 C :    0.192262
   9 C :   -0.116672
  10 C :   -0.128633
  11 C :   -0.060855
  12 C :   -0.115995
  13 O :   -0.679779
  14 C :   -0.053917
  15 C :    0.351090
  16 O :   -0.396947
  17 O :   -0.391533
  18 H :    0.158411
  19 H :    0.160283
  20 H :    0.174166
  21 H :    0.168800
  22 H :    0.170201
  23 H :    0.178066
  24 H :    0.183410
  25 H :    0.175091
  26 H :    0.189481
  27 H :    0.166032
  28 H :    0.181129
  29 H :    0.166050
  30 H :    0.296184

-------------------------------
LOEWDIN REDUCED ORBITAL CHARGES
-------------------------------
  0 C s       :     2.964769  s :     2.964769
      pz      :     1.063507  p :     3.343436
      px      :     1.144376
      py      :     1.135552
      dz2     :     0.016906  d :     0.062593
      dxz     :     0.007978
      dyz     :     0.014798
      dx2y2   :     0.015441
      dxy     :     0.007470

  1 C s       :     2.887996  s :     2.887996
      pz      :     1.102330  p :     3.186085
      px      :     1.051756
      py      :     1.031998
      dz2     :     0.020020  d :     0.092320
      dxz     :     0.015660
      dyz     :     0.019188
      dx2y2   :     0.022067
      dxy     :     0.015386

  2 H s       :     0.782470  s :     0.782470
      pz      :     0.017567  p :     0.043694
      px      :     0.010851
      py      :     0.015276

  3 C s       :     2.858097  s :     2.858097
      pz      :     1.036242  p :     3.129878
      px      :     1.031978
      py      :     1.061659
      dz2     :     0.014602  d :     0.098796
      dxz     :     0.019229
      dyz     :     0.014428
      dx2y2   :     0.026223
      dxy     :     0.024314

  4 C s       :     2.895746  s :     2.895746
      pz      :     1.031924  p :     3.182809
      px      :     1.102285
      py      :     1.048601
      dz2     :     0.009389  d :     0.083257
      dxz     :     0.019623
      dyz     :     0.009630
      dx2y2   :     0.020325
      dxy     :     0.024290

  5 C s       :     2.894832  s :     2.894832
      pz      :     1.027649  p :     3.169008
      px      :     1.094695
      py      :     1.046664
      dz2     :     0.007687  d :     0.081599
      dxz     :     0.019486
      dyz     :     0.009678
      dx2y2   :     0.020882
      dxy     :     0.023865

  6 C s       :     2.841074  s :     2.841074
      pz      :     1.005920  p :     3.102746
      px      :     1.065128
      py      :     1.031698
      dz2     :     0.012799  d :     0.102056
      dxz     :     0.022608
      dyz     :     0.013736
      dx2y2   :     0.025916
      dxy     :     0.026996

  7 C s       :     2.880377  s :     2.880377
      pz      :     1.076052  p :     3.205564
      px      :     1.052837
      py      :     1.076675
      dz2     :     0.008131  d :     0.077121
      dxz     :     0.017426
      dyz     :     0.010130
      dx2y2   :     0.019795
      dxy     :     0.021639

  8 C s       :     2.778079  s :     2.778079
      pz      :     0.972136  p :     2.870508
      px      :     0.886913
      py      :     1.011459
      dz2     :     0.020017  d :     0.159151
      dxz     :     0.038593
      dyz     :     0.013854
      dx2y2   :     0.043335
      dxy     :     0.043350

  9 C s       :     2.892071  s :     2.892071
      pz      :     1.020438  p :     3.147010
      px      :     1.087786
      py      :     1.038786
      dz2     :     0.008640  d :     0.077591
      dxz     :     0.018388
      dyz     :     0.009043
      dx2y2   :     0.018285
      dxy     :     0.023236

 10 C s       :     2.894602  s :     2.894602
      pz      :     1.017123  p :     3.151568
      px      :     1.094541
      py      :     1.039904
      dz2     :     0.007759  d :     0.082464
      dxz     :     0.020049
      dyz     :     0.009581
      dx2y2   :     0.020912
      dxy     :     0.024162

 11 C s       :     2.840482  s :     2.840482
      pz      :     1.015152  p :     3.119808
      px      :     1.068945
      py      :     1.035711
      dz2     :     0.012686  d :     0.100565
      dxz     :     0.021641
      dyz     :     0.013758
      dx2y2   :     0.025773
      dxy     :     0.026706

 12 C s       :     2.883958  s :     2.883958
      pz      :     1.030893  p :     3.150319
      px      :     1.066077
      py      :     1.053349
      dz2     :     0.008832  d :     0.081717
      dxz     :     0.018319
      dyz     :     0.010394
      dx2y2   :     0.021707
      dxy     :     0.022467

 13 O s       :     3.470898  s :     3.470898
      pz      :     1.686668  p :     4.721973
      px      :     1.380073
      py      :     1.655232
      dz2     :     0.081677  d :     0.486908
      dxz     :     0.108381
      dyz     :     0.051324
      dx2y2   :     0.129642
      dxy     :     0.115885

 14 C s       :     2.902546  s :     2.902546
      pz      :     1.017737  p :     3.040770
      px      :     1.031478
      py      :     0.991555
      dz2     :     0.033447  d :     0.110601
      dxz     :     0.012651
      dyz     :     0.018301
      dx2y2   :     0.030683
      dxy     :     0.015519

 15 C s       :     2.746473  s :     2.746473
      pz      :     0.913098  p :     2.630908
      px      :     0.743139
      py      :     0.974671
      dz2     :     0.104773  d :     0.271530
      dxz     :     0.049289
      dyz     :     0.070794
      dx2y2   :     0.025359
      dxy     :     0.021315

 16 O s       :     3.545834  s :     3.545834
      pz      :     1.580797  p :     4.633258
      px      :     1.429028
      py      :     1.623432
      dz2     :     0.063164  d :     0.217856
      dxz     :     0.033810
      dyz     :     0.061851
      dx2y2   :     0.034001
      dxy     :     0.025030

 17 O s       :     3.476217  s :     3.476217
      pz      :     1.321791  p :     4.668721
      px      :     1.718750
      py      :     1.628179
      dz2     :     0.068714  d :     0.246595
      dxz     :     0.047850
      dyz     :     0.092179
      dx2y2   :     0.022735
      dxy     :     0.015116

 18 H s       :     0.797820  s :     0.797820
      pz      :     0.008461  p :     0.043769
      px      :     0.011224
      py      :     0.024084

 19 H s       :     0.796041  s :     0.796041
      pz      :     0.007991  p :     0.043676
      px      :     0.027739
      py      :     0.007946

 20 H s       :     0.781323  s :     0.781323
      pz      :     0.018134  p :     0.044511
      px      :     0.009808
      py      :     0.016569

 21 H s       :     0.786408  s :     0.786408
      pz      :     0.013742  p :     0.044792
      px      :     0.013183
      py      :     0.017867

 22 H s       :     0.784928  s :     0.784928
      pz      :     0.015745  p :     0.044871
      px      :     0.011120
      py      :     0.018006

 23 H s       :     0.775142  s :     0.775142
      pz      :     0.016966  p :     0.046792
      px      :     0.011043
      py      :     0.018783

 24 H s       :     0.771457  s :     0.771457
      pz      :     0.013516  p :     0.045133
      px      :     0.014304
      py      :     0.017313

 25 H s       :     0.780018  s :     0.780018
      pz      :     0.015722  p :     0.044890
      px      :     0.011090
      py      :     0.018078

 26 H s       :     0.764199  s :     0.764199
      pz      :     0.015852  p :     0.046319
      px      :     0.011967
      py      :     0.018500

 27 H s       :     0.793011  s :     0.793011
      pz      :     0.025911  p :     0.040957
      px      :     0.008127
      py      :     0.006920

 28 H s       :     0.779325  s :     0.779325
      pz      :     0.007081  p :     0.039546
      px      :     0.024652
      py      :     0.007812

 29 H s       :     0.792985  s :     0.792985
      pz      :     0.008973  p :     0.040965
      px      :     0.007400
      py      :     0.024592

 30 H s       :     0.585392  s :     0.585392
      pz      :     0.041507  p :     0.118424
      px      :     0.030202
      py      :     0.046714


---------------------------------
LOEWDIN BOND ORDERS (THRESH 0.050000)
---------------------------------
B(  0-C ,  1-C ) :   1.0777 B(  0-C ,  3-C ) :   0.0713 B(  0-C , 15-C ) :   0.0690 
B(  0-C , 16-O ) :   0.0512 B(  0-C , 18-H ) :   0.9169 B(  0-C , 19-H ) :   0.9181 
B(  0-C , 20-H ) :   0.9059 B(  1-C ,  2-H ) :   0.8332 B(  1-C ,  3-C ) :   1.0105 
B(  1-C ,  4-C ) :   0.0895 B(  1-C , 12-C ) :   0.0833 B(  1-C , 15-C ) :   0.8811 
B(  1-C , 16-O ) :   0.1797 B(  1-C , 17-O ) :   0.1672 B(  3-C ,  4-C ) :   1.3333 
B(  3-C ,  5-C ) :   0.0912 B(  3-C ,  6-C ) :   0.0783 B(  3-C , 11-C ) :   0.0916 
B(  3-C , 12-C ) :   1.5033 B(  3-C , 15-C ) :   0.0771 B(  3-C , 21-H ) :   0.0505 
B(  3-C , 26-H ) :   0.0526 B(  4-C ,  5-C ) :   1.6021 B(  4-C ,  6-C ) :   0.0884 
B(  4-C , 11-C ) :   0.0819 B(  4-C , 12-C ) :   0.0835 B(  4-C , 21-H ) :   0.8651 
B(  4-C , 22-H ) :   0.0568 B(  5-C ,  6-C ) :   1.3182 B(  5-C ,  7-C ) :   0.0966 
B(  5-C , 11-C ) :   0.0777 B(  5-C , 12-C ) :   0.1270 B(  5-C , 21-H ) :   0.0570 
B(  5-C , 22-H ) :   0.8643 B(  6-C ,  7-C ) :   1.3059 B(  6-C ,  8-C ) :   0.0943 
B(  6-C ,  9-C ) :   0.0767 B(  6-C , 10-C ) :   0.0771 B(  6-C , 11-C ) :   1.2362 
B(  6-C , 12-C ) :   0.0792 B(  6-C , 22-H ) :   0.0509 B(  6-C , 23-H ) :   0.0505 
B(  7-C ,  8-C ) :   1.4068 B(  7-C ,  9-C ) :   0.0831 B(  7-C , 10-C ) :   0.1154 
B(  7-C , 11-C ) :   0.0790 B(  7-C , 13-O ) :   0.2305 B(  7-C , 23-H ) :   0.8494 
B(  8-C ,  9-C ) :   1.1949 B(  8-C , 10-C ) :   0.0909 B(  8-C , 11-C ) :   0.0657 
B(  8-C , 13-O ) :   1.4637 B(  8-C , 14-C ) :   0.0800 B(  8-C , 23-H ) :   0.0534 
B(  8-C , 24-H ) :   0.0513 B(  9-C , 10-C ) :   1.6442 B(  9-C , 11-C ) :   0.0905 
B(  9-C , 13-O ) :   0.2038 B(  9-C , 24-H ) :   0.8567 B(  9-C , 25-H ) :   0.0571 
B( 10-C , 11-C ) :   1.2910 B( 10-C , 12-C ) :   0.0959 B( 10-C , 24-H ) :   0.0566 
B( 10-C , 25-H ) :   0.8624 B( 11-C , 12-C ) :   1.3346 B( 11-C , 25-H ) :   0.0504 
B( 11-C , 26-H ) :   0.0500 B( 12-C , 26-H ) :   0.8418 B( 13-O , 14-C ) :   1.4002 
B( 13-O , 27-H ) :   0.1039 B( 13-O , 28-H ) :   0.1021 B( 13-O , 29-H ) :   0.1039 
B( 14-C , 27-H ) :   0.8589 B( 14-C , 28-H ) :   0.8602 B( 14-C , 29-H ) :   0.8588 
B( 15-C , 16-O ) :   2.2102 B( 15-C , 17-O ) :   1.4644 B( 15-C , 30-H ) :   0.0549 
B( 16-O , 17-O ) :   0.4748 B( 17-O , 30-H ) :   0.9230 

------------------------------------------
LOEWDIN REDUCED ORBITAL POPULATIONS PER MO
-------------------------------------------
THRESHOLD FOR PRINTING IS 0.1%%
                      0         1         2         3         4         5   
                 -19.00358 -18.99406 -18.93188 -10.16081 -10.10295 -10.09302
                   2.00000   2.00000   2.00000   2.00000   2.00000   2.00000
                  --------  --------  --------  --------  --------  --------
 8 C  s               0.0       0.0       0.0       0.0      99.2       0.0
13 O  s               0.0      99.9       0.0       0.0       0.0       0.0
13 O  px              0.0       0.0       0.0       0.0       0.1       0.0
13 O  dyz             0.0       0.0       0.0       0.0       0.0       0.1
13 O  dx2y2           0.0       0.0       0.0       0.0       0.2       0.0
14 C  s               0.0       0.0       0.0       0.0       0.0      99.4
15 C  s               0.0       0.0       0.0      98.9       0.0       0.0
16 O  s               0.0       0.0      99.9       0.0       0.0       0.0
16 O  pz              0.0       0.0       0.0       0.1       0.0       0.0
16 O  dyz             0.0       0.0       0.0       0.2       0.0       0.0
17 O  s              99.9       0.0       0.0       0.0       0.0       0.0
17 O  pz              0.0       0.0       0.0       0.1       0.0       0.0
17 O  dz2             0.0       0.0       0.0       0.2       0.0       0.0

                      6         7         8         9        10        11   
                 -10.06578 -10.05374 -10.05278 -10.04782 -10.04423 -10.04387
                   2.00000   2.00000   2.00000   2.00000   2.00000   2.00000
                  --------  --------  --------  --------  --------  --------
 1 C  s              99.6       0.0       0.0       0.0       0.0       0.0
 3 C  s               0.0      99.5       0.0       0.0       0.1       0.0
 4 C  s               0.0       0.1       0.0       0.0      97.2       0.0
 5 C  s               0.0       0.0       0.1       0.0       2.3       0.0
 5 C  px              0.0       0.0       0.0       0.0       0.1       0.0
 6 C  s               0.0       0.0      99.4       0.1       0.0       0.0
 7 C  px              0.0       0.0       0.1       0.0       0.0       0.0
 9 C  s               0.0       0.0       0.0       0.0       0.0       0.9
 9 C  px              0.0       0.0       0.0       0.0       0.0       0.1
10 C  s               0.0       0.0       0.0       0.2       0.0      98.5
11 C  s               0.0       0.0       0.1      99.1       0.0       0.2
12 C  px              0.0       0.0       0.0       0.1       0.0       0.0

                     12        13        14        15        16        17   
                 -10.04242 -10.04075 -10.03938 -10.03814 -10.02772  -1.07255
                   2.00000   2.00000   2.00000   2.00000   2.00000   2.00000
                  --------  --------  --------  --------  --------  --------
 0 C  s               0.0       0.0       0.0       0.0      99.7       0.1
 0 C  pz              0.0       0.0       0.0       0.0       0.0       0.1
 0 C  py              0.0       0.0       0.0       0.0       0.0       0.2
 1 C  s               0.0       0.0       0.0       0.0       0.0       1.2
 1 C  pz              0.0       0.0       0.0       0.0       0.1       0.2
 1 C  px              0.0       0.0       0.0       0.0       0.0       0.2
 1 C  py              0.0       0.0       0.0       0.0       0.0       1.9
 3 C  s               0.0       0.0       0.1       0.0       0.0       0.1
 3 C  px              0.0       0.0       0.0       0.0       0.0       0.3
 4 C  s               2.3       0.0       0.0       0.0       0.0       0.0
 4 C  px              0.1       0.0       0.0       0.0       0.0       0.0
 5 C  s              97.2       0.0       0.0       0.0       0.0       0.0
 6 C  px              0.0       0.0       0.0       0.1       0.0       0.0
 7 C  s               0.0       0.0       0.0      99.6       0.0       0.0
 9 C  s               0.0      98.7       0.0       0.0       0.0       0.0
10 C  s               0.0       0.9       0.0       0.0       0.0       0.0
10 C  px              0.0       0.1       0.0       0.0       0.0       0.0
11 C  px              0.0       0.0       0.1       0.0       0.0       0.0
12 C  s               0.0       0.0      99.5       0.0       0.0       0.0
15 C  s               0.0       0.0       0.0       0.0       0.0      17.3
15 C  pz              0.0       0.0       0.0       0.0       0.0       2.1
15 C  px              0.0       0.0       0.0       0.0       0.0       0.2
15 C  py              0.0       0.0       0.0       0.0       0.0       2.6
15 C  dz2             0.0       0.0       0.0       0.0       0.0       1.0
16 O  s               0.0       0.0       0.0       0.0       0.0      12.2
16 O  pz              0.0       0.0       0.0       0.0       0.0       2.2
16 O  px              0.0       0.0       0.0       0.0       0.0       0.1
16 O  py              0.0       0.0       0.0       0.0       0.0       0.9
16 O  dz2             0.0       0.0       0.0       0.0       0.0       0.8
16 O  dyz             0.0       0.0       0.0       0.0       0.0       0.5
17 O  s               0.0       0.0       0.0       0.0       0.0      43.5
17 O  pz              0.0       0.0       0.0       0.0       0.0       1.5
17 O  py              0.0       0.0       0.0       0.0       0.0       1.3
17 O  dz2             0.0       0.0       0.0       0.0       0.0       0.8
30 H  s               0.0       0.0       0.0       0.0       0.0       6.3
30 H  pz              0.0       0.0       0.0       0.0       0.0       0.8
30 H  py              0.0       0.0       0.0       0.0       0.0       0.5

                     18        19        20        21        22        23   
                  -1.04149  -0.98265  -0.85475  -0.81248  -0.77064  -0.74743
                   2.00000   2.00000   2.00000   2.00000   2.00000   2.00000
                  --------  --------  --------  --------  --------  --------
 0 C  s               0.0       0.1       0.4       2.7       7.1       1.5
 0 C  pz              0.0       0.0       0.2       0.9       1.2       0.2
 0 C  px              0.0       0.0       0.1       0.2       0.1       0.0
 0 C  py              0.0       0.2       0.0       0.1       0.2       0.0
 1 C  s               0.0       0.2       1.9       9.3      13.2       2.1
 1 C  pz              0.0       0.3       0.0       0.0       0.4       0.0
 1 C  px              0.0       0.0       0.9       1.2       0.0       0.1
 1 C  py              0.0       0.3       0.0       0.0       0.0       0.1
 2 H  s               0.0       0.0       0.2       1.2       2.0       0.4
 2 H  pz              0.0       0.0       0.0       0.1       0.1       0.0
 3 C  s               0.0       0.0       7.9      12.9       1.1       0.1
 3 C  pz              0.0       0.0       0.0       0.0       0.6       0.9
 3 C  px              0.0       0.0       0.9       0.3       5.5       1.4
 3 C  py              0.0       0.0       0.0       0.1       0.3       1.9
 4 C  s               0.0       0.0       6.3       6.1       2.9       1.8
 4 C  pz              0.0       0.0       0.4       0.6       0.1       0.1
 4 C  px              0.0       0.0       0.5       0.3       3.6       0.4
 4 C  py              0.0       0.0       0.8       0.8       0.1       0.2
 5 C  s               0.0       0.0       7.4       0.8       9.8       4.5
 5 C  pz              0.0       0.0       0.8       0.0       0.2       0.0
 5 C  px              0.0       0.0       0.0       2.1       0.0       0.1
 5 C  py              0.0       0.0       1.1       0.0       0.3       0.0
 6 C  s               0.1       0.0      13.5       1.4       5.1       2.2
 6 C  pz              0.0       0.0       0.2       0.3       0.6       2.2
 6 C  px              0.1       0.0       0.3       2.5       1.2       2.9
 6 C  py              0.0       0.0       0.2       0.6       1.1       2.8
 6 C  dyz             0.0       0.0       0.1       0.0       0.0       0.0
 7 C  s               0.8       0.0       5.3       4.8       0.0       9.9
 7 C  pz              0.2       0.0       0.2       0.5       0.4       0.1
 7 C  px              0.8       0.0       1.5       0.0       1.4       0.0
 7 C  py              0.4       0.0       0.2       0.7       0.7       0.1
 8 C  s               8.9       0.0       2.5       5.3       2.9       4.5
 8 C  pz              0.0       0.0       0.0       0.1       0.6       0.6
 8 C  px              8.7       0.0       2.3       2.8       0.5       0.6
 8 C  py              0.0       0.0       0.0       0.0       0.9       1.0
 8 C  dz2             0.2       0.0       0.0       0.0       0.0       0.0
 8 C  dx2y2           0.7       0.0       0.0       0.0       0.0       0.0
 9 C  s               0.7       0.0       3.5       7.3       6.7       0.2
 9 C  pz              0.3       0.0       0.2       0.3       0.1       0.6
 9 C  px              0.6       0.0       0.8       0.3       0.1       2.9
 9 C  py              0.4       0.0       0.4       0.5       0.2       0.6
10 C  s               0.1       0.0       5.9       5.0       3.1       8.4
10 C  pz              0.0       0.0       0.7       0.2       0.0       0.1
10 C  px              0.1       0.0       0.0       1.2       1.3       1.3
10 C  py              0.0       0.0       1.1       0.2       0.0       0.3
11 C  s               0.0       0.0      13.8       0.8       0.1      10.8
11 C  pz              0.0       0.0       0.2       0.1       1.2       1.5
11 C  px              0.0       0.0       0.0       4.1       0.1       1.3
11 C  py              0.0       0.0       0.3       0.3       1.9       2.0
11 C  dyz             0.0       0.0       0.1       0.0       0.0       0.0
12 C  s               0.0       0.0       8.2       2.9       0.1       8.7
12 C  pz              0.0       0.0       0.5       0.6       0.0       0.1
12 C  px              0.0       0.0       0.8       1.9       0.9       2.0
12 C  py              0.0       0.0       0.6       1.2       0.0       0.2
13 O  s              57.0       0.0       0.4       0.7       0.2       0.4
13 O  pz              0.6       0.0       0.0       0.2       0.3       0.2
13 O  px              0.8       0.0       0.5       1.6       1.7       2.8
13 O  py              1.1       0.0       0.0       0.2       0.3       0.1
13 O  dz2             0.1       0.0       0.0       0.1       0.1       0.1
13 O  dyz             0.1       0.0       0.0       0.0       0.0       0.0
13 O  dx2y2           0.2       0.0       0.1       0.3       0.2       0.3
13 O  dxy             0.0       0.0       0.0       0.0       0.0       0.2
14 C  s               7.0       0.0       0.2       0.8       1.2       1.6
14 C  pz              2.1       0.0       0.0       0.1       0.0       0.1
14 C  px              2.4       0.0       0.0       0.1       0.0       0.2
14 C  py              2.7       0.0       0.0       0.1       0.1       0.1
14 C  dxz             0.2       0.0       0.0       0.0       0.0       0.0
14 C  dyz             0.2       0.0       0.0       0.0       0.0       0.0
14 C  dxy             0.3       0.0       0.0       0.0       0.0       0.0
15 C  s               0.0       3.9       0.1       0.4       0.8       0.1
15 C  pz              0.0      20.7       0.0       0.0       0.1       0.0
15 C  px              0.0       0.5       0.2       0.6       0.6       0.0
15 C  py              0.0       2.8       0.5       2.5       4.3       0.7
15 C  dxz             0.0       0.2       0.0       0.0       0.0       0.0
15 C  dyz             0.0       1.4       0.0       0.0       0.0       0.0
15 C  dx2y2           0.0       0.1       0.0       0.0       0.0       0.0
16 O  s               0.0      41.1       0.1       0.4       0.7       0.1
16 O  pz              0.0       1.8       0.0       0.0       0.0       0.0
16 O  px              0.0       0.2       0.0       0.0       0.0       0.0
16 O  py              0.0       1.7       0.0       0.1       0.2       0.0
16 O  dz2             0.0       0.2       0.0       0.0       0.1       0.0
16 O  dyz             0.0       0.1       0.0       0.0       0.1       0.0
16 O  dx2y2           0.0       0.0       0.0       0.0       0.1       0.0
17 O  s               0.0      16.5       0.0       0.3       0.4       0.1
17 O  pz              0.0       1.1       0.0       0.0       0.1       0.0
17 O  py              0.0       0.8       0.0       0.0       0.1       0.0
17 O  dz2             0.0       1.1       0.0       0.0       0.0       0.0
17 O  dyz             0.0       0.0       0.0       0.1       0.2       0.0
18 H  s               0.0       0.0       0.0       0.3       1.0       0.2
19 H  s               0.0       0.0       0.0       0.3       0.9       0.2
20 H  s               0.0       0.0       0.0       0.3       0.9       0.2
[...]
15 C  s               0.1       0.0       0.2       0.0       0.1       0.3
15 C  pz              2.5       0.0       0.0       0.0       0.0       0.0
15 C  py              0.3       0.0       0.0       0.0       0.0       0.0
15 C  dz2             1.3       0.0       0.0       0.0       0.0       0.0
15 C  dxz             0.1       0.0       0.0       0.0       0.0       0.0
15 C  dyz             1.4       0.0       0.0       0.0       0.0       0.0
15 C  dx2y2           0.3       0.0       0.0       0.0       0.0       0.0
15 C  dxy             0.3       0.0       0.0       0.0       0.0       0.0
16 O  s               1.3       0.0       0.0       0.0       0.0       0.0
16 O  pz              1.0       0.0       0.0       0.0       0.0       0.0
16 O  py              0.4       0.0       0.0       0.0       0.0       0.0
16 O  dz2             0.8       0.0       0.0       0.0       0.0       0.0
16 O  dxz             0.2       0.0       0.0       0.0       0.0       0.0
16 O  dyz             1.4       0.0       0.0       0.0       0.0       0.0
17 O  s               5.1       0.0       0.0       0.0       0.0       0.0
17 O  pz             15.1       0.0       0.0       0.0       0.0       0.0
17 O  px              0.9       0.0       0.0       0.0       0.0       0.0
17 O  py              5.1       0.0       0.0       0.0       0.0       0.0
17 O  dz2             0.3       0.0       0.0       0.0       0.0       0.0
17 O  dxz             2.9       0.0       0.0       0.0       0.0       0.0
17 O  dyz            25.8       0.0       0.0       0.0       0.0       0.0
17 O  dx2y2           3.7       0.0       0.0       0.0       0.0       0.0
17 O  dxy             2.8       0.0       0.0       0.0       0.0       0.0
30 H  s              11.9       0.0       0.0       0.0       0.0       0.0
30 H  pz              6.4       0.0       0.0       0.0       0.0       0.0
30 H  px              0.9       0.0       0.0       0.0       0.0       0.0
30 H  py              6.8       0.0       0.0       0.0       0.0       0.0

                    396       397       398       399       400       401   
                  22.01116  22.07186  22.18155  22.21244  22.22635  22.23979
                   0.00000   0.00000   0.00000   0.00000   0.00000   0.00000
                  --------  --------  --------  --------  --------  --------
 0 C  s              58.4       0.9       0.0       0.1       2.7       0.1
 1 C  s              11.3       1.1       0.4       1.0      43.7       0.1
 3 C  s               1.7      15.9      21.9       0.0       1.6       0.4
 4 C  s               6.6       0.7       3.8      12.9       0.3       7.4
 5 C  s               0.4      20.8       9.2       1.8       0.7       9.6
 6 C  s               3.9       2.3      22.4       2.0       2.3       3.6
 7 C  s               0.2      16.5       0.3       7.8       0.3      15.1
 8 C  s               2.9      12.1      16.8       4.3       0.3      11.9
 9 C  s               4.4       6.9       2.7      25.5       1.0       0.1
10 C  s               0.0       7.1       0.5      22.9       0.1      13.3
11 C  s               6.6       0.0       3.4       2.5       0.1      17.8
12 C  s               0.5       9.9       3.6      17.8       0.7      18.7
14 C  s               0.0       4.3       0.8       0.3       0.1       0.2
15 C  s               2.6       0.7      13.7       0.4      45.8       1.1

                    402       403       404       405       406       407   
                  22.33265  22.36025  22.38871  43.68104  43.72612  43.76137
                   0.00000   0.00000   0.00000   0.00000   0.00000   0.00000
                  --------  --------  --------  --------  --------  --------
 0 C  s               5.5       5.4       0.2       0.0       0.0       0.0
 1 C  s              21.5      17.1       0.2       0.0       0.0       0.0
 3 C  s               0.2      15.7      15.1       0.0       0.0       0.0
 4 C  s               9.8       3.6      11.1       0.0       0.0       0.0
 5 C  s              13.4       0.1      11.9       0.0       0.0       0.0
 6 C  s               0.0       1.2      13.9       0.0       0.0       0.0
 7 C  s               7.4       8.0       4.3       0.0       0.0       0.0
 8 C  s              15.0       9.5       2.4       0.0       0.0       0.0
 9 C  s               5.1       7.9       2.4       0.0       0.0       0.0
10 C  s               4.7       8.0       5.9       0.0       0.0       0.0
11 C  s               0.0       3.5      16.3       0.0       0.0       0.0
12 C  s               0.2       1.7      15.4       0.0       0.0       0.0
13 O  s               0.0       0.0       0.0       0.0      96.9       3.0
14 C  s               0.1       0.2       0.0       0.0       0.0       0.0
15 C  s              16.0      17.6       0.5       0.0       0.0       0.1
16 O  s               0.0       0.1       0.0       5.4       2.8      91.7
17 O  s               0.0       0.0       0.0      94.5       0.1       5.2



                      *****************************
                      * MAYER POPULATION ANALYSIS *
                      *****************************

  NA   - Mulliken gross atomic population
  ZA   - Total nuclear charge
  QA   - Mulliken gross atomic charge
  VA   - Mayer's total valence
  BVA  - Mayer's bonded valence
  FA   - Mayer's free valence

  ATOM       NA         ZA         QA         VA         BVA        FA
  0 C      6.4934     6.0000    -0.4934     3.8749     3.8749     0.0000
  1 C      6.1785     6.0000    -0.1785     3.6993     3.6993     0.0000
  2 H      0.8457     1.0000     0.1543     0.9627     0.9627     0.0000
  3 C      5.8422     6.0000     0.1578     3.3512     3.3512     0.0000
  4 C      6.2293     6.0000    -0.2293     3.7781     3.7781     0.0000
  5 C      6.3060     6.0000    -0.3060     3.7292     3.7292     0.0000
  6 C      5.7668     6.0000     0.2332     3.8515     3.8515     0.0000
  7 C      6.3680     6.0000    -0.3680     3.5738     3.5738     0.0000
  8 C      5.6345     6.0000     0.3655     3.7867     3.7867     0.0000
  9 C      6.3152     6.0000    -0.3152     3.7415     3.7415     0.0000
 10 C      6.2572     6.0000    -0.2572     3.6318     3.6318    -0.0000
 11 C      5.8276     6.0000     0.1724     3.8804     3.8804     0.0000
 12 C      6.2394     6.0000    -0.2394     3.8769     3.8769    -0.0000
 13 O      8.1790     8.0000    -0.1790     2.0000     2.0000     0.0000
 14 C      6.3310     6.0000    -0.3310     3.7627     3.7627     0.0000
 15 C      5.6565     6.0000     0.3435     3.9609     3.9609     0.0000
 16 O      8.3862     8.0000    -0.3862     2.0331     2.0331    -0.0000
 17 O      8.3260     8.0000    -0.3260     1.9601     1.9601     0.0000
 18 H      0.8480     1.0000     0.1520     0.9616     0.9616    -0.0000
 19 H      0.8479     1.0000     0.1521     0.9619     0.9619     0.0000
 20 H      0.8168     1.0000     0.1832     0.9577     0.9577     0.0000
 21 H      0.8547     1.0000     0.1453     0.9703     0.9703     0.0000
 22 H      0.8606     1.0000     0.1394     0.9737     0.9737     0.0000
 23 H      0.8559     1.0000     0.1441     0.9732     0.9732    -0.0000
 24 H      0.8408     1.0000     0.1592     0.9678     0.9678    -0.0000
 25 H      0.8521     1.0000     0.1479     0.9712     0.9712    -0.0000
 26 H      0.8346     1.0000     0.1654     0.9609     0.9609    -0.0000
 27 H      0.8460     1.0000     0.1540     0.9537     0.9537     0.0000
 28 H      0.8430     1.0000     0.1570     0.9574     0.9574     0.0000
 29 H      0.8460     1.0000     0.1540     0.9538     0.9538    -0.0000
 30 H      0.6710     1.0000     0.3290     0.8926     0.8926     0.0000

  Mayer bond orders larger than 0.100000
B(  0-C ,  1-C ) :   0.9586 B(  0-C , 18-H ) :   0.9697 B(  0-C , 19-H ) :   0.9693 
B(  0-C , 20-H ) :   0.9707 B(  1-C ,  2-H ) :   1.0159 B(  1-C ,  3-C ) :   0.7407 
B(  1-C , 15-C ) :   0.9358 B(  3-C ,  4-C ) :   1.2192 B(  3-C , 12-C ) :   1.5156 
B(  4-C ,  5-C ) :   1.4993 B(  4-C , 21-H ) :   0.9415 B(  5-C ,  6-C ) :   1.2186 
B(  5-C , 22-H ) :   0.9553 B(  6-C ,  7-C ) :   1.1794 B(  6-C , 11-C ) :   1.5170 
B(  7-C ,  8-C ) :   1.4287 B(  7-C , 23-H ) :   0.9012 B(  8-C ,  9-C ) :   1.2648 
B(  8-C , 13-O ) :   1.0659 B(  9-C , 10-C ) :   1.4504 B(  9-C , 24-H ) :   0.9453 
B( 10-C , 11-C ) :   1.2115 B( 10-C , 25-H ) :   0.9494 B( 11-C , 12-C ) :   1.1920 
B( 12-C , 26-H ) :   0.9481 B( 13-O , 14-C ) :   0.8566 B( 14-C , 27-H ) :   0.9625 
B( 14-C , 28-H ) :   0.9677 B( 14-C , 29-H ) :   0.9626 B( 15-C , 16-O ) :   1.9567 
B( 15-C , 17-O ) :   1.0690 B( 17-O , 30-H ) :   0.8659 

-------
TIMINGS
-------

Total SCF time: 0 days 0 hours 1 min 21 sec 

Total time                  ....      81.885 sec
Sum of individual times     ....      80.645 sec  ( 98.5%)

SCF preparation             ....       0.366 sec  (  0.4%)
Fock matrix formation       ....      76.659 sec  ( 93.6%)
  Startup                   ....       0.098 sec  (  0.1% of F)
  Split-RI-J                ....      23.753 sec  ( 31.0% of F)
  XC integration            ....      51.885 sec  ( 67.7% of F)
    XC Preparation          ....       0.000 sec  (  0.0% of XC)
    Basis function eval.    ....       8.831 sec  ( 17.0% of XC)
    Density eval.           ....      19.424 sec  ( 37.4% of XC)
    XC-Functional eval.     ....       4.219 sec  (  8.1% of XC)
    XC-Potential eval.      ....      17.267 sec  ( 33.3% of XC)
Diagonalization             ....       0.000 sec  (  0.0%)
Density matrix formation    ....       0.510 sec  (  0.6%)
Total Energy calculation    ....       0.065 sec  (  0.1%)
Population analysis         ....       0.385 sec  (  0.5%)
Orbital Transformation      ....       0.407 sec  (  0.5%)
Orbital Orthonormalization  ....       0.000 sec  (  0.0%)
DIIS solution               ....       2.091 sec  (  2.6%)
  MO trafo                  ....       0.000 sec  (  0.0 % of DIIS)
  Orb grad                  ....       0.000 sec  (  0.0 % of DIIS)
  Energy W gradient         ....       0.000 sec  (  0.0 % of DIIS)
  DIIS error                ....       0.085 sec  (  4.0 % of DIIS)
  DIIS work                 ....       1.869 sec  ( 89.4 % of DIIS)
  Form Q                    ....       0.000 sec  (  0.0 % of DIIS)
  Form QpQm                 ....       0.000 sec  (  0.0 % of DIIS)
  Exp/Cayley                ....       0.000 sec  (  0.0 % of DIIS)
  Orb update                ....       0.000 sec  (  0.0 % of DIIS)
  Wake-sleep                ....       0.039 sec  (  1.9 % of DIIS)
SOSCF solution              ....       0.163 sec  (  0.2%)
  MO trafo                  ....       0.115 sec  ( 70.5 % of SOSCF)
  Orb grad                  ....       0.001 sec  (  0.5 % of SOSCF)
  Rot update                ....       0.000 sec  (  0.1 % of SOSCF)
  Step                      ....       0.047 sec  ( 28.7 % of SOSCF)
Finished LeanSCF after  82.0 sec

Maximum memory used throughout the entire LEANSCF-calculation: 50.0 MB


-------------------------------------------------------------------------------
                          DFT DISPERSION CORRECTION                            
                                                                               
                                DFTD4 V3.4.0                                   
-------------------------------------------------------------------------------
The R2SCAN3C composite method is recognized
Using three-body term ABC
Active option DFTDOPT                   ...         5   

-------------------------   ----------------
Dispersion correction           -0.013158826
-------------------------   ----------------

------------------   -----------------
gCP correction             0.013479838
------------------   -----------------

-------------------------   --------------------
FINAL SINGLE POINT ENERGY      -767.443334952344
-------------------------   --------------------


------------------------------------------------------------------------------
                              ORCA PROPERTY CALCULATIONS
------------------------------------------------------------------------------

GBWName                                 ... sp_gas.gbw
Number of atoms                         ...     31
Number of basis functions               ...    408
Max core memory                         ...   1024 MB

Electric properties:
Dipole moment                           ... YES
Quadrupole moment                       ...  NO
Static polarizability (Dipole/Dipole)   ...  NO
Static polarizability (Dipole/Quad.)    ...  NO
Static polarizability (Quad./Quad.)     ...  NO
Static polarizability (Velocity)        ...  NO

Atomic electric properties:
Dipole moment                           ...  NO
Quadrupole moment                       ...  NO
Static polarizability                   ...  NO

Choice of electric origin               ... Center of mass
Position of electric origin             ...     0.000013    -0.000017    -0.000002

General magnetic properties:
Magnetizability                         ...  NO

EPR properties:
g-Tensor (aka g-matrix)                 ...  NO
Zero-Field splitting spin-orbit         ...  NO
Zero-field splitting spin-spin          ...  NO
Hyperfine couplings                     ...  NO (   0 nuclei)
Quadrupole couplings                    ...  NO (   0 nuclei)
Contact density                         ...  NO (   0 nuclei)

NMR properties:
Chemical shifts                         ...  NO (   0 nuclei)
Spin-rotation constants                 ...  NO (   0 nuclei)
Spin-spin couplings                     ...  NO (   0 nuclei,    0 pairs)

Choice of magnetic origin               ... GIAO
Position of magnetic origin             ...     0.000000     0.000000     0.000000

Properties with geometric perturbations:
SCF Hessian                             ...  NO
IR spectrum                             ...  NO
VCD spectrum                            ...  NO
X-ray spectroscopy properties:
SCF XES/XAS/RIXS spectra                ...  NO


-------------
DIPOLE MOMENT
-------------

Method             : SCF
Type of density    : Electron Density
Multiplicity       :   1
Irrep              :   0
Energy             :  -767.4436559648099774 Eh
Relativity type    : 
Basis              : AO
                                X                 Y                 Z
Electronic contribution:     -2.663083726       6.071529834       0.874819259
Nuclear contribution   :      3.716028067      -7.592922163       0.090593956
                        -----------------------------------------
Total Dipole Moment    :      1.052944341      -1.521392329       0.965413215
                        -----------------------------------------
Magnitude (a.u.)       :      2.086947311
Magnitude (Debye)      :      5.304598502



--------------------
Rotational spectrum 
--------------------
 
Rotational constants in cm-1:             0.041616             0.007289             0.006835 
Rotational constants in MHz :          1247.623745           218.514657           204.918520 

Dipole components along the rotational axes: 
x,y,z [a.u.] :     1.107416    -1.767499     0.070191 
x,y,z [Debye]:     2.814829    -4.492624     0.178410 

 

Dipole moment calculation done in   0.0 sec 

Maximum memory used throughout the entire PROP-calculation: 33.0 MB

--------------------------------
SUGGESTED CITATIONS FOR THIS RUN
--------------------------------

Below you find a list of papers that are relevant to this ORCA run
We neither can nor want to force you to cite these papers, but we appreciate if you do
You receive ORCA, which is the product of decades of hard work by many enthusiastic individuals, for free
The only thing we kindly ask in return is that you cite our papers,
We deeply appreciate it, if you show your appreciation for ORCA by not just citing the generic ORCA reference.

Please note that relegating all ORCA citations to the supporting information does *not* help us.
SI sections are not indexed - citations you put there will not count into any citation statistics
But we need these citations in order to attract the funding resources that allow us to do what we are doing

Therefore, if you are a happy ORCA user, please consider citing a few of the papers listed below in the main body of your paper

In addition to the list printed below, the program has created the file sp_gas.bibtex that contains the list in bibtex format
You can import this file easily into all common literature databanks and citation aid programs


List of essential papers. We consider these as the minimum necessary citations

  1. Neese,F.
     Software update: the ORCA program system, version 5.0
     WIRES Comput. Molec. Sci., 2022 12(1)e1606
     doi.org/10.1002/wcms.1606
  2. Grimme,S.; Hansen,A.; Ehlert,S.; Mewes,J.
     r2SCAN-3c: A 'Swiss army knife' composite electronic-structure method
     J. Chem. Phys., 2021 154 064103
     doi.org/10.1063/5.0040021

List of papers to cite with high priority. The work reported in these papers was absolutely
necessary for this run to complete.
Our perspective: the developers of density functionals and basis sets usually get cited in chemistry papers
Good! But without the algorithms to do something with them, the functionals or basis sets would not do anything.
Hence, in our opinion, the algorithm design and method developments papers are equally worthy of getting cited

  1. Neese,F.
     An improvement of the resolution of the identity approximation for the formation of the Coulomb matrix
     J. Comp. Chem., 2003 24(14)1740-1747
     doi.org/10.1002/jcc.10318
  2. Neese,F.
     The SHARK Integral Generation and Digestion System
     J. Comp. Chem., 2022  1-16
     doi.org/10.1002/jcc.26942
  3. Lehtola,S.; Steigemann,C.; Oliveira,M.; Marques,M.
     Recent developments in Libxc - A comprehensive library of functionals for density functional theory
     Software X, 2018 7 
     doi.org/10.1016/j.softx.2017.11.002
  4. Caldeweyher,E.; Bannwarth,C.; Grimme,S.
     Extension of the D3 dispersion coefficient model
     J. Chem. Phys., 2017 147 034112-XXXX
     doi.org/10.1063/1.4993215
  5. Caldeweyher,E.; Ehlert,S.; Hansen,A.; Neugebauer,H.; Spicher,S.; Bannwarth,C.; Grimme,S.
     A generally applicable atomic-charge dependent London dispersion correction
     J. Chem. Phys., 2019 150 154122-XXXX
     doi.org/10.1063/1.5090222
  6. Caldeweyher,E.; Mewes,J.; Ehlert,S.; Grimme,S.
     Extension and evaluation of the D4 London-dispersion model for periodic systems
     Phys. Chem. Chem. Phys., 2020 22(16)8499-8512
     doi.org/10.1039/D0CP00502A

List of suggested additional citations. These are papers that are important in the 'surrounding' of 
of this run, or papers that preceded the highly important papers. If you like your results we are grateful for a citation.

  1. Neese,F.
     The ORCA program system
     WIRES Comput. Molec. Sci., 2012 2(1)73-78
     doi.org/10.1002/wcms.81
  2. Neese,F.
     Software update: the ORCA program system, version 4.0
     WIRES Comput. Molec. Sci., 2018 8(1)1-6
     doi.org/10.1002/wcms.1327
  3. Neese,F.; Wennmohs,F.; Becker,U.; Riplinger,C.
     The ORCA quantum chemistry program package
     J. Chem. Phys., 2020 152 Art. No. L224108
     doi.org/10.1063/5.0004608

List of optional additional citations

  1. Neese,F.
     Approximate second-order SCF convergence for spin unrestricted wavefunctions
     Chem. Phys. Lett., 2000 325(1-3)93-98
     doi.org/10.1016/s0009-2614(00)00662-x

Timings for individual modules:

Sum of individual times          ...       86.196 sec (=   1.437 min)
Startup calculation              ...        3.210 sec (=   0.053 min)   3.7 %
SCF iterations                   ...       82.803 sec (=   1.380 min)  96.1 %
Property calculations            ...        0.184 sec (=   0.003 min)   0.2 %
                             ****ORCA TERMINATED NORMALLY****
TOTAL RUN TIME: 0 days 0 hours 1 minutes 27 seconds 135 msec
