      -----------------------------------------------------------      
     |                   =====================                   |     
     |                           x T B                           |     
     |                   =====================                   |     
     |                         S. Grimme                         |     
     |          Mulliken Center for Theoretical Chemistry        |     
     |                    University of Bonn                     |     
      -----------------------------------------------------------      

   * xtb version 6.7.1 (edcfbbe) compiled by 'albert@albert-system' on 2024-07-22

   xtb is free software: you can redistribute it and/or modify it under
   the terms of the GNU Lesser General Public License as published by
   the Free Software Foundation, either version 3 of the License, or
   (at your option) any later version.
   
   xtb is distributed in the hope that it will be useful,
   but WITHOUT ANY WARRANTY; without even the implied warranty of
   MERCHANTABILITY or FITNESS FOR A PARTICULAR PURPOSE.  See the
   GNU Lesser General Public License for more details.
   
   Cite this work as:
   * C. Bannwarth, E. Caldeweyher, S. Ehlert, A. Hansen, P. Pracht,
     J. Seibert, S. Spicher, S. Grimme, WIREs Comput. Mol. Sci., 2020, 11,
     e01493. DOI: 10.1002/wcms.1493
   
   for GFN2-xTB:
   * C. Bannwarth, S. Ehlert and S. Grimme., J. Chem. Theory Comput., 2019,
     15, 1652-1671. DOI: 10.1021/acs.jctc.8b01176
   for GFN1-xTB:
   * S. Grimme, C. Bannwarth, P. Shushkov, J. Chem. Theory Comput., 2017,
     13, 1989-2009. DOI: 10.1021/acs.jctc.7b00118
   for GFN0-xTB:
   * P. Pracht, E. Caldeweyher, S. Ehlert, S. Grimme, ChemRxiv, 2019, preprint.
     DOI: 10.26434/chemrxiv.8326202.v1
   for GFN-FF:
   * S. Spicher and S. Grimme, Angew. Chem. Int. Ed., 2020, 59, 15665-15673.
     DOI: 10.1002/anie.202004239
   
   for ALPB and GBSA implicit solvation:
   * S. Ehlert, M. Stahn, S. Spicher, S. Grimme, J. Chem. Theory Comput.,
     2021, 17, 4250-4261. DOI: 10.1021/acs.jctc.1c00471
   
   for ddCOSMO and CPCM-X implicit solvation:
   * M. Stahn, S. Ehlert, S. Grimme, J. Phys. Chem. A,
     2023, XX, XXXX-XXXX. DOI: 10.1021/acs.jpca.3c04382
   
   for DFT-D4:
   * E. Caldeweyher, C. Bannwarth and S. Grimme, J. Chem. Phys., 2017,
     147, 034112. DOI: 10.1063/1.4993215
   * E. Caldeweyher, S. Ehlert, A. Hansen, H. Neugebauer, S. Spicher,
     C. Bannwarth and S. Grimme, J. Chem. Phys., 2019, 150, 154122.
     DOI: 10.1063/1.5090222
   * E. Caldeweyher, J.-M. Mewes, S. Ehlert and S. Grimme, Phys. Chem. Chem. Phys.
     2020, 22, 8499-8512. DOI: 10.1039/D0CP00502A
   
   for sTDA-xTB:
   * S. Grimme and C. Bannwarth, J. Chem. Phys., 2016, 145, 054103.
     DOI: 10.1063/1.4959605
   
   in the mass-spec context:
   * V. Asgeirsson, C. Bauer and S. Grimme, Chem. Sci., 2017, 8, 4879.
     DOI: 10.1039/c7sc00601b
   * J. Koopman and S. Grimme, ACS Omega 2019, 4, 12, 15120-15133.
     DOI: 10.1021/acsomega.9b02011
   
   for metadynamics refer to:
   * S. Grimme, J. Chem. Theory Comput., 2019, 155, 2847-2862
     DOI: 10.1021/acs.jctc.9b00143
   
   for SPH calculations refer to:
   * S. Spicher and S. Grimme, J. Chem. Theory Comput., 2021, 17, 1701-1714
     DOI: 10.1021/acs.jctc.0c01306
   
   for ONIOM refer to:
   * C. Plett, A. Katbashev, S. Ehlert, S. Grimme, M. Bursch,
     Phys. Chem. Chem. Phys., 2023, 25, 17860-17868. DOI: 10.1039/D3CP02178E
   
   for DIPRO refer to:
   * J. Kohn, N. Gildemeister, S. Grimme, D. Fazzi, A. Hansen,
     J. Chem. Phys., 2023, just accepted.
   
   for PTB refer to:
   * S. Grimme, M. Mueller, A. Hansen, J. Chem. Phys., 2023, 158, 124111.
     DOI: 10.1063/5.0137838
   
   with help from (in alphabetical order)
   P. Atkinson, C. Bannwarth, F. Bohle, G. Brandenburg, E. Caldeweyher
   M. Checinski, S. Dohm, S. Ehlert, S. Ehrlich, I. Gerasimov, C. Hölzer
   A. Katbashev, J. Kohn, J. Koopman, C. Lavigne, S. Lehtola, F. März, M. Müller,
   F. Musil, H. Neugebauer, J. Pisarek, C. Plett, P. Pracht, F. Pultar,
   J. Seibert, P. Shushkov, S. Spicher, M. Stahn, M. Steiner, T. Strunk,
   J. Stückrath, T. Rose, and J. Unsleber
   
 * started run on 2025/04/11 at 15:56:47.691     
   ID    Z sym.   atoms
    1    6 C      1-7, 9-15, 18, 19
    2    8 O      8, 16, 20
    3    7 N      17
    4    1 H      21-33

           -------------------------------------------------
          |                Calculation Setup                |
           -------------------------------------------------

          program call               : /srv/scratch/z5358697/.xtb/bin/xtb gas.coord --gfn2 --sp --chrg 0 --norestart --parallel 1
          hostname                   : k030
          coordinate file            : gas.coord
          omp threads                :                     1


           -------------------------------------------------
          |                 G F N 2 - x T B                 |
           -------------------------------------------------

        Reference                      10.1021/acs.jctc.8b01176
      * Hamiltonian:
        H0-scaling (s, p, d)           1.850000    2.230000    2.230000
        zeta-weighting                 0.500000
      * Dispersion:
        s8                             2.700000
        a1                             0.520000
        a2                             5.000000
        s9                             5.000000
      * Repulsion:
        kExp                           1.500000    1.000000
        rExp                           1.000000
      * Coulomb:
        alpha                          2.000000
        third order                    shell-resolved
        anisotropic                    true
        a3                             3.000000
        a5                             4.000000
        cn-shift                       1.200000
        cn-exp                         4.000000
        max-rad                        5.000000


          ...................................................
          :                      SETUP                      :
          :.................................................:
          :  # basis functions                  93          :
          :  # atomic orbitals                  93          :
          :  # shells                           53          :
          :  # electrons                       100          :
          :  max. iterations                   250          :
          :  Hamiltonian                  GFN2-xTB          :
          :  restarted?                      false          :
          :  GBSA solvation                  false          :
          :  PC potential                    false          :
          :  electronic temp.          300.0000000     K    :
          :  accuracy                    1.0000000          :
          :  -> integral cutoff          0.2500000E+02      :
          :  -> integral neglect         0.1000000E-07      :
          :  -> SCF convergence          0.1000000E-05 Eh   :
          :  -> wf. convergence          0.1000000E-03 e    :
          :  Broyden damping             0.4000000          :
          :  net charge                          0          :
          :  unpaired electrons                  0          :
          ...................................................

 iter      E             dE          RMSdq      gap      omega  full diag
   1    -56.7119721 -0.567120E+02  0.505E+00    1.08       0.0  T
   2    -56.7951075 -0.831354E-01  0.296E+00    1.68       1.0  T
   3    -56.7836844  0.114230E-01  0.160E+00    1.37       1.0  T
   4    -56.8021357 -0.184512E-01  0.575E-01    1.62       1.0  T
   5    -56.8156617 -0.135261E-01  0.127E-01    1.49       1.0  T
   6    -56.8159717 -0.309965E-03  0.589E-02    1.52       1.0  T
   7    -56.8160052 -0.335134E-04  0.227E-02    1.51       1.0  T
   8    -56.8160058 -0.560227E-06  0.926E-03    1.51       1.9  T
   9    -56.8160069 -0.114041E-05  0.369E-03    1.51       4.7  T
  10    -56.8160070 -0.914197E-07  0.132E-03    1.51      13.2  T
  11    -56.8160070 -0.119390E-08  0.786E-04    1.51      22.1  T
  12    -56.8160070 -0.925249E-08  0.204E-04    1.51      85.3  T

   *** convergence criteria satisfied after 12 iterations ***

         #    Occupation            Energy/Eh            Energy/eV
      -------------------------------------------------------------
         1        2.0000           -0.7066242             -19.2282
       ...           ...                  ...                  ...
        44        2.0000           -0.4291564             -11.6779
        45        2.0000           -0.4204357             -11.4406
        46        2.0000           -0.4168625             -11.3434
        47        2.0000           -0.4143881             -11.2761
        48        2.0000           -0.3956077             -10.7650
        49        2.0000           -0.3785500             -10.3009
        50        2.0000           -0.3696108             -10.0576 (HOMO)
        51                         -0.3140337              -8.5453 (LUMO)
        52                         -0.2640847              -7.1861
        53                         -0.2366066              -6.4384
        54                         -0.2250609              -6.1242
        55                         -0.1786285              -4.8607
       ...                                ...                  ...
        93                          0.7183647              19.5477
      -------------------------------------------------------------
                  HL-Gap            0.0555772 Eh            1.5123 eV
             Fermi-level           -0.3418222 Eh           -9.3015 eV

 SCC (total)                   0 d,  0 h,  0 min,  0.056 sec
 SCC setup                      ...        0 min,  0.000 sec (  0.724%)
 Dispersion                     ...        0 min,  0.000 sec (  0.668%)
 classical contributions        ...        0 min,  0.000 sec (  0.097%)
 integral evaluation            ...        0 min,  0.006 sec ( 10.999%)
 iterations                     ...        0 min,  0.029 sec ( 52.468%)
 molecular gradient             ...        0 min,  0.019 sec ( 34.553%)
 printout                       ...        0 min,  0.000 sec (  0.464%)

         :::::::::::::::::::::::::::::::::::::::::::::::::::::
         ::                     SUMMARY                     ::
         :::::::::::::::::::::::::::::::::::::::::::::::::::::
         :: total energy             -55.999152201243 Eh    ::
         :: gradient norm              0.031310265860 Eh/a0 ::
         :: HOMO-LUMO gap              1.512331269643 eV    ::
         ::.................................................::
         :: SCC energy               -56.816040687735 Eh    ::
         :: -> isotropic ES            0.085221516845 Eh    ::
         :: -> anisotropic ES          0.000384394178 Eh    ::
         :: -> anisotropic XC          0.018400595571 Eh    ::
         :: -> dispersion             -0.036925779067 Eh    ::
         :: repulsion energy           0.816888486492 Eh    ::
         :: add. restraining           0.000000000000 Eh    ::
         :: total charge               0.000000000000 e     ::
         :::::::::::::::::::::::::::::::::::::::::::::::::::::

           -------------------------------------------------
          |                Property Printout                |
           -------------------------------------------------

    * Orbital Energies and Occupations

         #    Occupation            Energy/Eh            Energy/eV
      -------------------------------------------------------------
         1        2.0000           -0.7066242             -19.2282
       ...           ...                  ...                  ...
        38        2.0000           -0.4651494             -12.6574
        39        2.0000           -0.4560683             -12.4103
        40        2.0000           -0.4513627             -12.2822
        41        2.0000           -0.4509689             -12.2715
        42        2.0000           -0.4423989             -12.0383
        43        2.0000           -0.4311315             -11.7317
        44        2.0000           -0.4291564             -11.6779
        45        2.0000           -0.4204357             -11.4406
        46        2.0000           -0.4168625             -11.3434
        47        2.0000           -0.4143881             -11.2761
        48        2.0000           -0.3956077             -10.7650
        49        2.0000           -0.3785500             -10.3009
        50        2.0000           -0.3696108             -10.0576 (HOMO)
        51                         -0.3140337              -8.5453 (LUMO)
        52                         -0.2640847              -7.1861
        53                         -0.2366066              -6.4384
        54                         -0.2250609              -6.1242
        55                         -0.1786285              -4.8607
        56                         -0.1738000              -4.7293
        57                         -0.1043606              -2.8398
        58                         -0.0535067              -1.4560
        59                          0.0003126               0.0085
        60                          0.0311957               0.8489
        61                          0.0784320               2.1342
       ...                                ...                  ...
        93                          0.7183647              19.5477
      -------------------------------------------------------------
                  HL-Gap            0.0555772 Eh            1.5123 eV
             Fermi-level           -0.3418222 Eh           -9.3015 eV

     #   Z          covCN         q      C6AA      α(0)
     1   6 C        2.917    -0.023    28.573     8.765
     2   6 C        2.918    -0.022    28.565     8.764
     3   6 C        2.924    -0.018    28.448     8.747
     4   6 C        2.976    -0.009    28.241     8.717
     5   6 C        2.976    -0.013    28.333     8.731
     6   6 C        2.923    -0.017    28.424     8.743
     7   6 C        2.836     0.220    23.364     7.921
     8   8 O        0.858    -0.381    21.307     6.189
     9   6 C        2.972    -0.013    28.345     8.733
    10   6 C        2.925    -0.029    28.734     8.791
    11   6 C        2.912    -0.021    28.533     8.759
    12   6 C        2.920    -0.049    29.217     8.864
    13   6 C        2.898     0.093    25.937     8.350
    14   6 C        2.971    -0.054    29.346     8.886
    15   6 C        2.831     0.212    23.528     7.948
    16   8 O        0.858    -0.434    22.376     6.342
    17   7 N        2.691    -0.154    24.339     7.327
    18   6 C        3.734    -0.012    20.873     6.521
    19   6 C        3.672     0.071    19.623     6.349
    20   8 O        1.655    -0.433    21.494     6.259
    21   1 H        0.926     0.044     2.399     2.422
    22   1 H        0.926     0.043     2.406     2.425
    23   1 H        0.926     0.065     2.141     2.288
    24   1 H        0.926     0.066     2.135     2.285
    25   1 H        0.926     0.064     2.147     2.291
    26   1 H        0.926     0.044     2.400     2.423
    27   1 H        0.926     0.054     2.267     2.355
    28   1 H        0.860     0.220     1.008     1.573
    29   1 H        0.924     0.057     2.240     2.341
    30   1 H        0.925     0.052     2.290     2.367
    31   1 H        0.924     0.027     2.636     2.539
    32   1 H        0.924     0.063     2.165     2.301
    33   1 H        0.805     0.288     0.757     1.367

 Mol. C6AA /au·bohr⁶  :      14354.745199
 Mol. C8AA /au·bohr⁸  :     352328.069928
 Mol. α(0) /au        :        188.682043


Wiberg/Mayer (AO) data.
largest (>0.10) Wiberg bond orders for each atom

 ---------------------------------------------------------------------------
     #   Z sym  total        # sym  WBO       # sym  WBO       # sym  WBO
 ---------------------------------------------------------------------------
     1   6 C    3.985 --     6 C    1.448     2 C    1.422    21 H    0.970
     2   6 C    3.987 --     3 C    1.447     1 C    1.422    22 H    0.970
     3   6 C    3.983 --     2 C    1.447     4 C    1.392    23 H    0.964
     4   6 C    3.988 --     3 C    1.392     5 C    1.333    15 C    1.037
     5   6 C    3.988 --     6 C    1.388     4 C    1.333     7 C    1.041
     6   6 C    3.985 --     1 C    1.448     5 C    1.388    24 H    0.964
     7   6 C    3.937 --     8 O    1.747     5 C    1.041     9 C    1.041
     8   8 O    2.026 --     7 C    1.747
     9   6 C    3.988 --    10 C    1.436    14 C    1.287     7 C    1.041
    10   6 C    3.982 --     9 C    1.436    11 C    1.361    25 H    0.964
    11   6 C    3.989 --    12 C    1.522    10 C    1.361    26 H    0.969
    12   6 C    3.986 --    11 C    1.522    13 C    1.265    27 H    0.961
    13   6 C    3.971 --    17 N    1.289    12 C    1.265    14 C    1.246
    14   6 C    3.979 --     9 C    1.287    13 C    1.246    15 C    1.134
    15   6 C    3.944 --    16 O    1.638    14 C    1.134     4 C    1.037
    16   8 O    2.019 --    15 C    1.638
    17   7 N    3.468 --    13 C    1.289    18 C    1.011    28 H    0.876
    18   6 C    3.978 --    17 N    1.011    30 H    0.974    19 C    0.972
                            29 H    0.964
    19   6 C    3.954 --    20 O    1.006    31 H    0.973    18 C    0.972
                            32 H    0.970
    20   8 O    1.972 --    19 C    1.006    33 H    0.903
    21   1 H    0.997 --     1 C    0.970
    22   1 H    0.997 --     2 C    0.970
    23   1 H    0.995 --     3 C    0.964
    24   1 H    0.995 --     6 C    0.964
    25   1 H    0.995 --    10 C    0.964
    26   1 H    0.997 --    11 C    0.969
    27   1 H    0.996 --    12 C    0.961
    28   1 H    0.951 --    17 N    0.876
    29   1 H    0.996 --    18 C    0.964
    30   1 H    0.997 --    18 C    0.974
    31   1 H    0.998 --    19 C    0.973
    32   1 H    0.996 --    19 C    0.970
    33   1 H    0.917 --    20 O    0.903
 ---------------------------------------------------------------------------

Topologies differ in total number of bonds
Writing topology from bond orders to xtbtopo.mol

molecular dipole:
                 x           y           z       tot (Debye)
 q only:        1.468      -0.771      -0.469
   full:        1.603      -0.908      -0.577       4.907
molecular quadrupole (traceless):
                xx          xy          yy          xz          yz          zz
 q only:       21.540       6.865     -12.609      -6.640      -1.882      -8.931
  q+dip:       28.472       7.972     -12.732      -9.518      -2.484     -15.740
   full:       25.394       7.973     -15.891      -8.473      -2.808      -9.502


           -------------------------------------------------
          | TOTAL ENERGY              -55.999152201243 Eh   |
          | GRADIENT NORM               0.031310265860 Eh/α |
          | HOMO-LUMO GAP               1.512331269643 eV   |
           -------------------------------------------------

------------------------------------------------------------------------
 * finished run on 2025/04/11 at 15:56:47.928     
------------------------------------------------------------------------
 total:
 * wall-time:     0 d,  0 h,  0 min,  0.236 sec
 *  cpu-time:     0 d,  0 h,  0 min,  0.062 sec
 * ratio c/w:     0.264 speedup
 SCF:
 * wall-time:     0 d,  0 h,  0 min,  0.056 sec
 *  cpu-time:     0 d,  0 h,  0 min,  0.049 sec
 * ratio c/w:     0.877 speedup

