
                                 *****************
                                 * O   R   C   A *
                                 *****************

                                            #,                                       
                                            ###                                      
                                            ####                                     
                                            #####                                    
                                            ######                                   
                                           ########,                                 
                                     ,,################,,,,,                         
                               ,,#################################,,                 
                          ,,##########################################,,             
                       ,#########################################, ''#####,          
                    ,#############################################,,   '####,        
                  ,##################################################,,,,####,       
                ,###########''''           ''''###############################       
              ,#####''   ,,,,##########,,,,          '''####'''          '####       
            ,##' ,,,,###########################,,,                        '##       
           ' ,,###''''                  '''############,,,                           
         ,,##''                                '''############,,,,        ,,,,,,###''
      ,#''                                            '''#######################'''  
     '                                                          ''''####''''         
             ,#######,   #######,   ,#######,      ##                                
            ,#'     '#,  ##    ##  ,#'     '#,    #''#        ,####,   ,####,        
            ##       ##  ##   ,#'  ##            #'  '#       #'       #'  '#        
            ##       ##  #######   ##           ,######,      #####,   #    #        
            '#,     ,#'  ##    ##  '#,     ,#' ,#      #,     #,   #   #,  ,#        
             '#######'   ##     ##  '#######'  #'      '#     '####' # '####'        



                #########################################################
                #                        -***-                          #
                #          Department of theory and spectroscopy        #
                #                                                       #
                #                      Frank Neese                      #
                #                                                       #
                #     Directorship, Architecture, Infrastructure        #
                #                    SHARK, DRIVERS                     #
                #        Core code/Algorithms in most modules           #
                #                                                       #
                #        Max Planck Institute fuer Kohlenforschung      #
                #                Kaiser Wilhelm Platz 1                 #
                #                 D-45470 Muelheim/Ruhr                 #
                #                      Germany                          #
                #                                                       #
                #                  All rights reserved                  #
                #                        -***-                          #
                #########################################################


                         Program Version 6.0.0  -   RELEASE  -


 With contributions from (in alphabetic order):
   Daniel Aravena         : Magnetic Suceptibility
   Michael Atanasov       : Ab Initio Ligand Field Theory (pilot matlab implementation)
   Alexander A. Auer      : GIAO ZORA, VPT2 properties, NMR spectrum
   Ute Becker             : All parallelization in ORCA, NUMFREQ, NUMCALC
   Giovanni Bistoni       : ED, misc. LED, open-shell LED, HFLD
   Martin Brehm           : Molecular dynamics
   Dmytro Bykov           : pre 5.0 version of the SCF Hessian
   Marcos Casanova-Páez   : Triplet and SCS-CIS(D). UHF-(DLPNO)-IP/EA/STEOM-CCSD. UHF-CVS-IP/STEOM-CCSD
   Vijay G. Chilkuri      : MRCI spin determinant printing, contributions to CSF-ICE
   Pauline Colinet        : FMM embedding
   Dipayan Datta          : RHF DLPNO-CCSD density
   Achintya Kumar Dutta   : EOM-CC, STEOM-CC
   Nicolas Foglia         : Exact transition moments, OPA infrastructure, MCD improvements
   Dmitry Ganyushin       : Spin-Orbit,Spin-Spin,Magnetic field MRCI
   Miquel Garcia          : C-PCM and meta-GGA Hessian, CCSD/C-PCM, Gaussian charge scheme
   Tiago L. C. Gouveia    : GS-ROHF, GS-ROCIS
   Yang Guo               : DLPNO-NEVPT2, F12-NEVPT2, CIM, IAO-localization
   Andreas Hansen         : Spin unrestricted coupled pair/coupled cluster methods
   Ingolf Harden          : AUTO-CI MPn and infrastructure 
   Benjamin Helmich-Paris : MC-RPA, TRAH-(SCF,CASSCF), AVAS, COSX integrals, SCF dyn. polar.
   Lee Huntington         : MR-EOM, pCC
   Robert Izsak           : Overlap fitted RIJCOSX, COSX-SCS-MP3, EOM
   Riya Kayal             : Wick's Theorem for AUTO-CI, AUTO-CI UHF-CCSDT
   Emily Kempfer          : AUTO-CI, RHF CISDT and CCSDT
   Christian Kollmar      : KDIIS, OOCD, Brueckner-CCSD(T), CCSD density, CASPT2, CASPT2-K, improved NEVPT2
   Axel Koslowski         : Symmetry handling
   Simone Kossmann        : Meta GGA functionals, TD-DFT gradient, OOMP2, (MP2 Hessian; deprecated post 5.0)
   Lucas Lang             : DCDCAS
   Marvin Lechner         : AUTO-CI (C++ implementation), FIC-MRCC
   Spencer Leger          : CASSCF response
   Dagmar Lenk            : GEPOL surface, SMD, ORCA-2-JSON
   Dimitrios Liakos       : Extrapolation schemes; Compound Job, initial MDCI parallelization
   Dimitrios Manganas     : Further ROCIS development; embedding schemes. LFT, Crystal Embedding
   Dimitrios Pantazis     : SARC Basis sets
   Anastasios Papadopoulos: AUTO-CI, single reference methods and gradients
   Taras Petrenko         : pre 6.0 DFT Hessian and TD-DFT gradient, (ASA, deprecated), ECA, 1-Electron XAS/XES, NRVS
   Peter Pinski           : DLPNO-MP2, DLPNO-MP2 Gradient
   Christoph Reimann      : Effective Core Potentials
   Marius Retegan         : Local ZFS, SOC
   Christoph Riplinger    : Optimizer, TS searches, QM/MM, DLPNO-CCSD(T), (RO)-DLPNO pert. Triples
   Michael Roemelt        : Original ROCIS implementation
   Masaaki Saitow         : Open-shell DLPNO-CCSD energy and density
   Barbara Sandhoefer     : DKH picture change effects
   Kantharuban Sivalingam : CASSCF convergence/infrastructure, NEVPT2 and variants, FIC-MRCI
   Bernardo de Souza      : ESD, SOC TD-DFT
   Georgi Stoychev        : AutoAux, RI-MP2 NMR, DLPNO-MP2 response, X2C
   Van Anh Tran           : RI-MP2 g-tensors
   Willem Van den Heuvel  : Paramagnetic NMR
   Zikuan Wang            : NOTCH, Electric field optimization 
   Frank Wennmohs         : Technical directorship and infrastructure
   Hang Xu                : AUTO-CI-Response properties 


 We gratefully acknowledge several colleagues who have allowed us to
 interface, adapt or use parts of their codes:
   Stefan Grimme, W. Hujo, H. Kruse, P. Pracht,  : VdW corrections, initial TS optimization,
                  C. Bannwarth, S. Ehlert,         DFT functionals, gCP, sTDA/sTD-DF
                  L. Wittmann, M. Mueller
   Ed Valeev, F. Pavosevic, A. Kumar             : LibInt (2-el integral package), F12 methods
   Garnet Chan, S. Sharma, J. Yang, R. Olivares  : DMRG
   Ulf Ekstrom                                   : XCFun DFT Library
   Mihaly Kallay                                 : mrcc  (arbitrary order and MRCC methods)
   Frank Weinhold                                : gennbo (NPA and NBO analysis)
   Simon Mueller                                 : openCOSMO-RS
   Christopher J. Cramer and Donald G. Truhlar   : smd solvation model
   Lars Goerigk                                  : TD-DFT with DH, B97 family of functionals
   V. Asgeirsson, H. Jonsson                     : NEB implementation
   FAccTs GmbH                                   : IRC, NEB, NEB-TS, DLPNO-Multilevel, CI-OPT
                                                   MM, QMMM, 2- and 3-layer-ONIOM, Crystal-QMMM,
                                                   LR-CPCM, SF, NACMEs, symmetry and pop. for TD-DFT,
                                                   nearIR, NL-DFT gradient (VV10), updates on ESD,
                                                   ML-optimized integration grids, MBIS, APM,
                                                   GOAT, DOCKER, SOLVATOR, interface openCOSMO-RS
   S Lehtola, MJT Oliveira, MAL Marques          : LibXC Library
   Liviu Ungur et al                             : ANISO software


 Your calculation uses the libint2 library for the computation of 2-el integrals
 For citations please refer to: http://libint.valeyev.net

 Your ORCA version has been built with support for libXC version: 6.2.2
 For citations please refer to: https://libxc.gitlab.io

 This ORCA versions uses:
   CBLAS   interface :  Fast vector & matrix operations
   LAPACKE interface :  Fast linear algebra routines
   SCALAPACK package :  Parallel linear algebra routines
   Shared memory     :  Shared parallel matrices
   BLAS/LAPACK       :  OpenBLAS 0.3.27  USE64BITINT DYNAMIC_ARCH NO_AFFINITY SkylakeX SINGLE_THREADED
        Core in use  :  SkylakeX
   Copyright (c) 2011-2014, The OpenBLAS Project


Your calculation utilizes the geometrical counterpoise correction gCP
Please cite in your paper:
H.Kruse, S. Grimme J.Chem.Phys., 136, (2012), 154101 
   

Your calculation utilizes the atom-pairwise dispersion correction
based on EEQ partial charges (D4)


Your calculation utilizes the SMD solvation module
Please cite in your paper:
A.V. Marenich, C.J. Cramer, D.G. Truhlar J. Phys. Chem. B, 113, (2009), 6378 

================================================================================

----- Orbital basis set information -----
Your calculation utilizes the basis: def2-mTZVPP
   Stefan Grimme, Andreas Hansen, Sebastian Ehlert, and Jan-Michael Mewes 
   J. Chem. Phys. 154, 064103 (2021). DOI: 10.1063/5.0040021

----- AuxJ basis set information -----
Your calculation utilizes the auxiliary basis: def2/J
   F. Weigend, Phys. Chem. Chem. Phys. 8, 1057 (2006).

================================================================================
                                        WARNINGS
                       Please study these warnings very carefully!
================================================================================

Using LibXC functional ID 497 : Re-regularized SCAN exchange by Furness et al
[ 1]  J. W. Furness, A. D. Kaplan, J. Ning, J. P. Perdew, and J. Sun.,  J. Phys. Chem. Lett. 11, 8208-8215 (2020)
[ 2]  J. W. Furness, A. D. Kaplan, J. Ning, J. P. Perdew, and J. Sun.,  J. Phys. Chem. Lett. 11, 9248-9248 (2020)
Using LibXC functional ID 498 : Re-regularized SCAN correlation by Furness et al
[ 1]  J. W. Furness, A. D. Kaplan, J. Ning, J. P. Perdew, and J. Sun.,  J. Phys. Chem. Lett. 11, 8208-8215 (2020)
[ 2]  J. W. Furness, A. D. Kaplan, J. Ning, J. P. Perdew, and J. Sun.,  J. Phys. Chem. Lett. 11, 9248-9248 (2020)
Using LibXC functional ID 497 : Re-regularized SCAN exchange by Furness et al
[ 1]  J. W. Furness, A. D. Kaplan, J. Ning, J. P. Perdew, and J. Sun.,  J. Phys. Chem. Lett. 11, 8208-8215 (2020)
[ 2]  J. W. Furness, A. D. Kaplan, J. Ning, J. P. Perdew, and J. Sun.,  J. Phys. Chem. Lett. 11, 9248-9248 (2020)
Using LibXC functional ID 498 : Re-regularized SCAN correlation by Furness et al
[ 1]  J. W. Furness, A. D. Kaplan, J. Ning, J. P. Perdew, and J. Sun.,  J. Phys. Chem. Lett. 11, 8208-8215 (2020)
[ 2]  J. W. Furness, A. D. Kaplan, J. Ning, J. P. Perdew, and J. Sun.,  J. Phys. Chem. Lett. 11, 9248-9248 (2020)

================================================================================
                                       INPUT FILE
================================================================================
NAME = sp_solv.inp
|  1> ! r2scan-3c def2/J RI DEFGRID2 scfconv6 printgap
|  2> %output
|  3>     printlevel normal
|  4> end
|  5> %cpcm
|  6>     smd true
|  7>     smdsolvent "water"
|  8> end
|  9> * xyz 0 1
| 10> C -2.709962756 -0.9703977633 -0.4707964719
| 11> C -2.2063428669 -0.2633216013 0.7815497145
| 12> C -1.294069602 0.9229496053 0.439700882
| 13> C -0.0285020097 0.4485064121 -0.2264382643
| 14> O 0.2589628448 0.6392117005 -1.3901530372
| 15> O 0.7387265657 -0.230100281 0.6177695428
| 16> C 1.9824316419 -0.7628609712 0.1354165613
| 17> C 3.0892216668 0.2787595796 0.197185276
| 18> H -3.3455282518 -1.8102335361 -0.2030713604
| 19> H -3.2837395738 -0.2852410019 -1.0904136052
| 20> H -1.8773710783 -1.3430449494 -1.0648519185
| 21> H -1.6528070135 -0.9651394671 1.4073028571
| 22> H -3.0561687417 0.1087802872 1.3546487382
| 23> H -1.018914202 1.4430012212 1.3572279282
| 24> H -1.8011118425 1.609516592 -0.2378365703
| 25> H 2.1934020839 -1.6055882055 0.7944053599
| 26> H 1.8393745055 -1.1098794799 -0.8926033157
| 27> H 3.1870690061 0.6616157221 1.2093909345
| 28> H 4.0268711188 -0.1743227478 -0.1076268278
| 29> H 2.8612472569 1.1038817645 -0.4739506157
| 30> *
| 31> 
| 32>                          ****END OF INPUT****
================================================================================

                       ****************************
                       * Single Point Calculation *
                       ****************************

---------------------------------
CARTESIAN COORDINATES (ANGSTROEM)
---------------------------------
  C     -2.709963   -0.970398   -0.470796
  C     -2.206343   -0.263322    0.781550
  C     -1.294070    0.922950    0.439701
  C     -0.028502    0.448506   -0.226438
  O      0.258963    0.639212   -1.390153
  O      0.738727   -0.230100    0.617770
  C      1.982432   -0.762861    0.135417
  C      3.089222    0.278760    0.197185
  H     -3.345528   -1.810234   -0.203071
  H     -3.283740   -0.285241   -1.090414
  H     -1.877371   -1.343045   -1.064852
  H     -1.652807   -0.965139    1.407303
  H     -3.056169    0.108780    1.354649
  H     -1.018914    1.443001    1.357228
  H     -1.801112    1.609517   -0.237837
  H      2.193402   -1.605588    0.794405
  H      1.839375   -1.109879   -0.892603
  H      3.187069    0.661616    1.209391
  H      4.026871   -0.174323   -0.107627
  H      2.861247    1.103882   -0.473951

----------------------------
CARTESIAN COORDINATES (A.U.)
----------------------------
  NO LB      ZA    FRAG     MASS         X           Y           Z
   0 C     6.0000    0    12.011   -5.121087   -1.833786   -0.889676
   1 C     6.0000    0    12.011   -4.169384   -0.497606    1.476915
   2 C     6.0000    0    12.011   -2.445437    1.744122    0.830914
   3 C     6.0000    0    12.011   -0.053861    0.847554   -0.427906
   4 O     8.0000    0    15.999    0.489369    1.207935   -2.627009
   5 O     8.0000    0    15.999    1.395991   -0.434827    1.167415
   6 C     6.0000    0    12.011    3.746253   -1.441598    0.255900
   7 C     6.0000    0    12.011    5.837783    0.526779    0.372626
   8 H     1.0000    0     1.008   -6.322132   -3.420846   -0.383749
   9 H     1.0000    0     1.008   -6.205368   -0.539027   -2.060583
  10 H     1.0000    0     1.008   -3.547717   -2.537987   -2.012278
  11 H     1.0000    0     1.008   -3.123353   -1.823849    2.659417
  12 H     1.0000    0     1.008   -5.775322    0.205565    2.559915
  13 H     1.0000    0     1.008   -1.925469    2.726877    2.564789
  14 H     1.0000    0     1.008   -3.403608    3.041546   -0.449446
  15 H     1.0000    0     1.008    4.144929   -3.034122    1.501209
  16 H     1.0000    0     1.008    3.475914   -2.097368   -1.686776
  17 H     1.0000    0     1.008    6.022688    1.250273    2.285418
  18 H     1.0000    0     1.008    7.609684   -0.329422   -0.203385
  19 H     1.0000    0     1.008    5.406974    2.086034   -0.895637

--------------------------------
INTERNAL COORDINATES (ANGSTROEM)
--------------------------------
 C      0   0   0     0.000000000000     0.00000000     0.00000000
 C      1   0   0     1.523798104132     0.00000000     0.00000000
 C      2   1   0     1.535038276311   111.83819951     0.00000000
 C      3   2   1     1.506817519306   110.74896436   294.76605244
 O      4   3   2     1.213769591917   124.98059744   110.83967745
 O      4   3   2     1.327340782316   111.42475497   291.75329614
 C      6   4   3     1.436419391525   118.45813303   179.51724456
 C      7   6   4     1.521109103642   111.24668987    84.65215196
 H      1   2   3     1.086712639134   110.45226726   179.50761927
 H      1   2   3     1.087467248342   110.50593311   299.68216332
 H      1   2   3     1.088566351087   110.76703407    59.27607082
 H      2   1   3     1.091108268335   109.90981248   238.96416727
 H      2   1   3     1.090461518748   109.43291395   120.19460470
 H      3   2   1     1.089963328676   109.34675032   175.76985007
 H      3   2   1     1.089735316555   110.41544834    54.74211788
 H      7   6   4     1.090396237846   104.55025847   204.93786848
 H      7   6   4     1.094400318513   108.65444926   322.77835108
 H      8   7   6     1.086606286912   110.15881849    55.90884592
 H      8   7   6     1.085071660703   109.35500595   176.08538730
 H      8   7   6     1.087760238615   109.99196705   295.67735676

---------------------------
INTERNAL COORDINATES (A.U.)
---------------------------
 C      0   0   0     0.000000000000     0.00000000     0.00000000
 C      1   0   0     2.879561100198     0.00000000     0.00000000
 C      2   1   0     2.900801947315   111.83819951     0.00000000
 C      3   2   1     2.847472445283   110.74896436   294.76605244
 O      4   3   2     2.293692118404   124.98059744   110.83967745
 O      4   3   2     2.508310564962   111.42475497   291.75329614
 C      6   4   3     2.714439263437   118.45813303   179.51724456
 C      7   6   4     2.874479625698   111.24668987    84.65215196
 H      1   2   3     2.053589274234   110.45226726   179.50761927
 H      1   2   3     2.055015278975   110.50593311   299.68216332
 H      1   2   3     2.057092282156   110.76703407    59.27607082
 H      2   1   3     2.061895809610   109.90981248   238.96416727
 H      2   1   3     2.060673630014   109.43291395   120.19460470
 H      3   2   1     2.059732187214   109.34675032   175.76985007
 H      3   2   1     2.059301306751   110.41544834    54.74211788
 H      7   6   4     2.060550266987   104.55025847   204.93786848
 H      7   6   4     2.068116882867   108.65444926   322.77835108
 H      8   7   6     2.053388297661   110.15881849    55.90884592
 H      8   7   6     2.050488274408   109.35500595   176.08538730
 H      8   7   6     2.055568950351   109.99196705   295.67735676

---------------------
BASIS SET INFORMATION
---------------------
There are 3 groups of distinct atoms

 Group   1 Type C   : 11s6p1d contracted to 5s3p1d pattern {62111/411/1}
 Group   2 Type O   : 11s6p2d contracted to 5s3p2d pattern {62111/411/11}
 Group   3 Type H   : 4s1p contracted to 2s1p pattern {31/1}

Atom   0C    basis set group =>   1
Atom   1C    basis set group =>   1
Atom   2C    basis set group =>   1
Atom   3C    basis set group =>   1
Atom   4O    basis set group =>   2
Atom   5O    basis set group =>   2
Atom   6C    basis set group =>   1
Atom   7C    basis set group =>   1
Atom   8H    basis set group =>   3
Atom   9H    basis set group =>   3
Atom  10H    basis set group =>   3
Atom  11H    basis set group =>   3
Atom  12H    basis set group =>   3
Atom  13H    basis set group =>   3
Atom  14H    basis set group =>   3
Atom  15H    basis set group =>   3
Atom  16H    basis set group =>   3
Atom  17H    basis set group =>   3
Atom  18H    basis set group =>   3
Atom  19H    basis set group =>   3
---------------------------------
AUXILIARY/J BASIS SET INFORMATION
---------------------------------
There are 3 groups of distinct atoms

 Group   1 Type C   : 12s5p4d2f1g contracted to 6s4p3d1f1g pattern {711111/2111/211/2/1}
 Group   2 Type O   : 12s5p4d2f1g contracted to 6s4p3d1f1g pattern {711111/2111/211/2/1}
 Group   3 Type H   : 5s2p1d contracted to 3s1p1d pattern {311/2/1}

Atom   0C    basis set group =>   1
Atom   1C    basis set group =>   1
Atom   2C    basis set group =>   1
Atom   3C    basis set group =>   1
Atom   4O    basis set group =>   2
Atom   5O    basis set group =>   2
Atom   6C    basis set group =>   1
Atom   7C    basis set group =>   1
Atom   8H    basis set group =>   3
Atom   9H    basis set group =>   3
Atom  10H    basis set group =>   3
Atom  11H    basis set group =>   3
Atom  12H    basis set group =>   3
Atom  13H    basis set group =>   3
Atom  14H    basis set group =>   3
Atom  15H    basis set group =>   3
Atom  16H    basis set group =>   3
Atom  17H    basis set group =>   3
Atom  18H    basis set group =>   3
Atom  19H    basis set group =>   3

Checking for AutoStart:
The File: sp_solv.gbw exists
Trying to determine its content:
     ... Fine, the file contains calculation information
     ... Fine, the calculation information was read
     ... Fine, the file contains a basis set
     ... Fine, the basis set was read
     ... Fine, the file contains a geometry
     ... Fine, the geometry was read
     ... Fine, the file contains a set of orbitals
     ... Fine, the orbitals can be read
     => possible old guess file was deleted
     => GBW file was renamed to GES file
     => GES file is set as startup file
     => Guess is set to MORead
     ... now leaving AutoStart

------------------------------------------------------------------------------
                             ORCA STARTUP CALCULATIONS
                           -- RI-GTO INTEGRALS CHOSEN --
------------------------------------------------------------------------------
------------------------------------------------------------------------------
                   ___                                                        
                  /   \      - P O W E R E D   B Y -                         
                 /     \                                                     
                 |  |  |   _    _      __       _____    __    __             
                 |  |  |  | |  | |    /  \     |  _  \  |  |  /  |          
                  \  \/   | |  | |   /    \    | | | |  |  | /  /          
                 / \  \   | |__| |  /  /\  \   | |_| |  |  |/  /          
                |  |  |   |  __  | /  /__\  \  |    /   |      \           
                |  |  |   | |  | | |   __   |  |    \   |  |\   \          
                \     /   | |  | | |  |  |  |  | |\  \  |  | \   \       
                 \___/    |_|  |_| |__|  |__|  |_| \__\ |__|  \__/        
                                                                              
                      - O R C A' S   B I G   F R I E N D -                    
                                      &                                       
                       - I N T E G R A L  F E E D E R -                       
                                                                              
 v1 FN, 2020, v2 2021, v3 2022-2024                                           
------------------------------------------------------------------------------


----------------------
SHARK INTEGRAL PACKAGE
----------------------

Number of atoms                             ...     20
Number of basis functions                   ...    222
Number of shells                            ...    110
Maximum angular momentum                    ...      2
Integral batch strategy                     ... SHARK/LIBINT Hybrid
RI-J (if used) integral strategy            ... SPLIT-RIJ (Revised 2003 algorithm where possible)
Printlevel                                  ...      1
Contraction scheme used                     ... SEGMENTED contraction
Prescreening option                         ... SCHWARTZ
   Thresh                                   ... 1.000e-10
   Tcut                                     ... 1.000e-11
   Tpresel                                  ... 1.000e-11 
Coulomb Range Separation                    ... NOT USED
Exchange Range Separation                   ... NOT USED
Multipole approximations                    ... NOT USED
Finite Nucleus Model                        ... NOT USED
CABS basis                                  ... NOT available
Auxiliary Coulomb fitting basis             ... AVAILABLE
   # of basis functions in Aux-J            ...    524
   # of shells in Aux-J                     ...    180
   Maximum angular momentum in Aux-J        ...      4
Auxiliary J/K fitting basis                 ... NOT available
Auxiliary Correlation fitting basis         ... NOT available
Auxiliary 'external' fitting basis          ... NOT available

Checking pre-screening integrals            ... done (  0.0 sec) Dimension = 110
Check shell pair data                       ... done (  0.0 sec)
Shell pair information
Shell pair cut-off parameter TPreSel        ...   1.0e-11
Total number of shell pairs                 ...      6105
Shell pairs after pre-screening             ...      5340
Total number of primitive shell pairs       ...     21533
Primitive shell pairs kept                  ...     13323
          la=0 lb=0:   1790 shell pairs
          la=1 lb=0:   2008 shell pairs
          la=1 lb=1:    588 shell pairs
          la=2 lb=0:    575 shell pairs
          la=2 lb=1:    326 shell pairs
          la=2 lb=2:     53 shell pairs

Calculating one electron integrals          ... done (  0.0 sec)
Calculating RI/J V-Matrix + Cholesky decomp.... done (  0.1 sec)
Calculating Nuclear repulsion               ... done (  0.0 sec) ENN=    397.334611813059 Eh

Diagonalization of the overlap matrix:
Smallest eigenvalue                        ... 1.682e-04
Time for diagonalization                   ...    0.008 sec
Threshold for overlap eigenvalues          ... 1.000e-07
Number of eigenvalues below threshold      ... 0
Time for construction of square roots      ...    0.014 sec
Total time needed                          ...    0.031 sec

-------------------
DFT GRID GENERATION
-------------------

General Integration Accuracy     IntAcc      ... 4.388
Radial Grid Type                 RadialGrid  ... OptM3 with GC (2021)
Angular Grid (max. ang.)         AngularGrid ... 4 (Lebedev-302)
Angular grid pruning method      GridPruning ... 4 (adaptive)
Weight generation scheme         WeightScheme... mBecke (2022)
Basis function cutoff            BFCut       ... 1.0000e-10
Integration weight cutoff        WCut        ... 1.0000e-14
Partially contracted basis set               ... off
Rotationally invariant grid construction     ... off
Angular grids for H and He will be reduced by one unit
Diffuse basis detected: some atoms will have their outermost
                        angular grid increased by 1.

Total number of grid points                  ...    87382
Total number of batches                      ...     1375
Average number of points per batch           ...       63
Average number of grid points per atom       ...     4369
Initializing property integral containers    ... done (  0.0 sec)

SHARK setup successfully completed in   1.3 seconds

Maximum memory used throughout the entire STARTUP-calculation: 39.4 MB
-------------------------------------------------------------------------------
                                 ORCA GUESS
                   Start orbitals & Density for SCF / CASSCF
-------------------------------------------------------------------------------

------------
SCF SETTINGS
------------
Hamiltonian:
 Density Functional     Method          .... DFT(GTOs)
  Functional kind                       .... Exchange
  Functional name                       .... Re-regularized SCAN exchange by Furness et al
  Functional family                     .... MGGA
  Functional refs                              
    [ 0] J. W. Furness, A. D. Kaplan, J. Ning, J. P. Perdew, and J. Sun.,  J. Phys. Chem. Lett. 11, 8208-8215 (2020), doi: 10.1021/acs.jpclett.0c02405
    [ 1] J. W. Furness, A. D. Kaplan, J. Ning, J. P. Perdew, and J. Sun.,  J. Phys. Chem. Lett. 11, 9248-9248 (2020), doi: 10.1021/acs.jpclett.0c03077
  Functional external parameters        .... 6
    Parameter  0 _c1        =  6.670000e-01 : c1 parameter        
    Parameter  1 _c2        =  8.000000e-01 : c2 parameter        
    Parameter  2 _d         =  1.240000e+00 : d parameter         
    Parameter  3 _k1        =  6.500000e-02 : k1 parameter        
    Parameter  4 _eta       =  1.000000e-03 : eta parameter       
    Parameter  5 _dp2       =  3.610000e-01 : dp2 parameter       
  Functional kind                       .... Correlation
  Functional name                       .... Re-regularized SCAN correlation by Furness et al
  Functional family                     .... MGGA
  Functional refs                              
    [ 0] J. W. Furness, A. D. Kaplan, J. Ning, J. P. Perdew, and J. Sun.,  J. Phys. Chem. Lett. 11, 8208-8215 (2020), doi: 10.1021/acs.jpclett.0c02405
    [ 1] J. W. Furness, A. D. Kaplan, J. Ning, J. P. Perdew, and J. Sun.,  J. Phys. Chem. Lett. 11, 9248-9248 (2020), doi: 10.1021/acs.jpclett.0c03077
  Functional external parameters        .... 1
    Parameter  0 _eta       =  1.000000e-03 : Regularization parameter
 Gradients option       PostSCFGGA      .... off
 RI-approximation to the Coulomb term is turned on
   Number of AuxJ basis functions       .... 524


General Settings:
 Integral files         IntName         .... sp_solv
 Hartree-Fock type      HFTyp           .... RHF
 Total Charge           Charge          ....    0
 Multiplicity           Mult            ....    1
 Number of Electrons    NEL             ....   64
 Basis Dimension        Dim             ....  222
 Nuclear Repulsion      ENuc            ....    397.3346118131 Eh

Convergence Acceleration:
 AO-DIIS                CNVDIIS         .... on
   Start iteration      DIISMaxIt       ....    12
   Startup error        DIISStart       ....  0.200000
   # of expansion vecs  DIISMaxEq       ....     5
   Bias factor          DIISBfac        ....   1.050
   Max. coefficient     DIISMaxC        ....  10.000
 MO-DIIS                CNVKDIIS        .... off
 Trust-Rad. Augm. Hess. CNVTRAH         .... auto
   Auto Start mean grad. ratio tolernc. ....  1.125000
   Auto Start start iteration           ....     1
   Auto Start num. interpolation iter.  ....    10
   Max. Number of Micro iterations      ....    24
   Max. Number of Macro iterations      .... Maxiter - #DIIS iter
   Number of Davidson start vectors     ....     2
   Converg. threshold    (grad. norm)   ....   3.330e-04
   Grad. Scal. Fac. for Micro threshold ....   0.100
   Minimum threshold for Micro iter.    ....   1.000e-02
   NR start threshold (gradient norm)   ....   1.000e-04
   Initial trust radius                 ....   0.400
   Minimum AH scaling param. (alpha)    ....   1.000
   Maximum AH scaling param. (alpha)    .... 1000.000
   Quad. conv. algorithm                .... NR
   White noise on init. David. guess    .... on
   Maximum white noise                  ....   0.010
   Pseudo random numbers                .... off
   Inactive MOs                         .... canonical
   Orbital update algorithm             .... Taylor
   Preconditioner                       .... Diag
   Full preconditioner red. dimension   ....   250
   COSX micro iterations for RIJONX calc.... off
 SOSCF                  CNVSOSCF        .... on
   Start iteration      SOSCFMaxIt      ....   150
   Startup grad/error   SOSCFStart      ....  0.003300
   Hessian update       SOSCFHessUp     .... L-BFGS
 Level Shifting         CNVShift        .... on
   Level shift para.    LevelShift      ....    0.2500
   Turn off err/grad.   ShiftErr        ....    0.0010
 Zerner damping         CNVZerner       .... off
 Static damping         CNVDamp         .... on
   Fraction old density DampFac         ....    0.7000
   Max. Damping (<1)    DampMax         ....    0.9800
   Min. Damping (>=0)   DampMin         ....    0.0000
   Turn off err/grad.   DampErr         ....    0.1000

SCF Procedure:
 Maximum # iterations   MaxIter         ....   125
 SCF integral mode      SCFMode         .... Direct
   Integral package                     .... SHARK and LIBINT hybrid scheme
 Reset frequency        DirectResetFreq ....    20
 Integral Threshold     Thresh          ....  1.000e-10 Eh
 Primitive CutOff       TCut            ....  1.000e-11 Eh

Convergence Tolerance:
 Convergence Check Mode ConvCheckMode   .... Total+1el-Energy
 Convergence forced     ConvForced      .... 0
 Energy Change          TolE            ....  1.000e-06 Eh
 1-El. energy change                    ....  1.000e-03 Eh
 Orbital Gradient       TolG            ....  3.330e-04
 Orbital Rotation angle TolX            ....  3.330e-04
 DIIS Error             TolErr          ....  1.000e-06

---------------------
INITIAL GUESS: MOREAD
---------------------
Guess MOs are being read from file: sp_solv.ges
Input Geometry matches current geometry (good)
Atom 0: N(Shells)= 9 and 6 - projection required
Input basis set needs projection
NBasis(read)= 136
NBasis(calc)= 222
Basis set overlap was calculated
Using GuessMode=FMatrix for the initial guess
C*T matrix was formed
Effective Fockian was calculated
Effective Fockian was diagonalized
Initial density was built
                      ------------------
                      INITIAL GUESS DONE (   0.0 sec)
                      ------------------
             **** ENERGY FILE WAS UPDATED (sp_solv.en.tmp) ****
Finished Guess after   0.3 sec
Maximum memory used throughout the entire GUESS-calculation: 15.2 MB

-------------------------------------------------------------------------------------------
                                      ORCA LEAN-SCF
                              memory conserving SCF solver
-------------------------------------------------------------------------------------------

--------------------
CPCM SOLVATION MODEL
--------------------
CPCM parameters:
  Epsilon                                         ...      78.3550
  Refrac                                          ...       1.3328
  Rsolv                                           ...       1.3000
  Surface type                                    ... GAUSSIAN VDW
  Discretization scheme                           ... Constant charge density
    Threshold for H atoms                         ...       5.0000 (charges/Ang^2)
    Threshold for non-H atoms                     ...       5.0000 (charges/Ang^2)
  Epsilon function type                           ...         CPCM
Solvent:                                          ... WATER
SMD-CDS solvent descriptors:
  Soln                                            ...       1.3328
  Soln25                                          ...       1.3323
  Sola                                            ...       0.0000
  Solb                                            ...       0.0000
  Solg                                            ...       0.0000
  Solc                                            ...       0.0000
  Solh                                            ...       0.0000
Radii:
  Scheme                                          ... Element-dependent radii
  Radius for C  used is    3.4960 Bohr (=   1.8500 Ang.)
  Radius for O  used is    2.8724 Bohr (=   1.5200 Ang.)
  Radius for H  used is    2.2677 Bohr (=   1.2000 Ang.)
Calculating surface                               ...        done! (  0.0s)
Cavity surface points                             ...         1513
Cavity Volume                                     ...     877.6203
Cavity Surface-area                               ...     583.5229
Calculating surface distance matrix               ...        done! (  0.0s)
Performing Cholesky decomposition & store         ...        done! (  0.1s)
Overall time for CPCM initialization              ...                 0.1s

----------------------------------------D-I-I-S--------------------------------------------
Iteration    Energy (Eh)           Delta-E    RMSDP     MaxDP     DIISErr   Damp  Time(sec)
-------------------------------------------------------------------------------------------
               ***  Starting incremental Fock matrix formation  ***
    1    -386.0558647296086860     0.00e+00  3.81e-03  1.41e-01  6.27e-01  0.700   3.7
    2    -386.1150157651899804    -5.92e-02  3.10e-03  8.66e-02  4.42e-01  0.700   3.4
    3    -386.1568609314602440    -4.18e-02  2.27e-03  6.22e-02  3.10e-01  0.700   3.3
    4    -386.1862696736773728    -2.94e-02  1.63e-03  4.45e-02  2.17e-01  0.700   3.3
                               ***Turning on AO-DIIS***
    5    -386.2069184573398957    -2.06e-02  1.18e-03  3.22e-02  1.52e-01  0.700   3.4
    6    -386.2213955486867576    -1.45e-02  8.42e-04  2.28e-02  1.06e-01  0.700   3.5
    7    -386.2315576901343661    -1.02e-02  5.95e-04  1.61e-02  7.42e-02  0.700   3.2
    8    -386.2386799597466620    -7.12e-03  1.40e-03  3.77e-02  5.21e-02  0.000   3.1
                              *** Initializing SOSCF ***
---------------------------------------S-O-S-C-F--------------------------------------
Iteration    Energy (Eh)           Delta-E    RMSDP     MaxDP     MaxGrad    Time(sec)
--------------------------------------------------------------------------------------
    9    -386.2553317226931426    -1.67e-02  1.24e-05  4.88e-04  1.88e-04     3.3
               *** Restarting incremental Fock matrix formation ***
   10    -386.2553318365301607    -1.14e-07  6.64e-06  1.87e-04  5.22e-05     3.7
                  *** Gradient check signals convergence ***

               *****************************************************
               *                     SUCCESS                       *
               *           SCF CONVERGED AFTER  10 CYCLES          *
               *****************************************************


SMD CDS free energy correction energy :                 4.90068     Kcal/mol
Total Energy after SMD CDS correction =              -386.247522113 Eh
             **** ENERGY FILE WAS UPDATED (sp_solv.en.tmp) ****

----------------
TOTAL SCF ENERGY
----------------

Total Energy       :       -386.24752211260761 Eh          -10510.32941 eV

Components:
Nuclear Repulsion  :        397.33461181305898 Eh           10812.02446 eV
Electronic Energy  :       -783.57431244066026 Eh          -21322.14104 eV
One Electron Energy:      -1312.03106656881005 Eh          -35702.18039 eV
Two Electron Energy:        528.45675412814978 Eh           14380.03935 eV
CPCM Dielectric    :         -0.01563120892892 Eh              -0.42535 eV
SMD CDS (Gcds)     :          0.00780972392252 Eh               0.21251 eV

Virial components:
Potential Energy   :       -770.89048301759317 Eh          -20976.99649 eV
Kinetic Energy     :        384.64296090498561 Eh           10466.66708 eV
Virial Ratio       :          2.00417156004583

DFT components:
N(Alpha)           :       31.999972153711 electrons
N(Beta)            :       31.999972153711 electrons
N(Total)           :       63.999944307422 electrons
E(X)               :      -52.085377080650 Eh       
E(C)               :       -2.038029187467 Eh       
E(XC)              :      -54.123406268117 Eh       

CPCM Solvation Model Properties:
Surface-charge          :         -0.04702541545224
Corrected charge        :          0.00000000000000
Outlying charge corr.   :          0.00016749184466 Eh               0.00456 eV
Free-energy (cav+disp)  :          0.00780972392252 Eh               0.21251 eV

---------------
SCF CONVERGENCE
---------------

  Last Energy change         ...    1.1384e-07  Tolerance :   1.0000e-06
  Last MAX-Density change    ...    1.8700e-04  Tolerance :   1.0000e-05
  Last RMS-Density change    ...    6.6404e-06  Tolerance :   1.0000e-06
  Last DIIS Error            ...    1.8816e-04  Tolerance :   1.0000e-06
  Last Orbital Gradient      ...    5.2150e-05  Tolerance :   3.3300e-04
  Last Orbital Rotation      ...    1.2385e-04  Tolerance :   3.3300e-04


----------------
ORBITAL ENERGIES
----------------

  NO   OCC          E(Eh)            E(eV) 
   0   2.0000     -19.001537      -517.0581 
   1   2.0000     -18.943356      -515.4749 
   2   2.0000     -10.161791      -276.5164 
   3   2.0000     -10.083433      -274.3842 
   4   2.0000     -10.035157      -273.0705 
   5   2.0000     -10.029295      -272.9110 
   6   2.0000     -10.018026      -272.6044 
   7   2.0000     -10.011624      -272.4301 
   8   2.0000      -1.078495       -29.3473 
   9   2.0000      -0.988393       -26.8955 
  10   2.0000      -0.770853       -20.9760 
  11   2.0000      -0.730875       -19.8881 
  12   2.0000      -0.672239       -18.2926 
  13   2.0000      -0.617846       -16.8124 
  14   2.0000      -0.563990       -15.3469 
  15   2.0000      -0.520424       -14.1614 
  16   2.0000      -0.471538       -12.8312 
  17   2.0000      -0.456384       -12.4189 
  18   2.0000      -0.444765       -12.1027 
  19   2.0000      -0.417625       -11.3642 
  20   2.0000      -0.404092       -10.9959 
  21   2.0000      -0.393326       -10.7029 
  22   2.0000      -0.365554        -9.9472 
  23   2.0000      -0.364017        -9.9054 
  24   2.0000      -0.349751        -9.5172 
  25   2.0000      -0.335115        -9.1189 
  26   2.0000      -0.318645        -8.6708 
  27   2.0000      -0.308418        -8.3925 
  28   2.0000      -0.304566        -8.2877 
  29   2.0000      -0.301015        -8.1910 
  30   2.0000      -0.276975        -7.5369 
  31   2.0000      -0.247359        -6.7310 
  32   0.0000      -0.023666        -0.6440 
  33   0.0000       0.077182         2.1002 
  34   0.0000       0.097153         2.6437 
  35   0.0000       0.122460         3.3323 
  36   0.0000       0.126067         3.4305 
  37   0.0000       0.134148         3.6503 
  38   0.0000       0.141357         3.8465 
  39   0.0000       0.146708         3.9921 
  40   0.0000       0.154738         4.2106 
  41   0.0000       0.159316         4.3352 
  42   0.0000       0.175050         4.7634 
*Only the first 10 virtual orbitals were printed.

                    ********************************
                    * MULLIKEN POPULATION ANALYSIS *
                    ********************************

-----------------------
MULLIKEN ATOMIC CHARGES
-----------------------
   0 C :   -0.531082
   1 C :   -0.223968
   2 C :   -0.333761
   3 C :    0.404150
   4 O :   -0.510150
   5 O :   -0.195140
   6 C :   -0.137512
   7 C :   -0.495048
   8 H :    0.161761
   9 H :    0.163704
  10 H :    0.162598
  11 H :    0.157049
  12 H :    0.165029
  13 H :    0.184306
  14 H :    0.178633
  15 H :    0.173969
  16 H :    0.171218
  17 H :    0.165102
  18 H :    0.170147
  19 H :    0.168994
Sum of atomic charges:    0.0000000

--------------------------------
MULLIKEN REDUCED ORBITAL CHARGES
--------------------------------
  0 C s       :     3.346896  s :     3.346896
      pz      :     0.985947  p :     3.157193
      px      :     1.083869
      py      :     1.087377
      dz2     :     0.004147  d :     0.026993
      dxz     :     0.007480
      dyz     :     0.006702
      dx2y2   :     0.001724
      dxy     :     0.006940

  1 C s       :     3.197751  s :     3.197751
      pz      :     0.976126  p :     2.989263
      px      :     1.041694
      py      :     0.971443
      dz2     :     0.005208  d :     0.036954
      dxz     :     0.009029
      dyz     :     0.009141
      dx2y2   :     0.004467
      dxy     :     0.009108

  2 C s       :     3.260370  s :     3.260370
      pz      :     1.102037  p :     3.038924
      px      :     0.945877
      py      :     0.991010
      dz2     :     0.003940  d :     0.034467
      dxz     :     0.007922
      dyz     :     0.008032
      dx2y2   :     0.006760
      dxy     :     0.007812

  3 C s       :     3.154369  s :     3.154369
      pz      :     0.758517  p :     2.316551
      px      :     0.816905
      py      :     0.741129
      dz2     :     0.028783  d :     0.124930
      dxz     :     0.042250
      dyz     :     0.030920
      dx2y2   :     0.012570
      dxy     :     0.010407

  4 O s       :     3.830186  s :     3.830186
      pz      :     1.345976  p :     4.655396
      px      :     1.735034
      py      :     1.574386
      dz2     :     0.010575  d :     0.024568
      dxz     :     0.003221
      dyz     :     0.007201
      dx2y2   :     0.001263
      dxy     :     0.002308

  5 O s       :     3.700511  s :     3.700511
      pz      :     1.620780  p :     4.459436
      px      :     1.287984
      py      :     1.550672
      dz2     :     0.008611  d :     0.035192
      dxz     :     0.003322
      dyz     :     0.009845
      dx2y2   :     0.007668
      dxy     :     0.005746

  6 C s       :     3.261340  s :     3.261340
      pz      :     1.089352  p :     2.822941
      px      :     0.747861
      py      :     0.985727
      dz2     :     0.008835  d :     0.053231
      dxz     :     0.008648
      dyz     :     0.009161
      dx2y2   :     0.012897
      dxy     :     0.013691

  7 C s       :     3.338109  s :     3.338109
      pz      :     1.102537  p :     3.131415
      px      :     1.009058
      py      :     1.019820
      dz2     :     0.005385  d :     0.025524
      dxz     :     0.002430
      dyz     :     0.006659
      dx2y2   :     0.003864
      dxy     :     0.007185

  8 H s       :     0.819911  s :     0.819911
      pz      :     0.003980  p :     0.018328
      px      :     0.006223
      py      :     0.008125

  9 H s       :     0.818075  s :     0.818075
      pz      :     0.006078  p :     0.018221
      px      :     0.005681
      py      :     0.006462

 10 H s       :     0.819122  s :     0.819122
      pz      :     0.005891  p :     0.018280
      px      :     0.007847
      py      :     0.004541

 11 H s       :     0.825045  s :     0.825045
      pz      :     0.005936  p :     0.017906
      px      :     0.005376
      py      :     0.006594

 12 H s       :     0.817019  s :     0.817019
      pz      :     0.005628  p :     0.017952
      px      :     0.008097
      py      :     0.004227

 13 H s       :     0.797511  s :     0.797511
      pz      :     0.009088  p :     0.018183
      px      :     0.003772
      py      :     0.005324

 14 H s       :     0.803620  s :     0.803620
      pz      :     0.006250  p :     0.017746
      px      :     0.004920
      py      :     0.006577

 15 H s       :     0.808509  s :     0.808509
      pz      :     0.006136  p :     0.017522
      px      :     0.002812
      py      :     0.008574

 16 H s       :     0.810946  s :     0.810946
      pz      :     0.011213  p :     0.017836
      px      :     0.002536
      py      :     0.004087

 17 H s       :     0.816613  s :     0.816613
      pz      :     0.010127  p :     0.018285
      px      :     0.003572
      py      :     0.004585

 18 H s       :     0.811338  s :     0.811338
      pz      :     0.004304  p :     0.018515
      px      :     0.009460
      py      :     0.004750

 19 H s       :     0.812734  s :     0.812734
      pz      :     0.006464  p :     0.018272
      px      :     0.003834
      py      :     0.007974


------------------------
MULLIKEN OVERLAP CHARGES
------------------------
B(  0-C ,  1-C ) :   0.4221 B(  0-C ,  2-C ) :  -0.2048 B(  0-C ,  8-H ) :   0.7962 
B(  0-C ,  9-H ) :   0.8474 B(  0-C , 10-H ) :   0.8367 B(  0-C , 11-H ) :  -0.0619 
B(  0-C , 12-H ) :  -0.0530 B(  1-C ,  2-C ) :   0.4274 B(  1-C ,  3-C ) :  -0.1093 
B(  1-C ,  8-H ) :  -0.0746 B(  1-C ,  9-H ) :  -0.0893 B(  1-C , 10-H ) :  -0.0838 
B(  1-C , 11-H ) :   0.8570 B(  1-C , 12-H ) :   0.8350 B(  1-C , 13-H ) :  -0.0569 
B(  1-C , 14-H ) :  -0.0693 B(  2-C ,  3-C ) :   0.3114 B(  2-C ,  4-O ) :  -0.1054 
B(  2-C ,  5-O ) :  -0.0569 B(  2-C , 10-H ) :  -0.0536 B(  2-C , 11-H ) :  -0.0630 
B(  2-C , 12-H ) :  -0.1113 B(  2-C , 13-H ) :   0.7714 B(  2-C , 14-H ) :   0.9278 
B(  3-C ,  4-O ) :   0.9496 B(  3-C ,  5-O ) :   0.3082 B(  3-C ,  6-C ) :  -0.1868 
B(  3-C , 10-H ) :   0.0632 B(  3-C , 14-H ) :  -0.1662 B(  4-O ,  5-O ) :  -0.2138 
B(  5-O ,  6-C ) :   0.3136 B(  5-O ,  7-C ) :  -0.1085 B(  5-O , 15-H ) :  -0.0866 
B(  5-O , 16-H ) :  -0.0680 B(  6-C ,  7-C ) :   0.5403 B(  6-C , 15-H ) :   0.7969 
B(  6-C , 16-H ) :   0.8569 B(  6-C , 17-H ) :  -0.0676 B(  6-C , 18-H ) :  -0.0688 
B(  6-C , 19-H ) :  -0.0864 B(  7-C , 16-H ) :  -0.0827 B(  7-C , 17-H ) :   0.8275 
B(  7-C , 18-H ) :   0.8065 B(  7-C , 19-H ) :   0.8416 


                     *******************************
                     * LOEWDIN POPULATION ANALYSIS *
                     *******************************

----------------------
LOEWDIN ATOMIC CHARGES
----------------------
   0 C :   -0.423556
   1 C :   -0.288263
   2 C :   -0.228639
   3 C :    0.360933
   4 O :   -0.492578
   5 O :   -0.600398
   6 C :    0.031972
   7 C :   -0.393539
   8 H :    0.156275
   9 H :    0.156185
  10 H :    0.156295
  11 H :    0.163990
  12 H :    0.160503
  13 H :    0.189626
  14 H :    0.181137
  15 H :    0.188911
  16 H :    0.188952
  17 H :    0.161871
  18 H :    0.167693
  19 H :    0.162632

-------------------------------
LOEWDIN REDUCED ORBITAL CHARGES
-------------------------------
  0 C s       :     2.971500  s :     2.971500
      pz      :     1.103566  p :     3.389278
      px      :     1.143345
      py      :     1.142368
      dz2     :     0.008881  d :     0.062778
      dxz     :     0.017474
      dyz     :     0.015780
      dx2y2   :     0.003671
      dxy     :     0.016972

  1 C s       :     2.934490  s :     2.934490
      pz      :     1.099069  p :     3.274020
      px      :     1.097290
      py      :     1.077661
      dz2     :     0.010354  d :     0.079752
      dxz     :     0.019789
      dyz     :     0.020058
      dx2y2   :     0.008645
      dxy     :     0.020905

  2 C s       :     2.924868  s :     2.924868
      pz      :     1.115797  p :     3.230951
      px      :     1.024329
      py      :     1.090825
      dz2     :     0.008453  d :     0.072821
      dxz     :     0.016662
      dyz     :     0.018136
      dx2y2   :     0.012262
      dxy     :     0.017307

  3 C s       :     2.738890  s :     2.738890
      pz      :     0.966257  p :     2.628754
      px      :     0.905241
      py      :     0.757255
      dz2     :     0.068051  d :     0.271423
      dxz     :     0.092273
      dyz     :     0.065955
      dx2y2   :     0.023976
      dxy     :     0.021168

  4 O s       :     3.545208  s :     3.545208
      pz      :     1.490065  p :     4.728549
      px      :     1.695291
      py      :     1.543193
      dz2     :     0.071458  d :     0.218821
      dxz     :     0.068224
      dyz     :     0.048373
      dx2y2   :     0.011841
      dxy     :     0.018925

  5 O s       :     3.460702  s :     3.460702
      pz      :     1.637374  p :     4.659347
      px      :     1.421040
      py      :     1.600932
      dz2     :     0.090543  d :     0.480350
      dxz     :     0.099669
      dyz     :     0.068635
      dx2y2   :     0.095592
      dxy     :     0.125911

  6 C s       :     2.871084  s :     2.871084
      pz      :     1.082426  p :     2.977448
      px      :     0.859270
      py      :     1.035752
      dz2     :     0.021881  d :     0.119496
      dxz     :     0.018332
      dyz     :     0.020554
      dx2y2   :     0.027005
      dxy     :     0.031724

  7 C s       :     2.974372  s :     2.974372
      pz      :     1.159636  p :     3.359268
      px      :     1.084051
      py      :     1.115581
      dz2     :     0.013153  d :     0.059899
      dxz     :     0.005066
      dyz     :     0.016058
      dx2y2   :     0.008826
      dxy     :     0.016797

  8 H s       :     0.799790  s :     0.799790
      pz      :     0.009237  p :     0.043935
      px      :     0.014837
      py      :     0.019861

  9 H s       :     0.799996  s :     0.799996
      pz      :     0.014518  p :     0.043820
      px      :     0.013551
      py      :     0.015750

 10 H s       :     0.799551  s :     0.799551
      pz      :     0.014089  p :     0.044153
      px      :     0.019566
      py      :     0.010498

 11 H s       :     0.792255  s :     0.792255
      pz      :     0.014553  p :     0.043755
      px      :     0.013034
      py      :     0.016169

 12 H s       :     0.795759  s :     0.795759
      pz      :     0.013560  p :     0.043739
      px      :     0.020087
      py      :     0.010091

 13 H s       :     0.765496  s :     0.765496
      pz      :     0.023053  p :     0.044877
      px      :     0.009141
      py      :     0.012683

 14 H s       :     0.775218  s :     0.775218
      pz      :     0.015806  p :     0.043645
      px      :     0.011642
      py      :     0.016198

 15 H s       :     0.770578  s :     0.770578
      pz      :     0.015413  p :     0.040511
      px      :     0.005659
      py      :     0.019439

 16 H s       :     0.768305  s :     0.768305
      pz      :     0.027010  p :     0.042743
      px      :     0.006479
      py      :     0.009254

 17 H s       :     0.794230  s :     0.794230
      pz      :     0.025520  p :     0.043899
      px      :     0.007798
      py      :     0.010581

 18 H s       :     0.787719  s :     0.787719
      pz      :     0.009835  p :     0.044589
      px      :     0.023372
      py      :     0.011381

 19 H s       :     0.793140  s :     0.793140
      pz      :     0.015823  p :     0.044228
      px      :     0.008786
      py      :     0.019619


---------------------------------
LOEWDIN BOND ORDERS (THRESH 0.050000)
---------------------------------
B(  0-C ,  1-C ) :   1.1423 B(  0-C ,  2-C ) :   0.0664 B(  0-C ,  8-H ) :   0.9279 
B(  0-C ,  9-H ) :   0.9277 B(  0-C , 10-H ) :   0.9198 B(  1-C ,  2-C ) :   1.0782 
B(  1-C ,  3-C ) :   0.0729 B(  1-C , 11-H ) :   0.8870 B(  1-C , 12-H ) :   0.8904 
B(  2-C ,  3-C ) :   0.9310 B(  2-C ,  4-O ) :   0.1821 B(  2-C ,  5-O ) :   0.1798 
B(  2-C , 13-H ) :   0.8582 B(  2-C , 14-H ) :   0.8687 B(  3-C ,  4-O ) :   2.1401 
B(  3-C ,  5-O ) :   1.4617 B(  3-C ,  6-C ) :   0.0835 B(  4-O ,  5-O ) :   0.4539 
B(  4-O ,  6-C ) :   0.0643 B(  5-O ,  6-C ) :   1.3066 B(  5-O ,  7-C ) :   0.1563 
B(  5-O , 15-H ) :   0.0973 B(  5-O , 16-H ) :   0.0923 B(  6-C ,  7-C ) :   1.0835 
B(  6-C , 15-H ) :   0.8284 B(  6-C , 16-H ) :   0.8169 B(  7-C , 17-H ) :   0.9230 
B(  7-C , 18-H ) :   0.9151 B(  7-C , 19-H ) :   0.9197 

------------------------------------------
LOEWDIN REDUCED ORBITAL POPULATIONS PER MO
-------------------------------------------
THRESHOLD FOR PRINTING IS 0.1%%
                      0         1         2         3         4         5   
                 -19.00154 -18.94336 -10.16179 -10.08343 -10.03516 -10.02930
                   2.00000   2.00000   2.00000   2.00000   2.00000   2.00000
                  --------  --------  --------  --------  --------  --------
 1 C  s               0.0       0.0       0.0       0.0       0.0      99.7
 2 C  s               0.0       0.0       0.0       0.0      99.7       0.0
 3 C  s               0.0       0.0      98.9       0.0       0.0       0.0
 4 O  s               0.0      99.9       0.0       0.0       0.0       0.0
 4 O  pz              0.0       0.0       0.2       0.0       0.0       0.0
 4 O  dz2             0.0       0.0       0.3       0.0       0.0       0.0
 5 O  s              99.9       0.0       0.0       0.0       0.0       0.0
 5 O  dxz             0.0       0.0       0.1       0.1       0.0       0.0
 6 C  s               0.0       0.0       0.0      99.4       0.0       0.0

                      6         7         8         9        10        11   
                 -10.01803 -10.01162  -1.07849  -0.98839  -0.77085  -0.73087
                   2.00000   2.00000   2.00000   2.00000   2.00000   2.00000
                  --------  --------  --------  --------  --------  --------
 0 C  s               0.0      99.7       0.0       0.0       7.5       6.3
 0 C  pz              0.0       0.0       0.0       0.0       1.2       0.5
 0 C  px              0.0       0.0       0.0       0.0       0.4       0.1
 0 C  py              0.0       0.0       0.0       0.0       0.7       0.2
 1 C  s               0.0       0.0       0.1       0.0      18.0       7.9
 1 C  pz              0.0       0.1       0.0       0.0       0.9       0.5
 1 C  px              0.0       0.0       0.2       0.0       0.6       0.1
 1 C  py              0.0       0.0       0.0       0.0       0.5       0.0
 2 C  s               0.0       0.0       1.0       0.1      19.9       1.5
 2 C  pz              0.0       0.0       0.3       0.4       0.0       0.0
 2 C  px              0.0       0.0       1.5       0.1       0.2       1.7
 2 C  py              0.0       0.0       0.3       0.0       1.8       0.3
 3 C  s               0.0       0.0      17.0       3.1       3.2       1.0
 3 C  pz              0.0       0.0       0.1      20.8       3.9       1.3
 3 C  px              0.0       0.0       3.6       0.3       5.7       0.5
 3 C  py              0.0       0.0       1.1       2.6       0.2       0.4
 3 C  dz2             0.0       0.0       0.4       1.0       0.0       0.0
 3 C  dxz             0.0       0.0       0.1       0.8       0.0       0.1
 3 C  dyz             0.0       0.0       0.4       0.0       0.0       0.1
 3 C  dxy             0.0       0.0       0.2       0.2       0.0       0.0
 4 O  s               0.0       0.0      14.5      40.8       1.3       0.2
 4 O  pz              0.0       0.0       3.1       2.8       0.3       0.1
 4 O  px              0.0       0.0       0.1       0.3       0.2       0.0
 4 O  py              0.0       0.0       0.2       0.0       0.0       0.0
 4 O  dz2             0.0       0.0       1.0       0.1       0.2       0.2
 4 O  dxz             0.0       0.0       0.0       0.2       0.4       0.0
 4 O  dyz             0.0       0.0       0.4       0.1       0.0       0.0
 5 O  s               0.0       0.0      39.2      18.8       0.1       1.1
 5 O  pz              0.0       0.0       2.5       0.4       0.0       0.2
 5 O  px              0.0       0.0       0.1       0.4       5.5       8.1
 5 O  py              0.0       0.0       0.4       0.2       1.3       2.0
 5 O  dz2             0.0       0.0       0.1       0.5       0.1       0.3
 5 O  dxz             0.0       0.0       0.1       0.3       0.3       0.6
 5 O  dyz             0.0       0.0       0.3       0.4       0.0       0.1
 5 O  dx2y2           0.0       0.0       0.0       0.1       0.0       0.8
 5 O  dxy             0.0       0.0       0.3       0.0       0.1       0.1
 6 C  s               0.0       0.0       4.0       2.0       5.0      17.6
 6 C  pz              0.0       0.0       0.2       0.5       0.1       0.0
 6 C  px              0.0       0.0       4.0       1.3       0.1       2.3
 6 C  py              0.0       0.0       1.0       0.2       0.1       0.5
 6 C  dx2y2           0.0       0.0       0.1       0.1       0.0       0.0
 6 C  dxy             0.0       0.0       0.1       0.1       0.0       0.1
 7 C  s              99.7       0.0       0.3       0.1       2.5      18.6
 7 C  px              0.0       0.0       0.7       0.2       0.3       0.9
 7 C  py              0.0       0.0       0.1       0.1       0.3       1.0
 8 H  s               0.0       0.0       0.0       0.0       0.9       1.0
 9 H  s               0.0       0.0       0.0       0.0       0.9       1.0
10 H  s               0.0       0.0       0.0       0.0       1.0       0.9
11 H  s               0.0       0.0       0.0       0.0       2.4       1.1
12 H  s               0.0       0.0       0.0       0.0       2.3       1.3
12 H  px              0.0       0.0       0.0       0.0       0.1       0.1
13 H  s               0.0       0.0       0.1       0.0       2.8       0.2
13 H  pz              0.0       0.0       0.0       0.0       0.2       0.0
14 H  s               0.0       0.0       0.1       0.0       2.6       0.3
14 H  py              0.0       0.0       0.0       0.0       0.1       0.0
15 H  s               0.0       0.0       0.2       0.2       0.8       3.2
15 H  pz              0.0       0.0       0.0       0.0       0.0       0.1
15 H  py              0.0       0.0       0.0       0.0       0.1       0.2
16 H  s               0.0       0.0       0.3       0.1       0.7       2.8
16 H  pz              0.0       0.0       0.0       0.0       0.1       0.2
17 H  s               0.0       0.0       0.0       0.0       0.3       2.9
17 H  pz              0.0       0.0       0.0       0.0       0.0       0.2
18 H  s               0.0       0.0       0.0       0.0       0.3       3.1
18 H  px              0.0       0.0       0.0       0.0       0.0       0.2
19 H  s               0.0       0.0       0.0       0.0       0.3       2.9
19 H  py              0.0       0.0       0.0       0.0       0.0       0.2

                     12        13        14        15        16        17   
                  -0.67224  -0.61785  -0.56399  -0.52042  -0.47154  -0.45638
                   2.00000   2.00000   2.00000   2.00000   2.00000   2.00000
                  --------  --------  --------  --------  --------  --------
 0 C  s              19.4       5.1       8.7       0.2       0.1       0.2
 0 C  pz              0.1       0.3       6.7       0.4       0.3       0.8
 0 C  px              0.0       0.1       0.3       0.1       1.7       0.2
 0 C  py              0.0       0.3       0.9       0.0       0.2       0.4
 1 C  s               3.0       0.8      14.9       0.5       0.1       0.4
 1 C  pz              1.2       0.8       7.7       0.2       0.0       0.1
 1 C  px              3.1       0.5       0.0       0.1       2.6       0.4
 1 C  py              4.7       2.2       0.0       0.7       4.5       0.3
 2 C  s              11.2       4.4       1.8       1.2       1.8       0.5
 2 C  pz              0.1       0.1       3.4       0.0       1.6       6.1
 2 C  px              2.0       1.3       3.8       0.6       4.8       0.1
 2 C  py              0.9       0.3       3.1       2.2       7.9       0.4
 2 C  dxz             0.0       0.0       0.0       0.0       0.1       0.1
 2 C  dxy             0.0       0.0       0.1       0.0       0.0       0.0
 3 C  s               2.6       1.5       1.1       2.6       0.5       2.9
 3 C  pz              2.1       1.6       0.1       0.4       0.0       5.5
 3 C  px              3.2       1.6       3.3       0.4       9.7       0.4
 3 C  py              1.2       0.8       1.3       2.6       0.7       0.7
 3 C  dz2             0.0       0.0       0.0       0.0       0.1       0.1
 3 C  dxz             0.0       0.1       0.0       0.0       0.0       0.0
 4 O  s               0.9       0.4       0.9       2.1       0.1      13.8
 4 O  pz              0.5       0.4       0.7       2.7       0.5      36.0
 4 O  px              0.3       0.1       1.0       0.1       6.0       4.6
 4 O  py              0.1       0.1       0.1       1.8       0.1       0.4
 4 O  dz2             0.2       0.2       0.0       0.1       0.0       0.3
 4 O  dxz             0.3       0.0       0.3       0.0       0.7       0.2
 4 O  dyz             0.0       0.0       0.0       0.3       0.0       0.0
 4 O  dxy             0.0       0.1       0.0       0.0       0.2       0.0
 5 O  s               1.0       0.1       0.3       5.2       1.0       0.4
 5 O  pz              0.0       0.7       0.0      11.7      11.1       2.3
 5 O  px              1.1      10.8       0.3       6.9       3.0       7.2
 5 O  py              1.0       7.7       0.2       0.8       4.5       0.3
 5 O  dz2             0.4       0.0       0.1       0.0       0.6       0.0
 5 O  dxz             0.0       0.2       0.0       0.1       0.8       0.4
 5 O  dyz             0.0       0.2       0.0       0.1       0.0       0.3
 5 O  dx2y2           0.2       0.0       0.0       0.1       0.2       0.0
 5 O  dxy             0.3       0.6       0.8       0.8       0.3       0.1
 6 C  s               0.6       4.2       1.8       6.5       0.1       0.3
 6 C  pz              0.1       0.6       0.0      10.0       7.3       0.7
 6 C  px              3.1       5.3       0.0       2.3       0.8       1.8
 6 C  py              0.4       3.2       1.0       6.5       4.4       2.5
 6 C  dxz             0.0       0.1       0.0       0.3       0.0       0.0
 6 C  dxy             0.1       0.2       0.0       0.0       0.0       0.0
 7 C  s               8.2      14.7       1.0       1.5       0.1       0.0
 7 C  pz              0.0       0.0       0.0       1.4       1.8       0.4
 7 C  px              0.0       1.4       0.3       0.6       1.4       0.3
 7 C  py              0.0       1.1       0.7       4.4       0.7       1.1
 8 H  s               4.2       1.6       3.2       0.1       0.1       0.3
 8 H  px              0.1       0.0       0.1       0.0       0.0       0.0
 8 H  py              0.2       0.1       0.1       0.0       0.0       0.0
 9 H  s               3.8       1.3       4.0       0.3       0.8       0.2
 9 H  pz              0.1       0.0       0.0       0.0       0.0       0.0
 9 H  py              0.1       0.1       0.2       0.0       0.0       0.0
10 H  s               3.7       1.5       4.3       0.0       0.1       0.2
10 H  pz              0.1       0.0       0.0       0.0       0.0       0.0
10 H  px              0.2       0.1       0.2       0.0       0.0       0.0
11 H  s               0.5       0.1       6.6       0.6       1.9       0.0
11 H  pz              0.0       0.0       0.1       0.0       0.1       0.0
11 H  px              0.0       0.0       0.2       0.0       0.0       0.0
11 H  py              0.0       0.0       0.3       0.0       0.0       0.0
12 H  s               0.7       0.3       6.9       0.1       0.5       0.1
12 H  px              0.0       0.0       0.4       0.0       0.0       0.0
13 H  s               2.9       1.2       0.5       0.8       3.2       3.2
13 H  pz              0.2       0.1       0.1       0.0       0.1       0.1
14 H  s               2.3       1.6       1.5       1.6       3.2       0.0
14 H  pz              0.1       0.1       0.0       0.0       0.2       0.0
15 H  s               0.1       2.1       1.1       2.8       3.8       0.8
15 H  pz              0.0       0.1       0.0       0.2       0.0       0.0
15 H  py              0.0       0.1       0.0       0.0       0.1       0.0
16 H  s               0.1       1.0       0.7      10.3       1.0       1.1
16 H  pz              0.0       0.1       0.1       0.5       0.0       0.0
17 H  s               1.6       3.9       0.4       2.4       0.5       0.3
17 H  pz              0.1       0.3       0.0       0.1       0.0       0.0
18 H  s               1.9       4.5       0.4       0.2       0.4       0.2
18 H  px              0.1       0.2       0.0       0.0       0.0       0.0
19 H  s               1.7       4.4       0.5       1.0       0.6       0.1
19 H  pz              0.1       0.1       0.0       0.1       0.0       0.0
19 H  py              0.1       0.2       0.0       0.0       0.0       0.0

                     18        19        20        21        22        23   
                  -0.44477  -0.41763  -0.40409  -0.39333  -0.36555  -0.36402
                   2.00000   2.00000   2.00000   2.00000   2.00000   2.00000
                  --------  --------  --------  --------  --------  --------
 0 C  s               0.1       0.0       0.2       0.0       0.0       0.0
 0 C  pz              1.4       0.0       0.2       5.2       0.8      11.4
 0 C  px              2.0       6.8       1.4       6.5       9.5       3.6
 0 C  py              1.7       5.5      12.0       0.0       0.2       7.9
 0 C  dxy             0.0       0.0       0.0       0.0       0.0       0.1
 1 C  s               0.2       0.0       0.4       0.0       0.1       0.0
 1 C  pz              4.0       0.1       8.1       0.5       0.8       1.2
 1 C  px              1.7      12.7       0.3       8.0       2.2       0.1
 1 C  py              2.5       6.4       0.8       1.5       0.0       7.0
 1 C  dx2y2           0.0       0.0       0.0       0.0       0.0       0.1
 2 C  s               0.4       0.1       0.3       0.2       0.0       0.2
 2 C  pz              2.4       0.5      12.8       5.5       0.0       9.5
 2 C  px              5.7       4.3       0.8       2.3       2.1       1.7
 2 C  py              1.2       1.7       4.1       1.2       0.2       7.5
 2 C  dz2             0.0       0.0       0.1       0.0       0.0       0.0
 2 C  dxz             0.0       0.0       0.0       0.0       0.0       0.1
 3 C  s               0.5       0.2       0.0       0.1       0.3       0.1
 3 C  pz              2.0       0.2       2.6       0.3       0.9       0.9
 3 C  px              2.1       1.2       0.3       3.5       3.5       0.9
 3 C  py             13.3       0.5       0.7       2.3       2.6       0.2
 3 C  dz2             0.0       0.0       0.0       0.0       0.0       0.2
 3 C  dxz             0.0       0.1       0.1       0.0       0.0       0.1
 3 C  dyz             0.0       0.1       0.0       0.1       0.1       0.0
 3 C  dx2y2           0.0       0.0       0.1       0.0       0.0       0.0
 3 C  dxy             0.1       0.0       0.0       0.0       0.1       0.1
 4 O  s               0.0       0.2       1.0       0.1       0.4       0.2
 4 O  pz              2.1       1.5       5.6       0.7       5.7       2.2
 4 O  px              0.6       0.1       0.0       1.9       1.3       1.0
 4 O  py              7.6       0.2       2.4       3.8       4.0       0.1
 4 O  dz2             0.4       0.0       0.1       0.0       0.0       0.0
 4 O  dxz             0.1       0.0       0.0       0.2       0.1       0.0
 4 O  dyz             0.7       0.0       0.1       0.1       0.2       0.0
 4 O  dx2y2           0.0       0.0       0.1       0.0       0.0       0.0
 4 O  dxy             0.0       0.0       0.0       0.1       0.0       0.1
 5 O  s               0.1       0.3       0.0       1.0       1.2       0.1
 5 O  pz              3.9       0.3       0.7       1.5       3.9       4.8
 5 O  px              1.6       4.3       0.5       0.4       0.2       0.1
 5 O  py             14.6       0.2       9.1       2.8       0.5       0.3
 5 O  dz2             0.5       0.0       0.1       0.0       0.1       0.0
 5 O  dxz             0.0       0.5       0.0       0.2       0.1       0.0
 5 O  dyz             0.3       0.0       0.0       0.1       0.1       0.0
 5 O  dx2y2           0.0       0.3       0.2       0.3       0.7       0.0
 5 O  dxy             0.4       0.2       0.1       0.0       0.0       0.0
 6 C  s               0.7       0.1       0.3       0.1       0.1       0.0
 6 C  pz              2.6       4.3       0.1       6.9       0.1       0.2
 6 C  px              3.5       2.2       2.2       1.8       0.5       0.0
 6 C  py              0.2       6.6       3.1       0.3       0.6       0.1
 6 C  dxz             0.0       0.0       0.0       0.1       0.1       0.1
 6 C  dx2y2           0.1       0.0       0.1       0.0       0.1       0.0
 7 C  s               0.6       0.0       0.2       0.1       0.0       0.0
 7 C  pz              1.0       3.2       0.1      14.1      11.9       4.8
 7 C  px              3.3       4.7       6.8       1.4      10.3       1.3
 7 C  py              2.0       3.0       0.8       1.3       6.5       0.8
 7 C  dz2             0.0       0.0       0.0       0.0       0.2       0.0
 7 C  dxy             0.1       0.0       0.1       0.1       0.1       0.0
 8 H  s               1.6       0.0       5.1       1.7       2.6       1.5
 8 H  px              0.0       0.0       0.1       0.0       0.0       0.1
 9 H  s               0.1       2.5       0.3       0.0       0.2      10.4
 9 H  py              0.0       0.0       0.0       0.0       0.0       0.1
10 H  s               0.4       2.8       0.3       4.2       3.0       0.1
10 H  pz              0.0       0.1       0.0       0.0       0.0       0.1
11 H  s               1.1       4.0       1.4       0.0       0.2       0.4
11 H  pz              0.0       0.1       0.0       0.0       0.0       0.1
12 H  s               1.1       4.3       0.0       2.2       1.0       0.7
12 H  pz              0.0       0.1       0.0       0.0       0.0       0.0
13 H  s               1.0       0.2       9.0       1.0       0.0       0.8
13 H  pz              0.0       0.0       0.2       0.0       0.0       0.0
13 H  py              0.0       0.0       0.1       0.0       0.0       0.1
14 H  s               1.3       1.5       0.3       0.5       0.3      10.5
15 H  s               1.3       4.7       0.2       1.2       0.0       0.1
16 H  s               0.4       0.6       0.0       2.5       0.0       0.0
17 H  s               0.1       0.6       0.6       3.0       7.2       1.6
17 H  pz              0.0       0.0       0.0       0.0       0.1       0.0
17 H  px              0.0       0.0       0.0       0.0       0.1       0.0
18 H  s               1.2       1.8       1.9       1.3      11.4       0.3
18 H  px              0.0       0.0       0.0       0.0       0.2       0.0
19 H  s               1.3       2.5       0.1       3.8       0.1       2.3
19 H  pz              0.0       0.0       0.0       0.0       0.1       0.0
19 H  py              0.0       0.1       0.0       0.1       0.0       0.1

                     24        25        26        27        28        29   
                  -0.34975  -0.33512  -0.31865  -0.30842  -0.30457  -0.30101
                   2.00000   2.00000   2.00000   2.00000   2.00000   2.00000
                  --------  --------  --------  --------  --------  --------
 0 C  s               0.1       0.0       0.3       0.4       0.0       0.0
 0 C  pz              0.0       0.0      17.4       6.0       0.2       1.3
 0 C  px              1.2       2.3       5.9       8.2       5.9       0.2
 0 C  py              4.0       2.5       0.3       8.6       2.9       8.5
 0 C  dz2             0.0       0.0       0.0       0.2       0.0       0.1
 0 C  dxz             0.0       0.1       0.2       0.0       0.3       0.1
 0 C  dyz             0.0       0.0       0.0       0.2       0.2       0.1
 0 C  dxy             0.0       0.0       0.3       0.1       0.0       0.2
 1 C  s               0.1       0.0       0.3       0.0       0.0       0.1
 1 C  pz              1.5       0.0      16.9       6.5       0.2       2.4
 1 C  px              0.1       0.3       2.9       8.0       8.2       0.2
 1 C  py              0.2       0.1       0.1       5.2       4.8      11.9
 1 C  dz2             0.0       0.0       0.0       0.1       0.0       0.1
 1 C  dxz             0.0       0.0       0.2       0.0       0.3       0.1
 1 C  dyz             0.0       0.0       0.0       0.4       0.3       0.1
 1 C  dxy             0.0       0.0       0.5       0.0       0.0       0.2
 2 C  s               0.0       0.1       0.8       0.3       0.1       0.2
 2 C  pz              0.0       0.2       1.9       4.6       0.6       0.6
 2 C  px              0.5       4.8       0.2       5.2       1.7       1.7
 2 C  py              0.1       2.6       2.8       6.8       1.1       7.6
 2 C  dyz             0.0       0.0       0.1       0.4       0.1       0.0
 2 C  dx2y2           0.0       0.0       0.1       0.0       0.1       0.0
 2 C  dxy             0.0       0.0       0.1       0.0       0.0       0.1
 3 C  s               0.0       0.1       0.1       0.0       0.5       0.0
 3 C  pz              1.1       1.1       0.4       0.4       1.4       0.3
 3 C  px              1.7       0.8       0.4       0.1       0.5       0.1
 3 C  py              4.0       0.9       0.4       0.1       0.0       0.8
 3 C  dz2             0.2       0.3       0.0       0.3       0.1       0.1
 3 C  dxz             0.2       0.0       0.3       0.0       0.0       0.0
 3 C  dyz             0.1       0.0       0.0       0.2       0.1       0.1
 3 C  dxy             0.0       0.0       0.0       0.0       0.0       0.2
 4 O  s               0.0       0.3       0.0       0.0       0.2       0.1
 4 O  pz              0.5       2.3       0.6       0.0       2.4       1.5
 4 O  px              8.0       0.0       4.7       2.0       0.4       0.0
 4 O  py             11.8       1.6       1.5       6.4       0.0       1.0
 4 O  dz2             0.0       0.2       0.0       0.0       0.2       0.0
 4 O  dyz             0.1       0.0       0.0       0.0       0.0       0.0
 4 O  dxy             0.0       0.1       0.0       0.0       0.2       0.0
 5 O  s               0.5       0.6       0.1       0.1       0.9       0.7
 5 O  pz              1.3      10.3       0.0       2.9       7.8       8.1
 5 O  px              0.1       7.6       0.2       0.0       2.5       0.0
 5 O  py              0.5       0.1       0.1       0.0       0.4       0.5
 5 O  dz2             0.1       0.0       0.0       0.2       0.4       0.3
 5 O  dxz             0.0       0.0       0.0       0.0       0.6       0.1
 5 O  dyz             0.0       0.1       0.1       0.4       0.1       0.2
 5 O  dx2y2           1.1       0.0       0.0       0.0       0.0       0.0
 5 O  dxy             0.5       0.2       0.1       0.0       0.9       0.0
 6 C  s               0.2       0.2       0.0       0.0       0.1       0.1
 6 C  pz              0.0       0.7       2.8       1.9       6.5       8.3
 6 C  px              5.0       3.8       0.1       0.0       0.5       0.3
 6 C  py             12.6       1.8       0.0       0.1       0.2       0.1
 6 C  dz2             0.1       0.0       0.0       0.0       0.1       0.2
 6 C  dyz             0.0       0.1       0.1       0.1       0.2       0.3
 6 C  dx2y2           0.1       0.3       0.0       0.0       0.0       0.0
 6 C  dxy             0.1       0.1       0.0       0.0       0.1       0.0
 7 C  s               0.3       0.0       0.0       0.0       0.0       0.0
 7 C  pz              2.4       3.6       3.0       0.9       4.7       4.5
 7 C  px              1.4      12.4       0.0       0.0       0.4       0.5
 7 C  py             19.2       7.4       0.0       0.0       0.4       0.0
 7 C  dz2             0.2       0.0       0.0       0.0       0.0       0.1
 7 C  dyz             0.0       0.2       0.1       0.0       0.2       0.2
 7 C  dx2y2           0.1       0.3       0.0       0.0       0.0       0.0
 8 H  s               2.5       0.1       3.4       6.1       0.0       3.8
 8 H  pz              0.0       0.0       0.1       0.2       0.0       0.0
 8 H  py              0.0       0.0       0.1       0.0       0.0       0.0
 9 H  s               0.4       1.9       0.2       0.4       5.3       5.7
 9 H  pz              0.0       0.0       0.1       0.0       0.0       0.0
 9 H  py              0.0       0.0       0.0       0.1       0.0       0.0
10 H  s               0.0       1.4      10.9       0.1       4.1       0.3
10 H  px              0.0       0.0       0.1       0.1       0.0       0.0
11 H  s               0.0       0.0       1.2       1.3       8.0       7.7
11 H  py              0.0       0.0       0.0       0.2       0.0       0.0
12 H  s               0.3       0.1       9.1       0.0       5.9       0.4
12 H  px              0.0       0.0       0.1       0.1       0.0       0.0
[...]
 4 O  py              1.2       0.1       0.0       0.6       0.0       0.0
 4 O  dz2             0.9       1.6       0.0      25.0       0.0       0.0
 4 O  dxz             6.9       0.0       1.2       5.2       0.0       0.0
 4 O  dyz             4.2       0.3       0.2       2.2       0.0       0.0
 4 O  dx2y2           0.4       0.0       0.4       0.0       0.0       0.0
 4 O  dxy             0.5       0.1       0.2       0.2       0.0       0.0
 5 O  s               3.7      27.0       5.1       1.2       0.0       0.0
 5 O  pz              2.9       6.2       3.9       0.1       0.0       0.0
 5 O  px              0.0       7.7      19.1       0.5       0.0       0.0
 5 O  py              0.4       0.4       8.8       0.1       0.0       0.0
 5 O  dz2             3.9       1.8       0.9       0.2       0.0       0.0
 5 O  dxz             0.2       0.8      16.9       0.3       0.0       0.0
 5 O  dyz             0.6       0.2       9.6       0.1       0.0       0.0
 5 O  dx2y2           0.2       7.7       0.3       0.5       0.0       0.0
 5 O  dxy             0.2      14.1       2.6       0.9       0.0       0.0
 6 C  s               0.2       1.3       0.5       0.2       3.2       0.2
 6 C  pz              0.0       0.7       0.3       0.0       0.0       0.0
 6 C  px              0.1       5.2       1.5       0.3       0.0       0.0
 6 C  py              0.0       1.6       0.4       0.1       0.0       0.0
 6 C  dz2             0.3       1.8       0.7       0.1       0.0       0.0
 6 C  dxz             0.4       3.3       0.7       0.2       0.0       0.0
 6 C  dyz             0.2       0.7       0.2       0.0       0.0       0.0
 6 C  dx2y2           0.0       3.7       0.9       0.2       0.0       0.0
 6 C  dxy             0.0       3.2       0.7       0.1       0.0       0.0
 7 C  s               0.0       0.0       0.0       0.0      11.2      86.8
 7 C  pz              0.2       0.0       0.0       0.0       0.0       0.0
 7 C  px              0.0       0.1       0.0       0.0       0.0       0.0
 7 C  dz2             0.3       0.0       0.0       0.0       0.0       0.0
 7 C  dyz             0.3       0.1       0.0       0.0       0.0       0.0
 7 C  dx2y2           0.0       0.2       0.0       0.0       0.0       0.0
 7 C  dxy             0.0       0.2       0.0       0.0       0.0       0.0
 8 H  s               0.3       0.0       0.0       0.0       0.0       0.0
 8 H  px              0.3       0.0       0.0       0.0       0.0       0.0
 8 H  py              0.4       0.0       0.0       0.0       0.0       0.0
10 H  s               0.8       0.0       0.0       0.0       0.0       0.0
10 H  pz              0.5       0.0       0.0       0.0       0.0       0.0
10 H  px              1.1       0.0       0.0       0.0       0.0       0.0
10 H  py              0.6       0.0       0.0       0.0       0.0       0.0
11 H  s               0.8       0.0       0.0       0.0       0.0       0.0
11 H  pz              1.4       0.0       0.0       0.0       0.0       0.0
11 H  px              0.2       0.0       0.0       0.0       0.0       0.0
11 H  py              0.6       0.0       0.0       0.0       0.0       0.0
12 H  s               1.8       0.0       0.0       0.0       0.0       0.0
12 H  pz              0.8       0.0       0.0       0.0       0.0       0.0
12 H  px              3.3       0.0       0.0       0.0       0.0       0.0
12 H  py              0.3       0.0       0.0       0.0       0.0       0.0
13 H  s               1.1       0.0       0.0       0.0       0.0       0.0
13 H  pz              1.0       0.0       0.0       0.0       0.0       0.0
13 H  py              0.7       0.0       0.0       0.0       0.0       0.0
14 H  s               4.1       0.0       0.1       0.1       0.0       0.0
14 H  pz              2.5       0.0       0.0       0.0       0.0       0.0
14 H  px              1.4       0.0       0.0       0.0       0.0       0.0
14 H  py              4.3       0.0       0.1       0.0       0.0       0.0
15 H  s               0.1       0.4       0.1       0.0       0.0       0.0
15 H  pz              0.1       0.8       0.1       0.0       0.0       0.0
15 H  px              0.0       0.2       0.0       0.0       0.0       0.0
15 H  py              0.1       0.2       0.0       0.0       0.0       0.0
16 H  s               0.0       0.3       0.1       0.0       0.0       0.0
16 H  pz              0.1       0.5       0.1       0.0       0.0       0.0
16 H  px              0.3       0.3       0.2       0.0       0.0       0.0
17 H  s               0.2       0.0       0.0       0.0       0.0       0.0
17 H  pz              0.4       0.0       0.0       0.0       0.0       0.0
18 H  s               0.0       0.1       0.0       0.0       0.0       0.0
18 H  px              0.0       0.2       0.0       0.0       0.0       0.0

                    216       217       218       219       220       221   
                  22.01968  22.03296  22.09793  22.26775  43.70007  43.76249
                   0.00000   0.00000   0.00000   0.00000   0.00000   0.00000
                  --------  --------  --------  --------  --------  --------
 0 C  s               1.5      10.2       0.6       0.1       0.0       0.0
 1 C  s              80.7      13.0       0.2       5.7       0.0       0.0
 2 C  s               7.0      35.4      46.4       0.4       0.0       0.0
 3 C  s               6.3       0.0       0.0      92.7       0.0       0.0
 4 O  s               0.0       0.0       0.0       0.2      91.9       8.0
 4 O  pz              0.0       0.0       0.0       0.1       0.0       0.0
 5 O  s               0.0       0.0       0.1       0.1       8.0      92.0
 6 C  s               4.2      40.1      51.8       0.2       0.0       0.0
 7 C  s               0.1       1.0       0.5       0.1       0.0       0.0



                      *****************************
                      * MAYER POPULATION ANALYSIS *
                      *****************************

  NA   - Mulliken gross atomic population
  ZA   - Total nuclear charge
  QA   - Mulliken gross atomic charge
  VA   - Mayer's total valence
  BVA  - Mayer's bonded valence
  FA   - Mayer's free valence

  ATOM       NA         ZA         QA         VA         BVA        FA
  0 C      6.5311     6.0000    -0.5311     3.8119     3.8119     0.0000
  1 C      6.2240     6.0000    -0.2240     3.6360     3.6360     0.0000
  2 C      6.3338     6.0000    -0.3338     3.6963     3.6963     0.0000
  3 C      5.5958     6.0000     0.4042     3.7852     3.7852     0.0000
  4 O      8.5102     8.0000    -0.5102     1.8863     1.8863     0.0000
  5 O      8.1951     8.0000    -0.1951     1.9048     1.9048     0.0000
  6 C      6.1375     6.0000    -0.1375     3.6480     3.6480    -0.0000
  7 C      6.4950     6.0000    -0.4950     3.8112     3.8112     0.0000
  8 H      0.8382     1.0000     0.1618     0.9580     0.9580    -0.0000
  9 H      0.8363     1.0000     0.1637     0.9589     0.9589    -0.0000
 10 H      0.8374     1.0000     0.1626     0.9596     0.9596     0.0000
 11 H      0.8430     1.0000     0.1570     0.9613     0.9613     0.0000
 12 H      0.8350     1.0000     0.1650     0.9554     0.9554     0.0000
 13 H      0.8157     1.0000     0.1843     0.9516     0.9516     0.0000
 14 H      0.8214     1.0000     0.1786     0.9581     0.9581     0.0000
 15 H      0.8260     1.0000     0.1740     0.9468     0.9468    -0.0000
 16 H      0.8288     1.0000     0.1712     0.9563     0.9563     0.0000
 17 H      0.8349     1.0000     0.1651     0.9585     0.9585    -0.0000
 18 H      0.8299     1.0000     0.1701     0.9583     0.9583     0.0000
 19 H      0.8310     1.0000     0.1690     0.9574     0.9574     0.0000

  Mayer bond orders larger than 0.100000
B(  0-C ,  1-C ) :   0.8964 B(  0-C ,  8-H ) :   0.9663 B(  0-C ,  9-H ) :   0.9770 
B(  0-C , 10-H ) :   0.9701 B(  1-C ,  2-C ) :   0.8734 B(  1-C , 11-H ) :   0.9739 
B(  1-C , 12-H ) :   0.9616 B(  2-C ,  3-C ) :   0.9518 B(  2-C , 13-H ) :   0.9405 
B(  2-C , 14-H ) :   0.9993 B(  3-C ,  4-O ) :   1.7750 B(  3-C ,  5-O ) :   1.0630 
B(  5-O ,  6-C ) :   0.8036 B(  6-C ,  7-C ) :   0.9342 B(  6-C , 15-H ) :   0.9518 
B(  6-C , 16-H ) :   0.9639 B(  7-C , 17-H ) :   0.9694 B(  7-C , 18-H ) :   0.9604 
B(  7-C , 19-H ) :   0.9697 

-------
TIMINGS
-------

Total SCF time: 0 days 0 hours 0 min 34 sec 

Total time                  ....      34.627 sec
Sum of individual times     ....      34.120 sec  ( 98.5%)

SCF preparation             ....       0.377 sec  (  1.1%)
Fock matrix formation       ....      32.585 sec  ( 94.1%)
  Startup                   ....       0.109 sec  (  0.3% of F)
  Split-RI-J                ....       5.391 sec  ( 16.5% of F)
  XC integration            ....      20.453 sec  ( 62.8% of F)
    XC Preparation          ....       0.000 sec  (  0.0% of XC)
    Basis function eval.    ....       3.728 sec  ( 18.2% of XC)
    Density eval.           ....       6.212 sec  ( 30.4% of XC)
    XC-Functional eval.     ....       2.584 sec  ( 12.6% of XC)
    XC-Potential eval.      ....       6.816 sec  ( 33.3% of XC)
  CPCM terms                ....       5.999 sec  ( 18.4% of F)
Diagonalization             ....       0.000 sec  (  0.0%)
Density matrix formation    ....       0.285 sec  (  0.8%)
Total Energy calculation    ....       0.074 sec  (  0.2%)
Population analysis         ....       0.147 sec  (  0.4%)
Orbital Transformation      ....       0.078 sec  (  0.2%)
Orbital Orthonormalization  ....       0.000 sec  (  0.0%)
DIIS solution               ....       0.523 sec  (  1.5%)
  MO trafo                  ....       0.000 sec  (  0.0 % of DIIS)
  Orb grad                  ....       0.000 sec  (  0.0 % of DIIS)
  Energy W gradient         ....       0.000 sec  (  0.0 % of DIIS)
  DIIS error                ....       0.031 sec  (  5.9 % of DIIS)
  DIIS work                 ....       0.422 sec  ( 80.8 % of DIIS)
  Form Q                    ....       0.000 sec  (  0.0 % of DIIS)
  Form QpQm                 ....       0.000 sec  (  0.0 % of DIIS)
  Exp/Cayley                ....       0.000 sec  (  0.0 % of DIIS)
  Orb update                ....       0.000 sec  (  0.0 % of DIIS)
  Wake-sleep                ....       0.028 sec  (  5.3 % of DIIS)
SOSCF solution              ....       0.052 sec  (  0.2%)
  MO trafo                  ....       0.040 sec  ( 76.5 % of SOSCF)
  Orb grad                  ....       0.001 sec  (  1.3 % of SOSCF)
  Rot update                ....       0.000 sec  (  0.1 % of SOSCF)
  Step                      ....       0.011 sec  ( 21.9 % of SOSCF)
Finished LeanSCF after  34.8 sec

Maximum memory used throughout the entire LEANSCF-calculation: 30.8 MB


-------------------------------------------------------------------------------
                          DFT DISPERSION CORRECTION                            
                                                                               
                                DFTD4 V3.4.0                                   
-------------------------------------------------------------------------------
The R2SCAN3C composite method is recognized
Using three-body term ABC
Active option DFTDOPT                   ...         5   

-------------------------   ----------------
Dispersion correction           -0.005185754
-------------------------   ----------------

------------------   -----------------
gCP correction             0.011705767
------------------   -----------------

-------------------------   --------------------
FINAL SINGLE POINT ENERGY      -386.241002099031
-------------------------   --------------------


------------------------------------------------------------------------------
                              ORCA PROPERTY CALCULATIONS
------------------------------------------------------------------------------

GBWName                                 ... sp_solv.gbw
Number of atoms                         ...     20
Number of basis functions               ...    222
Max core memory                         ...   1024 MB

Electric properties:
Dipole moment                           ... YES
Quadrupole moment                       ...  NO
Static polarizability (Dipole/Dipole)   ...  NO
Static polarizability (Dipole/Quad.)    ...  NO
Static polarizability (Quad./Quad.)     ...  NO
Static polarizability (Velocity)        ...  NO

Atomic electric properties:
Dipole moment                           ...  NO
Quadrupole moment                       ...  NO
Static polarizability                   ...  NO

Choice of electric origin               ... Center of mass
Position of electric origin             ...    -0.000010    -0.000007     0.000008

General magnetic properties:
Magnetizability                         ...  NO

EPR properties:
g-Tensor (aka g-matrix)                 ...  NO
Zero-Field splitting spin-orbit         ...  NO
Zero-field splitting spin-spin          ...  NO
Hyperfine couplings                     ...  NO (   0 nuclei)
Quadrupole couplings                    ...  NO (   0 nuclei)
Contact density                         ...  NO (   0 nuclei)

NMR properties:
Chemical shifts                         ...  NO (   0 nuclei)
Spin-rotation constants                 ...  NO (   0 nuclei)
Spin-spin couplings                     ...  NO (   0 nuclei,    0 pairs)

Choice of magnetic origin               ... GIAO
Position of magnetic origin             ...     0.000000     0.000000     0.000000

Properties with geometric perturbations:
SCF Hessian                             ...  NO
IR spectrum                             ...  NO
VCD spectrum                            ...  NO
X-ray spectroscopy properties:
SCF XES/XAS/RIXS spectra                ...  NO


-------------
DIPOLE MOMENT
-------------

Method             : SCF
Type of density    : Electron Density
Multiplicity       :   1
Irrep              :   0
Energy             :  -386.2475221126076121 Eh
Relativity type    : 
Basis              : AO
                                X                 Y                 Z
Electronic contribution:      1.885674885       1.801072068      -0.800412480
Nuclear contribution   :     -1.793688211      -2.214249411       1.914248203
                        -----------------------------------------
Total Dipole Moment    :      0.091986674      -0.413177343       1.113835723
                        -----------------------------------------
Magnitude (a.u.)       :      1.191556580
Magnitude (Debye)      :      3.028696132



--------------------
Rotational spectrum 
--------------------
 
Rotational constants in cm-1:             0.143866             0.035493             0.034250 
Rotational constants in MHz :          4312.987973          1064.054759          1026.789341 

Dipole components along the rotational axes: 
x,y,z [a.u.] :     0.069127    -1.159141     0.267247 
x,y,z [Debye]:     0.175707    -2.946302     0.679288 

 

Dipole moment calculation done in   0.0 sec 

Maximum memory used throughout the entire PROP-calculation: 13.9 MB

--------------------------------
SUGGESTED CITATIONS FOR THIS RUN
--------------------------------

Below you find a list of papers that are relevant to this ORCA run
We neither can nor want to force you to cite these papers, but we appreciate if you do
You receive ORCA, which is the product of decades of hard work by many enthusiastic individuals, for free
The only thing we kindly ask in return is that you cite our papers,
We deeply appreciate it, if you show your appreciation for ORCA by not just citing the generic ORCA reference.

Please note that relegating all ORCA citations to the supporting information does *not* help us.
SI sections are not indexed - citations you put there will not count into any citation statistics
But we need these citations in order to attract the funding resources that allow us to do what we are doing

Therefore, if you are a happy ORCA user, please consider citing a few of the papers listed below in the main body of your paper

In addition to the list printed below, the program has created the file sp_solv.bibtex that contains the list in bibtex format
You can import this file easily into all common literature databanks and citation aid programs


List of essential papers. We consider these as the minimum necessary citations

  1. Neese,F.
     Software update: the ORCA program system, version 5.0
     WIRES Comput. Molec. Sci., 2022 12(1)e1606
     doi.org/10.1002/wcms.1606
  2. Grimme,S.; Hansen,A.; Ehlert,S.; Mewes,J.
     r2SCAN-3c: A 'Swiss army knife' composite electronic-structure method
     J. Chem. Phys., 2021 154 064103
     doi.org/10.1063/5.0040021

List of papers to cite with high priority. The work reported in these papers was absolutely
necessary for this run to complete.
Our perspective: the developers of density functionals and basis sets usually get cited in chemistry papers
Good! But without the algorithms to do something with them, the functionals or basis sets would not do anything.
Hence, in our opinion, the algorithm design and method developments papers are equally worthy of getting cited

  1. Neese,F.
     An improvement of the resolution of the identity approximation for the formation of the Coulomb matrix
     J. Comp. Chem., 2003 24(14)1740-1747
     doi.org/10.1002/jcc.10318
  2. Garcia-Rates,M.; Neese,F.
     Effect of the Solute Cavity on the Solvation Energy and its Derivatives within the Framework of the Gaussian Charge Scheme
     J. Comput. Chem., 2020 41 922-939
     doi.org/10.1002/jcc.26139
  3. Neese,F.
     The SHARK Integral Generation and Digestion System
     J. Comp. Chem., 2022  1-16
     doi.org/10.1002/jcc.26942
  4. Lehtola,S.; Steigemann,C.; Oliveira,M.; Marques,M.
     Recent developments in Libxc - A comprehensive library of functionals for density functional theory
     Software X, 2018 7 
     doi.org/10.1016/j.softx.2017.11.002
  5. Caldeweyher,E.; Bannwarth,C.; Grimme,S.
     Extension of the D3 dispersion coefficient model
     J. Chem. Phys., 2017 147 034112-XXXX
     doi.org/10.1063/1.4993215
  6. Caldeweyher,E.; Ehlert,S.; Hansen,A.; Neugebauer,H.; Spicher,S.; Bannwarth,C.; Grimme,S.
     A generally applicable atomic-charge dependent London dispersion correction
     J. Chem. Phys., 2019 150 154122-XXXX
     doi.org/10.1063/1.5090222
  7. Caldeweyher,E.; Mewes,J.; Ehlert,S.; Grimme,S.
     Extension and evaluation of the D4 London-dispersion model for periodic systems
     Phys. Chem. Chem. Phys., 2020 22(16)8499-8512
     doi.org/10.1039/D0CP00502A

List of suggested additional citations. These are papers that are important in the 'surrounding' of 
of this run, or papers that preceded the highly important papers. If you like your results we are grateful for a citation.

  1. Neese,F.
     The ORCA program system
     WIRES Comput. Molec. Sci., 2012 2(1)73-78
     doi.org/10.1002/wcms.81
  2. Neese,F.
     Software update: the ORCA program system, version 4.0
     WIRES Comput. Molec. Sci., 2018 8(1)1-6
     doi.org/10.1002/wcms.1327
  3. Neese,F.; Wennmohs,F.; Becker,U.; Riplinger,C.
     The ORCA quantum chemistry program package
     J. Chem. Phys., 2020 152 Art. No. L224108
     doi.org/10.1063/5.0004608

List of optional additional citations

  1. Neese,F.
     Approximate second-order SCF convergence for spin unrestricted wavefunctions
     Chem. Phys. Lett., 2000 325(1-3)93-98
     doi.org/10.1016/s0009-2614(00)00662-x

Timings for individual modules:

Sum of individual times          ...       36.725 sec (=   0.612 min)
Startup calculation              ...        1.397 sec (=   0.023 min)   3.8 %
SCF iterations                   ...       35.176 sec (=   0.586 min)  95.8 %
Property calculations            ...        0.152 sec (=   0.003 min)   0.4 %
                             ****ORCA TERMINATED NORMALLY****
TOTAL RUN TIME: 0 days 0 hours 0 minutes 37 seconds 652 msec
