
                                 *****************
                                 * O   R   C   A *
                                 *****************

                                            #,                                       
                                            ###                                      
                                            ####                                     
                                            #####                                    
                                            ######                                   
                                           ########,                                 
                                     ,,################,,,,,                         
                               ,,#################################,,                 
                          ,,##########################################,,             
                       ,#########################################, ''#####,          
                    ,#############################################,,   '####,        
                  ,##################################################,,,,####,       
                ,###########''''           ''''###############################       
              ,#####''   ,,,,##########,,,,          '''####'''          '####       
            ,##' ,,,,###########################,,,                        '##       
           ' ,,###''''                  '''############,,,                           
         ,,##''                                '''############,,,,        ,,,,,,###''
      ,#''                                            '''#######################'''  
     '                                                          ''''####''''         
             ,#######,   #######,   ,#######,      ##                                
            ,#'     '#,  ##    ##  ,#'     '#,    #''#        ,####,   ,####,        
            ##       ##  ##   ,#'  ##            #'  '#       #'       #'  '#        
            ##       ##  #######   ##           ,######,      #####,   #    #        
            '#,     ,#'  ##    ##  '#,     ,#' ,#      #,     #,   #   #,  ,#        
             '#######'   ##     ##  '#######'  #'      '#     '####' # '####'        



                #########################################################
                #                        -***-                          #
                #          Department of theory and spectroscopy        #
                #                                                       #
                #                      Frank Neese                      #
                #                                                       #
                #     Directorship, Architecture, Infrastructure        #
                #                    SHARK, DRIVERS                     #
                #        Core code/Algorithms in most modules           #
                #                                                       #
                #        Max Planck Institute fuer Kohlenforschung      #
                #                Kaiser Wilhelm Platz 1                 #
                #                 D-45470 Muelheim/Ruhr                 #
                #                      Germany                          #
                #                                                       #
                #                  All rights reserved                  #
                #                        -***-                          #
                #########################################################


                         Program Version 6.0.0  -   RELEASE  -


 With contributions from (in alphabetic order):
   Daniel Aravena         : Magnetic Suceptibility
   Michael Atanasov       : Ab Initio Ligand Field Theory (pilot matlab implementation)
   Alexander A. Auer      : GIAO ZORA, VPT2 properties, NMR spectrum
   Ute Becker             : All parallelization in ORCA, NUMFREQ, NUMCALC
   Giovanni Bistoni       : ED, misc. LED, open-shell LED, HFLD
   Martin Brehm           : Molecular dynamics
   Dmytro Bykov           : pre 5.0 version of the SCF Hessian
   Marcos Casanova-Páez   : Triplet and SCS-CIS(D). UHF-(DLPNO)-IP/EA/STEOM-CCSD. UHF-CVS-IP/STEOM-CCSD
   Vijay G. Chilkuri      : MRCI spin determinant printing, contributions to CSF-ICE
   Pauline Colinet        : FMM embedding
   Dipayan Datta          : RHF DLPNO-CCSD density
   Achintya Kumar Dutta   : EOM-CC, STEOM-CC
   Nicolas Foglia         : Exact transition moments, OPA infrastructure, MCD improvements
   Dmitry Ganyushin       : Spin-Orbit,Spin-Spin,Magnetic field MRCI
   Miquel Garcia          : C-PCM and meta-GGA Hessian, CCSD/C-PCM, Gaussian charge scheme
   Tiago L. C. Gouveia    : GS-ROHF, GS-ROCIS
   Yang Guo               : DLPNO-NEVPT2, F12-NEVPT2, CIM, IAO-localization
   Andreas Hansen         : Spin unrestricted coupled pair/coupled cluster methods
   Ingolf Harden          : AUTO-CI MPn and infrastructure 
   Benjamin Helmich-Paris : MC-RPA, TRAH-(SCF,CASSCF), AVAS, COSX integrals, SCF dyn. polar.
   Lee Huntington         : MR-EOM, pCC
   Robert Izsak           : Overlap fitted RIJCOSX, COSX-SCS-MP3, EOM
   Riya Kayal             : Wick's Theorem for AUTO-CI, AUTO-CI UHF-CCSDT
   Emily Kempfer          : AUTO-CI, RHF CISDT and CCSDT
   Christian Kollmar      : KDIIS, OOCD, Brueckner-CCSD(T), CCSD density, CASPT2, CASPT2-K, improved NEVPT2
   Axel Koslowski         : Symmetry handling
   Simone Kossmann        : Meta GGA functionals, TD-DFT gradient, OOMP2, (MP2 Hessian; deprecated post 5.0)
   Lucas Lang             : DCDCAS
   Marvin Lechner         : AUTO-CI (C++ implementation), FIC-MRCC
   Spencer Leger          : CASSCF response
   Dagmar Lenk            : GEPOL surface, SMD, ORCA-2-JSON
   Dimitrios Liakos       : Extrapolation schemes; Compound Job, initial MDCI parallelization
   Dimitrios Manganas     : Further ROCIS development; embedding schemes. LFT, Crystal Embedding
   Dimitrios Pantazis     : SARC Basis sets
   Anastasios Papadopoulos: AUTO-CI, single reference methods and gradients
   Taras Petrenko         : pre 6.0 DFT Hessian and TD-DFT gradient, (ASA, deprecated), ECA, 1-Electron XAS/XES, NRVS
   Peter Pinski           : DLPNO-MP2, DLPNO-MP2 Gradient
   Christoph Reimann      : Effective Core Potentials
   Marius Retegan         : Local ZFS, SOC
   Christoph Riplinger    : Optimizer, TS searches, QM/MM, DLPNO-CCSD(T), (RO)-DLPNO pert. Triples
   Michael Roemelt        : Original ROCIS implementation
   Masaaki Saitow         : Open-shell DLPNO-CCSD energy and density
   Barbara Sandhoefer     : DKH picture change effects
   Kantharuban Sivalingam : CASSCF convergence/infrastructure, NEVPT2 and variants, FIC-MRCI
   Bernardo de Souza      : ESD, SOC TD-DFT
   Georgi Stoychev        : AutoAux, RI-MP2 NMR, DLPNO-MP2 response, X2C
   Van Anh Tran           : RI-MP2 g-tensors
   Willem Van den Heuvel  : Paramagnetic NMR
   Zikuan Wang            : NOTCH, Electric field optimization 
   Frank Wennmohs         : Technical directorship and infrastructure
   Hang Xu                : AUTO-CI-Response properties 


 We gratefully acknowledge several colleagues who have allowed us to
 interface, adapt or use parts of their codes:
   Stefan Grimme, W. Hujo, H. Kruse, P. Pracht,  : VdW corrections, initial TS optimization,
                  C. Bannwarth, S. Ehlert,         DFT functionals, gCP, sTDA/sTD-DF
                  L. Wittmann, M. Mueller
   Ed Valeev, F. Pavosevic, A. Kumar             : LibInt (2-el integral package), F12 methods
   Garnet Chan, S. Sharma, J. Yang, R. Olivares  : DMRG
   Ulf Ekstrom                                   : XCFun DFT Library
   Mihaly Kallay                                 : mrcc  (arbitrary order and MRCC methods)
   Frank Weinhold                                : gennbo (NPA and NBO analysis)
   Simon Mueller                                 : openCOSMO-RS
   Christopher J. Cramer and Donald G. Truhlar   : smd solvation model
   Lars Goerigk                                  : TD-DFT with DH, B97 family of functionals
   V. Asgeirsson, H. Jonsson                     : NEB implementation
   FAccTs GmbH                                   : IRC, NEB, NEB-TS, DLPNO-Multilevel, CI-OPT
                                                   MM, QMMM, 2- and 3-layer-ONIOM, Crystal-QMMM,
                                                   LR-CPCM, SF, NACMEs, symmetry and pop. for TD-DFT,
                                                   nearIR, NL-DFT gradient (VV10), updates on ESD,
                                                   ML-optimized integration grids, MBIS, APM,
                                                   GOAT, DOCKER, SOLVATOR, interface openCOSMO-RS
   S Lehtola, MJT Oliveira, MAL Marques          : LibXC Library
   Liviu Ungur et al                             : ANISO software


 Your calculation uses the libint2 library for the computation of 2-el integrals
 For citations please refer to: http://libint.valeyev.net

 Your ORCA version has been built with support for libXC version: 6.2.2
 For citations please refer to: https://libxc.gitlab.io

 This ORCA versions uses:
   CBLAS   interface :  Fast vector & matrix operations
   LAPACKE interface :  Fast linear algebra routines
   SCALAPACK package :  Parallel linear algebra routines
   Shared memory     :  Shared parallel matrices
   BLAS/LAPACK       :  OpenBLAS 0.3.27  USE64BITINT DYNAMIC_ARCH NO_AFFINITY SkylakeX SINGLE_THREADED
        Core in use  :  SkylakeX
   Copyright (c) 2011-2014, The OpenBLAS Project


Your calculation utilizes the geometrical counterpoise correction gCP
Please cite in your paper:
H.Kruse, S. Grimme J.Chem.Phys., 136, (2012), 154101 
   

Your calculation utilizes the atom-pairwise dispersion correction
based on EEQ partial charges (D4)


================================================================================

----- Orbital basis set information -----
Your calculation utilizes the basis: def2-SV(P)
   F. Weigend and R. Ahlrichs, Phys. Chem. Chem. Phys. 7, 3297 (2005).

----- AuxJ basis set information -----
Your calculation utilizes the auxiliary basis: def2/J
   F. Weigend, Phys. Chem. Chem. Phys. 8, 1057 (2006).

================================================================================
                                        WARNINGS
                       Please study these warnings very carefully!
================================================================================


================================================================================
                                       INPUT FILE
================================================================================
NAME = sp.inp
|  1> ! pbe def2-sv(p) def2/J RI DEFGRID1 loosescf d4 GCP(DFT/SV(P)) printgap
|  2> %output
|  3>     printlevel normal
|  4> end
|  5> * xyz 0 1
|  6> C 1.9910610639 1.0039261537 -0.8742349886
|  7> C 1.428875627 -0.3121739899 -0.3633722255
|  8> C 2.4730811285 -1.1168433319 0.3947606872
|  9> S 0.0007804701 -0.0179530763 0.7739824284
| 10> C -1.4519618813 -0.0805470545 -0.3690869789
| 11> C -2.5811174751 -0.8098523592 0.342147438
| 12> C -1.8634914432 1.3197666235 -0.792583187
| 13> H 1.2389490203 1.5619244972 -1.4265950666
| 14> H 2.3287254603 1.6130776796 -0.0389425825
| 15> H 2.8347355247 0.8140111571 -1.5346286461
| 16> H 1.0294721221 -0.9051059915 -1.1901536141
| 17> H 2.0462258633 -2.0492226484 0.7558089263
| 18> H 2.833363477 -0.5498623591 1.2500504514
| 19> H 3.3135486738 -1.3417120931 -0.2578263592
| 20> H -1.1196186918 -0.6597250685 -1.2342578434
| 21> H -3.4384862728 -0.9029734253 -0.3205487888
| 22> H -2.2605558096 -1.8029656734 0.6470684397
| 23> H -2.8811116551 -0.2580500028 1.2300490111
| 24> H -2.1348402905 1.907674116 0.0810913596
| 25> H -2.7205495172 1.2668890473 -1.4607659428
| 26> H -1.0523432965 1.8261480049 -1.3095164599
| 27> *
| 28> 
| 29>                          ****END OF INPUT****
================================================================================

                       ****************************
                       * Single Point Calculation *
                       ****************************

---------------------------------
CARTESIAN COORDINATES (ANGSTROEM)
---------------------------------
  C      1.991061    1.003926   -0.874235
  C      1.428876   -0.312174   -0.363372
  C      2.473081   -1.116843    0.394761
  S      0.000780   -0.017953    0.773982
  C     -1.451962   -0.080547   -0.369087
  C     -2.581117   -0.809852    0.342147
  C     -1.863491    1.319767   -0.792583
  H      1.238949    1.561924   -1.426595
  H      2.328725    1.613078   -0.038943
  H      2.834736    0.814011   -1.534629
  H      1.029472   -0.905106   -1.190154
  H      2.046226   -2.049223    0.755809
  H      2.833363   -0.549862    1.250050
  H      3.313549   -1.341712   -0.257826
  H     -1.119619   -0.659725   -1.234258
  H     -3.438486   -0.902973   -0.320549
  H     -2.260556   -1.802966    0.647068
  H     -2.881112   -0.258050    1.230049
  H     -2.134840    1.907674    0.081091
  H     -2.720550    1.266889   -1.460766
  H     -1.052343    1.826148   -1.309516

----------------------------
CARTESIAN COORDINATES (A.U.)
----------------------------
  NO LB      ZA    FRAG     MASS         X           Y           Z
   0 C     6.0000    0    12.011    3.762560    1.897145   -1.652065
   1 C     6.0000    0    12.011    2.700184   -0.589923   -0.686674
   2 C     6.0000    0    12.011    4.673446   -2.110528    0.745990
   3 S    16.0000    0    32.060    0.001475   -0.033926    1.462615
   4 C     6.0000    0    12.011   -2.743810   -0.152212   -0.697473
   5 C     6.0000    0    12.011   -4.877605   -1.530399    0.646565
   6 C     6.0000    0    12.011   -3.521488    2.493997   -1.497765
   7 H     1.0000    0     1.008    2.341274    2.951610   -2.695874
   8 H     1.0000    0     1.008    4.400653    3.048275   -0.073591
   9 H     1.0000    0     1.008    5.356874    1.538258   -2.900028
  10 H     1.0000    0     1.008    1.945420   -1.710402   -2.249064
  11 H     1.0000    0     1.008    3.866806   -3.872470    1.428272
  12 H     1.0000    0     1.008    5.354281   -1.039089    2.362253
  13 H     1.0000    0     1.008    6.261700   -2.535468   -0.487221
  14 H     1.0000    0     1.008   -2.115773   -1.246700   -2.332409
  15 H     1.0000    0     1.008   -6.497797   -1.706372   -0.605749
  16 H     1.0000    0     1.008   -4.271831   -3.407111    1.222782
  17 H     1.0000    0     1.008   -5.444512   -0.487644    2.324456
  18 H     1.0000    0     1.008   -4.034263    3.604982    0.153240
  19 H     1.0000    0     1.008   -5.141094    2.394073   -2.760448
  20 H     1.0000    0     1.008   -1.988641    3.450920   -2.474627

--------------------------------
INTERNAL COORDINATES (ANGSTROEM)
--------------------------------
 C      0   0   0     0.000000000000     0.00000000     0.00000000
 C      1   0   0     1.519589686780     0.00000000     0.00000000
 C      2   1   0     1.520731203282   111.82940129     0.00000000
 S      2   1   3     1.849215328703   110.77370793   120.43983527
 C      4   2   1     1.849590769755   102.77255147    92.11874123
 C      5   4   2     1.520767233424   108.08204736   140.57428107
 C      5   4   2     1.519731560305   110.71536055   263.31861549
 H      1   2   3     1.087260931536   111.06105570   179.15191095
 H      1   2   3     1.087564356620   109.98430240   299.28912600
 H      1   2   3     1.088105732273   109.86005896    59.08908867
 H      2   1   3     1.093004566680   110.53163895   237.16342251
 H      3   2   1     1.087148765452   110.47302119   179.60184123
 H      3   2   1     1.087562124618   110.10091153    59.87768942
 H      3   2   1     1.087575977850   109.93171450   299.92170581
 H      5   4   2     1.092895142403   105.56461502    22.91126457
 H      6   5   4     1.087620833396   109.96227769   182.49053621
 H      6   5   4     1.087203133507   110.50600189   302.83107083
 H      6   5   4     1.087589790351   110.07826480    62.54721367
 H      7   5   4     1.087461553364   109.98840279   300.01773338
 H      7   5   4     1.088031605893   109.85613020   180.22196996
 H      7   5   4     1.087015836110   111.08125972    60.08836716

---------------------------
INTERNAL COORDINATES (A.U.)
---------------------------
 C      0   0   0     0.000000000000     0.00000000     0.00000000
 C      1   0   0     2.871608343946     0.00000000     0.00000000
 C      2   1   0     2.873765497512   111.82940129     0.00000000
 S      2   1   3     3.494510533897   110.77370793   120.43983527
 C      4   2   1     3.495220014666   102.77255147    92.11874123
 C      5   4   2     2.873833584613   108.08204736   140.57428107
 C      5   4   2     2.871876446053   110.71536055   263.31861549
 H      1   2   3     2.054625396716   111.06105570   179.15191095
 H      1   2   3     2.055198787027   109.98430240   299.28912600
 H      1   2   3     2.056221838746   109.86005896    59.08908867
 H      2   1   3     2.065479294150   110.53163895   237.16342251
 H      3   2   1     2.054413433534   110.47302119   179.60184123
 H      3   2   1     2.055194569153   110.10091153    59.87768942
 H      3   2   1     2.055220747967   109.93171450   299.92170581
 H      5   4   2     2.065272512234   105.56461502    22.91126457
 H      6   5   4     2.055305512665   109.96227769   182.49053621
 H      6   5   4     2.054516174269   110.50600189   302.83107083
 H      6   5   4     2.055246849812   110.07826480    62.54721367
 H      7   5   4     2.055004517027   109.98840279   300.01773338
 H      7   5   4     2.056081760188   109.85613020   180.22196996
 H      7   5   4     2.054162233484   111.08125972    60.08836716

---------------------
BASIS SET INFORMATION
---------------------
There are 3 groups of distinct atoms

 Group   1 Type C   : 7s4p1d contracted to 3s2p1d pattern {511/31/1}
 Group   2 Type S   : 10s7p1d contracted to 4s3p1d pattern {5311/511/1}
 Group   3 Type H   : 4s contracted to 2s pattern {31}

Atom   0C    basis set group =>   1
Atom   1C    basis set group =>   1
Atom   2C    basis set group =>   1
Atom   3S    basis set group =>   2
Atom   4C    basis set group =>   1
Atom   5C    basis set group =>   1
Atom   6C    basis set group =>   1
Atom   7H    basis set group =>   3
Atom   8H    basis set group =>   3
Atom   9H    basis set group =>   3
Atom  10H    basis set group =>   3
Atom  11H    basis set group =>   3
Atom  12H    basis set group =>   3
Atom  13H    basis set group =>   3
Atom  14H    basis set group =>   3
Atom  15H    basis set group =>   3
Atom  16H    basis set group =>   3
Atom  17H    basis set group =>   3
Atom  18H    basis set group =>   3
Atom  19H    basis set group =>   3
Atom  20H    basis set group =>   3
---------------------------------
AUXILIARY/J BASIS SET INFORMATION
---------------------------------
There are 3 groups of distinct atoms

 Group   1 Type C   : 12s5p4d2f1g contracted to 6s4p3d1f1g pattern {711111/2111/211/2/1}
 Group   2 Type S   : 14s5p5d2f1g contracted to 8s4p3d1f1g pattern {71111111/2111/311/2/1}
 Group   3 Type H   : 5s2p1d contracted to 3s1p1d pattern {311/2/1}

Atom   0C    basis set group =>   1
Atom   1C    basis set group =>   1
Atom   2C    basis set group =>   1
Atom   3S    basis set group =>   2
Atom   4C    basis set group =>   1
Atom   5C    basis set group =>   1
Atom   6C    basis set group =>   1
Atom   7H    basis set group =>   3
Atom   8H    basis set group =>   3
Atom   9H    basis set group =>   3
Atom  10H    basis set group =>   3
Atom  11H    basis set group =>   3
Atom  12H    basis set group =>   3
Atom  13H    basis set group =>   3
Atom  14H    basis set group =>   3
Atom  15H    basis set group =>   3
Atom  16H    basis set group =>   3
Atom  17H    basis set group =>   3
Atom  18H    basis set group =>   3
Atom  19H    basis set group =>   3
Atom  20H    basis set group =>   3
------------------------------------------------------------------------------
                             ORCA STARTUP CALCULATIONS
                           -- RI-GTO INTEGRALS CHOSEN --
------------------------------------------------------------------------------
------------------------------------------------------------------------------
                   ___                                                        
                  /   \      - P O W E R E D   B Y -                         
                 /     \                                                     
                 |  |  |   _    _      __       _____    __    __             
                 |  |  |  | |  | |    /  \     |  _  \  |  |  /  |          
                  \  \/   | |  | |   /    \    | | | |  |  | /  /          
                 / \  \   | |__| |  /  /\  \   | |_| |  |  |/  /          
                |  |  |   |  __  | /  /__\  \  |    /   |      \           
                |  |  |   | |  | | |   __   |  |    \   |  |\   \          
                \     /   | |  | | |  |  |  |  | |\  \  |  | \   \       
                 \___/    |_|  |_| |__|  |__|  |_| \__\ |__|  \__/        
                                                                              
                      - O R C A' S   B I G   F R I E N D -                    
                                      &                                       
                       - I N T E G R A L  F E E D E R -                       
                                                                              
 v1 FN, 2020, v2 2021, v3 2022-2024                                           
------------------------------------------------------------------------------


----------------------
SHARK INTEGRAL PACKAGE
----------------------

Number of atoms                             ...     21
Number of basis functions                   ...    130
Number of shells                            ...     72
Maximum angular momentum                    ...      2
Integral batch strategy                     ... SHARK/LIBINT Hybrid
RI-J (if used) integral strategy            ... SPLIT-RIJ (Revised 2003 algorithm where possible)
Printlevel                                  ...      1
Contraction scheme used                     ... SEGMENTED contraction
Prescreening option                         ... SCHWARTZ
   Thresh                                   ... 1.000e-09
   Tcut                                     ... 1.000e-10
   Tpresel                                  ... 1.000e-10 
Coulomb Range Separation                    ... NOT USED
Exchange Range Separation                   ... NOT USED
Multipole approximations                    ... NOT USED
Finite Nucleus Model                        ... NOT USED
CABS basis                                  ... NOT available
Auxiliary Coulomb fitting basis             ... AVAILABLE
   # of basis functions in Aux-J            ...    499
   # of shells in Aux-J                     ...    177
   Maximum angular momentum in Aux-J        ...      4
Auxiliary J/K fitting basis                 ... NOT available
Auxiliary Correlation fitting basis         ... NOT available
Auxiliary 'external' fitting basis          ... NOT available

Checking pre-screening integrals            ... done (  0.0 sec) Dimension = 72
Check shell pair data                       ... done (  0.0 sec)
Shell pair information
Shell pair cut-off parameter TPreSel        ...   1.0e-10
Total number of shell pairs                 ...      2628
Shell pairs after pre-screening             ...      2459
Total number of primitive shell pairs       ...     10874
Primitive shell pairs kept                  ...      7063
          la=0 lb=0:   1175 shell pairs
          la=1 lb=0:    720 shell pairs
          la=1 lb=1:    120 shell pairs
          la=2 lb=0:    320 shell pairs
          la=2 lb=1:     99 shell pairs
          la=2 lb=2:     25 shell pairs

Calculating one electron integrals          ... done (  0.0 sec)
Calculating RI/J V-Matrix + Cholesky decomp.... done (  0.1 sec)
Calculating Nuclear repulsion               ... done (  0.0 sec) ENN=    397.186818227600 Eh

Diagonalization of the overlap matrix:
Smallest eigenvalue                        ... 2.429e-03
Time for diagonalization                   ...    0.002 sec
Threshold for overlap eigenvalues          ... 1.000e-07
Number of eigenvalues below threshold      ... 0
Time for construction of square roots      ...    0.021 sec
Total time needed                          ...    0.031 sec

-------------------
DFT GRID GENERATION
-------------------

General Integration Accuracy     IntAcc      ... 4.159
Radial Grid Type                 RadialGrid  ... OptM3 with GC (2021)
Angular Grid (max. ang.)         AngularGrid ... 3 (Lebedev-194)
Angular grid pruning method      GridPruning ... 4 (adaptive)
Weight generation scheme         WeightScheme... mBecke (2022)
Basis function cutoff            BFCut       ... 1.0000e-10
Integration weight cutoff        WCut        ... 1.0000e-14
Partially contracted basis set               ... off
Rotationally invariant grid construction     ... off
Angular grids for H and He will be reduced by one unit

Total number of grid points                  ...    43317
Total number of batches                      ...      689
Average number of points per batch           ...       62
Average number of grid points per atom       ...     2063
Initializing property integral containers    ... done (  0.0 sec)

SHARK setup successfully completed in   0.7 seconds

Maximum memory used throughout the entire STARTUP-calculation: 21.7 MB
-------------------------------------------------------------------------------
                                 ORCA GUESS
                   Start orbitals & Density for SCF / CASSCF
-------------------------------------------------------------------------------

------------
SCF SETTINGS
------------
Hamiltonian:
 Density Functional     Method          .... DFT(GTOs)
 Exchange Functional    Exchange        .... PBE
   PBE kappa parameter   XKappa         ....  0.804000
   PBE mue parameter    XMuePBE         ....  0.219520
 Correlation Functional Correlation     .... PBE
   PBE beta parameter  CBetaPBE         ....  0.066725
 LDA part of GGA corr.  LDAOpt          .... PW91-LDA
 Gradients option       PostSCFGGA      .... off
   NL short-range parameter             ....  6.400000
 RI-approximation to the Coulomb term is turned on
   Number of AuxJ basis functions       .... 499


General Settings:
 Integral files         IntName         .... sp
 Hartree-Fock type      HFTyp           .... RHF
 Total Charge           Charge          ....    0
 Multiplicity           Mult            ....    1
 Number of Electrons    NEL             ....   66
 Basis Dimension        Dim             ....  130
 Nuclear Repulsion      ENuc            ....    397.1868182276 Eh

Convergence Acceleration:
 AO-DIIS                CNVDIIS         .... on
   Start iteration      DIISMaxIt       ....    12
   Startup error        DIISStart       ....  0.200000
   # of expansion vecs  DIISMaxEq       ....     5
   Bias factor          DIISBfac        ....   1.050
   Max. coefficient     DIISMaxC        ....  10.000
 MO-DIIS                CNVKDIIS        .... off
 Trust-Rad. Augm. Hess. CNVTRAH         .... auto
   Auto Start mean grad. ratio tolernc. ....  1.125000
   Auto Start start iteration           ....    50
   Auto Start num. interpolation iter.  ....    10
   Max. Number of Micro iterations      ....    24
   Max. Number of Macro iterations      .... Maxiter - #DIIS iter
   Number of Davidson start vectors     ....     2
   Converg. threshold    (grad. norm)   ....   1.000e-04
   Grad. Scal. Fac. for Micro threshold ....   0.100
   Minimum threshold for Micro iter.    ....   1.000e-02
   NR start threshold (gradient norm)   ....   1.000e-04
   Initial trust radius                 ....   0.400
   Minimum AH scaling param. (alpha)    ....   1.000
   Maximum AH scaling param. (alpha)    .... 1000.000
   Quad. conv. algorithm                .... NR
   White noise on init. David. guess    .... on
   Maximum white noise                  ....   0.010
   Pseudo random numbers                .... off
   Inactive MOs                         .... canonical
   Orbital update algorithm             .... Taylor
   Preconditioner                       .... Diag
   Full preconditioner red. dimension   ....   250
 SOSCF                  CNVSOSCF        .... on
   Start iteration      SOSCFMaxIt      ....   150
   Startup grad/error   SOSCFStart      ....  0.003300
   Hessian update       SOSCFHessUp     .... L-BFGS
 Level Shifting         CNVShift        .... on
   Level shift para.    LevelShift      ....    0.2500
   Turn off err/grad.   ShiftErr        ....    0.0010
 Zerner damping         CNVZerner       .... off
 Static damping         CNVDamp         .... on
   Fraction old density DampFac         ....    0.7000
   Max. Damping (<1)    DampMax         ....    0.9800
   Min. Damping (>=0)   DampMin         ....    0.0000
   Turn off err/grad.   DampErr         ....    0.1000

SCF Procedure:
 Maximum # iterations   MaxIter         ....   125
 SCF integral mode      SCFMode         .... Direct
   Integral package                     .... SHARK and LIBINT hybrid scheme
 Reset frequency        DirectResetFreq ....    20
 Integral Threshold     Thresh          ....  1.000e-09 Eh
 Primitive CutOff       TCut            ....  1.000e-10 Eh

Convergence Tolerance:
 Convergence Check Mode ConvCheckMode   .... Total+1el-Energy
 Convergence forced     ConvForced      .... 0
 Energy Change          TolE            ....  1.000e-05 Eh
 1-El. energy change                    ....  1.000e-02 Eh
 Orbital Gradient       TolG            ....  1.000e-04
 Orbital Rotation angle TolX            ....  1.000e-04
 DIIS Error             TolErr          ....  5.000e-04

------------------------------
INITIAL GUESS: MODEL POTENTIAL
------------------------------
Loading Hartree-Fock densities                     ... done
Calculating cut-offs                               ... done
Initializing the effective Hamiltonian             ... done
Setting up the integral package (SHARK)            ... done
Starting the Coulomb interaction                   ... done (   0.1 sec)
Making the grid                                    ... done (   0.2 sec)
Mapping shells                                     ... done
Starting the XC term evaluation                    ... done (   0.1 sec)
  promolecular density results
     # of electrons  =     65.996771399
     EX              =    -59.719443292
     EC              =     -2.239358186
     EX+EC           =    -61.958801478
Transforming the Hamiltonian                       ... done (   0.0 sec)
Diagonalizing the Hamiltonian                      ... done (   0.0 sec)
Back transforming the eigenvectors                 ... done (   0.0 sec)
Now organizing SCF variables                       ... done
                      ------------------
                      INITIAL GUESS DONE (   0.5 sec)
                      ------------------
             **** ENERGY FILE WAS UPDATED (sp.en.tmp) ****
Finished Guess after   0.7 sec
Maximum memory used throughout the entire GUESS-calculation: 15.6 MB

-------------------------------------------------------------------------------------------
                                      ORCA LEAN-SCF
                              memory conserving SCF solver
-------------------------------------------------------------------------------------------

----------------------------------------D-I-I-S--------------------------------------------
Iteration    Energy (Eh)           Delta-E    RMSDP     MaxDP     DIISErr   Damp  Time(sec)
-------------------------------------------------------------------------------------------
               ***  Starting incremental Fock matrix formation  ***
    1    -634.2024167500360363     0.00e+00  4.22e-03  8.49e-02  1.57e-01  0.700   0.8
    2    -634.3076725626278858    -1.05e-01  3.01e-03  4.85e-02  7.37e-02  0.700   0.9
                               ***Turning on AO-DIIS***
    3    -634.3436294588771034    -3.60e-02  1.29e-03  2.10e-02  1.99e-02  0.700   0.9
    4    -634.3645386308130583    -2.09e-02  2.03e-03  3.45e-02  1.03e-02  0.000   0.8
    5    -634.4123550640570102    -4.78e-02  5.18e-04  8.63e-03  7.85e-03  0.000   0.9
                              *** Initializing SOSCF ***
---------------------------------------S-O-S-C-F--------------------------------------
Iteration    Energy (Eh)           Delta-E    RMSDP     MaxDP     MaxGrad    Time(sec)
--------------------------------------------------------------------------------------
    6    -634.4129758497879266    -6.21e-04  1.83e-04  1.95e-03  1.93e-03     0.8
               *** Restarting incremental Fock matrix formation ***
    7    -634.4130245987339549    -4.87e-05  1.43e-04  2.15e-03  3.96e-04     0.8
    8    -634.4130234538240529     1.14e-06  5.35e-05  1.16e-03  3.29e-04     0.7
                 **** Energy Check signals convergence ****

               *****************************************************
               *                     SUCCESS                       *
               *           SCF CONVERGED AFTER   8 CYCLES          *
               *****************************************************

             **** ENERGY FILE WAS UPDATED (sp.en.tmp) ****

----------------
TOTAL SCF ENERGY
----------------

Total Energy       :       -634.41302345382405 Eh          -17263.25602 eV

Components:
Nuclear Repulsion  :        397.18681822760033 Eh           10808.00279 eV
Electronic Energy  :      -1031.59984168142432 Eh          -28071.25881 eV
One Electron Energy:      -1655.81287170530913 Eh          -45056.95889 eV
Two Electron Energy:        624.21303002388481 Eh           16985.70008 eV

Virial components:
Potential Energy   :      -1265.68440224086680 Eh          -34441.02353 eV
Kinetic Energy     :        631.27137878704275 Eh           17177.76752 eV
Virial Ratio       :          2.00497669429084

DFT components:
N(Alpha)           :       33.000163249724 electrons
N(Beta)            :       33.000163249724 electrons
N(Total)           :       66.000326499448 electrons
E(X)               :      -60.703927037469 Eh       
E(C)               :       -2.250764896278 Eh       
E(XC)              :      -62.954691933748 Eh       

---------------
SCF CONVERGENCE
---------------

  Last Energy change         ...   -1.1449e-06  Tolerance :   1.0000e-05
  Last MAX-Density change    ...    1.1644e-03  Tolerance :   1.0000e-03
  Last RMS-Density change    ...    5.3459e-05  Tolerance :   1.0000e-04
  Last DIIS Error            ...    1.9253e-03  Tolerance :   5.0000e-04
  Last Orbital Gradient      ...    3.2942e-04  Tolerance :   1.0000e-04
  Last Orbital Rotation      ...    3.5309e-04  Tolerance :   1.0000e-04


----------------
ORBITAL ENERGIES
----------------

  NO   OCC          E(Eh)            E(eV) 
   0   2.0000     -88.002184     -2394.6612 
   1   2.0000      -9.922174      -269.9961 
   2   2.0000      -9.921980      -269.9908 
   3   2.0000      -9.878095      -268.7966 
   4   2.0000      -9.877748      -268.7872 
   5   2.0000      -9.876670      -268.7578 
   6   2.0000      -9.876464      -268.7523 
   7   2.0000      -7.646165      -208.0627 
   8   2.0000      -5.674684      -154.4160 
   9   2.0000      -5.670963      -154.3148 
  10   2.0000      -5.662462      -154.0834 
  11   2.0000      -0.747546       -20.3418 
  12   2.0000      -0.714059       -19.4305 
  13   2.0000      -0.617763       -16.8102 
  14   2.0000      -0.614412       -16.7190 
  15   2.0000      -0.613902       -16.7051 
  16   2.0000      -0.514469       -13.9994 
  17   2.0000      -0.495996       -13.4967 
  18   2.0000      -0.426431       -11.6038 
  19   2.0000      -0.413853       -11.2615 
  20   2.0000      -0.390856       -10.6357 
  21   2.0000      -0.377936       -10.2842 
  22   2.0000      -0.366001        -9.9594 
  23   2.0000      -0.359031        -9.7697 
  24   2.0000      -0.344687        -9.3794 
  25   2.0000      -0.343098        -9.3362 
  26   2.0000      -0.321483        -8.7480 
  27   2.0000      -0.309594        -8.4245 
  28   2.0000      -0.302249        -8.2246 
  29   2.0000      -0.296831        -8.0772 
  30   2.0000      -0.280013        -7.6195 
  31   2.0000      -0.253082        -6.8867 
  32   2.0000      -0.174752        -4.7553 
  33   0.0000       0.011923         0.3244 
  34   0.0000       0.027825         0.7572 
  35   0.0000       0.039665         1.0793 
  36   0.0000       0.066475         1.8089 
  37   0.0000       0.069596         1.8938 
  38   0.0000       0.079862         2.1731 
  39   0.0000       0.099962         2.7201 
  40   0.0000       0.105048         2.8585 
  41   0.0000       0.106271         2.8918 
  42   0.0000       0.111891         3.0447 
  43   0.0000       0.125386         3.4119 
*Only the first 10 virtual orbitals were printed.

                    ********************************
                    * MULLIKEN POPULATION ANALYSIS *
                    ********************************

-----------------------
MULLIKEN ATOMIC CHARGES
-----------------------
   0 C :   -0.206091
   1 C :   -0.297586
   2 C :   -0.219861
   3 S :   -0.044874
   4 C :   -0.294271
   5 C :   -0.218542
   6 C :   -0.206420
   7 H :    0.111932
   8 H :    0.103385
   9 H :    0.095483
  10 H :    0.111676
  11 H :    0.110735
  12 H :    0.107576
  13 H :    0.104698
  14 H :    0.110293
  15 H :    0.104154
  16 H :    0.110028
  17 H :    0.107168
  18 H :    0.103262
  19 H :    0.096109
  20 H :    0.111146
Sum of atomic charges:    0.0000000

--------------------------------
MULLIKEN REDUCED ORBITAL CHARGES
--------------------------------
  0 C s       :     3.061783  s :     3.061783
      pz      :     1.049874  p :     3.115250
      px      :     1.045231
      py      :     1.020145
      dz2     :     0.001900  d :     0.029058
      dxz     :     0.008702
      dyz     :     0.007729
      dx2y2   :     0.004681
      dxy     :     0.006047

  1 C s       :     3.194151  s :     3.194151
      pz      :     1.017008  p :     3.057593
      px      :     0.976284
      py      :     1.064301
      dz2     :     0.005118  d :     0.045842
      dxz     :     0.011162
      dyz     :     0.010950
      dx2y2   :     0.008413
      dxy     :     0.010201

  2 C s       :     3.076441  s :     3.076441
      pz      :     1.051251  p :     3.114540
      px      :     1.016209
      py      :     1.047081
      dz2     :     0.003236  d :     0.028880
      dxz     :     0.008274
      dyz     :     0.006519
      dx2y2   :     0.005532
      dxy     :     0.005318

  3 S s       :     5.894209  s :     5.894209
      pz      :     3.269375  p :    10.077006
      px      :     2.938479
      py      :     3.869152
      dz2     :     0.010306  d :     0.073660
      dxz     :     0.034758
      dyz     :     0.006668
      dx2y2   :     0.012989
      dxy     :     0.008940

  4 C s       :     3.193835  s :     3.193835
      pz      :     1.017421  p :     3.054685
      px      :     0.970737
      py      :     1.066527
      dz2     :     0.005444  d :     0.045752
      dxz     :     0.010542
      dyz     :     0.010730
      dx2y2   :     0.009311
      dxy     :     0.009726

  5 C s       :     3.076640  s :     3.076640
      pz      :     1.053058  p :     3.113005
      px      :     1.006570
      py      :     1.053378
      dz2     :     0.003836  d :     0.028897
      dxz     :     0.008198
      dyz     :     0.005746
      dx2y2   :     0.007094
      dxy     :     0.004023

  6 C s       :     3.061466  s :     3.061466
      pz      :     1.054336  p :     3.115890
      px      :     1.051696
      py      :     1.009857
      dz2     :     0.002328  d :     0.029063
      dxz     :     0.008338
      dyz     :     0.007443
      dx2y2   :     0.005543
      dxy     :     0.005412

  7 H s       :     0.888068  s :     0.888068

  8 H s       :     0.896615  s :     0.896615

  9 H s       :     0.904517  s :     0.904517

 10 H s       :     0.888324  s :     0.888324

 11 H s       :     0.889265  s :     0.889265

 12 H s       :     0.892424  s :     0.892424

 13 H s       :     0.895302  s :     0.895302

 14 H s       :     0.889707  s :     0.889707

 15 H s       :     0.895846  s :     0.895846

 16 H s       :     0.889972  s :     0.889972

 17 H s       :     0.892832  s :     0.892832

 18 H s       :     0.896738  s :     0.896738

 19 H s       :     0.903891  s :     0.903891

 20 H s       :     0.888854  s :     0.888854


------------------------
MULLIKEN OVERLAP CHARGES
------------------------
B(  0-C ,  1-C ) :   0.7768 B(  0-C ,  2-C ) :  -0.1514 B(  0-C ,  3-S ) :  -0.1740 
B(  0-C ,  7-H ) :   0.7331 B(  0-C ,  8-H ) :   0.7325 B(  0-C ,  9-H ) :   0.6665 
B(  0-C , 10-H ) :  -0.0704 B(  1-C ,  2-C ) :   0.8441 B(  1-C ,  3-S ) :   0.5625 
B(  1-C , 10-H ) :   0.6928 B(  1-C , 12-H ) :  -0.0524 B(  2-C ,  3-S ) :  -0.1570 
B(  2-C , 11-H ) :   0.7172 B(  2-C , 12-H ) :   0.7555 B(  2-C , 13-H ) :   0.7237 
B(  3-S ,  4-C ) :   0.5561 B(  3-S ,  5-C ) :  -0.1595 B(  3-S ,  6-C ) :  -0.1715 
B(  3-S , 10-H ) :  -0.0640 B(  3-S , 14-H ) :  -0.0629 B(  4-C ,  5-C ) :   0.8441 
B(  4-C ,  6-C ) :   0.7851 B(  4-C , 14-H ) :   0.6891 B(  4-C , 17-H ) :  -0.0533 
B(  5-C ,  6-C ) :  -0.1552 B(  5-C , 15-H ) :   0.7200 B(  5-C , 16-H ) :   0.7157 
B(  5-C , 17-H ) :   0.7558 B(  6-C , 14-H ) :  -0.0658 B(  6-C , 18-H ) :   0.7353 
B(  6-C , 19-H ) :   0.6700 B(  6-C , 20-H ) :   0.7282 


                     *******************************
                     * LOEWDIN POPULATION ANALYSIS *
                     *******************************

----------------------
LOEWDIN ATOMIC CHARGES
----------------------
   0 C :   -0.347613
   1 C :   -0.244372
   2 C :   -0.346073
   3 S :    0.202026
   4 C :   -0.244465
   5 C :   -0.346155
   6 C :   -0.347247
   7 H :    0.117263
   8 H :    0.121108
   9 H :    0.117172
  10 H :    0.117386
  11 H :    0.121191
  12 H :    0.121501
  13 H :    0.121670
  14 H :    0.117686
  15 H :    0.121118
  16 H :    0.120862
  17 H :    0.121327
  18 H :    0.120992
  19 H :    0.117257
  20 H :    0.117367

-------------------------------
LOEWDIN REDUCED ORBITAL CHARGES
-------------------------------
  0 C s       :     2.955005  s :     2.955005
      pz      :     1.120114  p :     3.320398
      px      :     1.116793
      py      :     1.083491
      dz2     :     0.004611  d :     0.072211
      dxz     :     0.021132
      dyz     :     0.019314
      dx2y2   :     0.011727
      dxy     :     0.015426

  1 C s       :     2.939098  s :     2.939098
      pz      :     1.067643  p :     3.200120
      px      :     1.040535
      py      :     1.091942
      dz2     :     0.010569  d :     0.105155
      dxz     :     0.026392
      dyz     :     0.025656
      dx2y2   :     0.017730
      dxy     :     0.024808

  2 C s       :     2.952085  s :     2.952085
      pz      :     1.113447  p :     3.322407
      px      :     1.100387
      py      :     1.108573
      dz2     :     0.007583  d :     0.071581
      dxz     :     0.020623
      dyz     :     0.016408
      dx2y2   :     0.012660
      dxy     :     0.014307

  3 S s       :     5.590162  s :     5.590162
      pz      :     3.341163  p :    10.117537
      px      :     2.946754
      py      :     3.829620
      dz2     :     0.010604  d :     0.090275
      dxz     :     0.044271
      dyz     :     0.007052
      dx2y2   :     0.018427
      dxy     :     0.009922

  4 C s       :     2.939073  s :     2.939073
      pz      :     1.068258  p :     3.200477
      px      :     1.037290
      py      :     1.094928
      dz2     :     0.011822  d :     0.104915
      dxz     :     0.024883
      dyz     :     0.024365
      dx2y2   :     0.021144
      dxy     :     0.022701

  5 C s       :     2.952679  s :     2.952679
      pz      :     1.115427  p :     3.321833
      px      :     1.094360
      py      :     1.112047
      dz2     :     0.009146  d :     0.071643
      dxz     :     0.020435
      dyz     :     0.014305
      dx2y2   :     0.016791
      dxy     :     0.010966

  6 C s       :     2.954764  s :     2.954764
      pz      :     1.122533  p :     3.320277
      px      :     1.120309
      py      :     1.077436
      dz2     :     0.005939  d :     0.072206
      dxz     :     0.020132
      dyz     :     0.018230
      dx2y2   :     0.014505
      dxy     :     0.013399

  7 H s       :     0.882737  s :     0.882737

  8 H s       :     0.878892  s :     0.878892

  9 H s       :     0.882828  s :     0.882828

 10 H s       :     0.882614  s :     0.882614

 11 H s       :     0.878809  s :     0.878809

 12 H s       :     0.878499  s :     0.878499

 13 H s       :     0.878330  s :     0.878330

 14 H s       :     0.882314  s :     0.882314

 15 H s       :     0.878882  s :     0.878882

 16 H s       :     0.879138  s :     0.879138

 17 H s       :     0.878673  s :     0.878673

 18 H s       :     0.879008  s :     0.879008

 19 H s       :     0.882743  s :     0.882743

 20 H s       :     0.882633  s :     0.882633


---------------------------------
LOEWDIN BOND ORDERS (THRESH 0.050000)
---------------------------------
B(  0-C ,  1-C ) :   1.1234 B(  0-C ,  2-C ) :   0.0571 B(  0-C ,  3-S ) :   0.0717 
B(  0-C ,  7-H ) :   0.9328 B(  0-C ,  8-H ) :   0.9352 B(  0-C ,  9-H ) :   0.9270 
B(  1-C ,  2-C ) :   1.1227 B(  1-C ,  3-S ) :   1.0927 B(  1-C , 10-H ) :   0.8851 
B(  2-C ,  3-S ) :   0.0631 B(  2-C , 11-H ) :   0.9355 B(  2-C , 12-H ) :   0.9355 
B(  2-C , 13-H ) :   0.9298 B(  3-S ,  4-C ) :   1.0906 B(  3-S ,  5-C ) :   0.0645 
B(  3-S ,  6-C ) :   0.0712 B(  4-C ,  5-C ) :   1.1230 B(  4-C ,  6-C ) :   1.1235 
B(  4-C , 14-H ) :   0.8849 B(  5-C ,  6-C ) :   0.0572 B(  5-C , 15-H ) :   0.9297 
B(  5-C , 16-H ) :   0.9356 B(  5-C , 17-H ) :   0.9356 B(  6-C , 18-H ) :   0.9351 
B(  6-C , 19-H ) :   0.9273 B(  6-C , 20-H ) :   0.9328 

------------------------------------------
LOEWDIN REDUCED ORBITAL POPULATIONS PER MO
-------------------------------------------
THRESHOLD FOR PRINTING IS 0.1%%
                      0         1         2         3         4         5   
                 -88.00218  -9.92217  -9.92198  -9.87809  -9.87775  -9.87667
                   2.00000   2.00000   2.00000   2.00000   2.00000   2.00000
                  --------  --------  --------  --------  --------  --------
 0 C  s               0.0       0.0       0.0       0.0       0.0      99.5
 1 C  s               0.0      92.2       7.4       0.0       0.0       0.0
 2 C  s               0.0       0.0       0.0      99.7       0.0       0.0
 3 S  s             100.0       0.0       0.0       0.0       0.0       0.0
 4 C  s               0.0       7.4      92.2       0.0       0.0       0.0
 5 C  s               0.0       0.0       0.0       0.0      99.7       0.0
 6 C  s               0.0       0.0       0.0       0.0       0.0       0.2

                      6         7         8         9        10        11   
                  -9.87646  -7.64616  -5.67468  -5.67096  -5.66246  -0.74755
                   2.00000   2.00000   2.00000   2.00000   2.00000   2.00000
                  --------  --------  --------  --------  --------  --------
 0 C  s               0.2       0.0       0.0       0.0       0.0       5.3
 0 C  pz              0.0       0.0       0.0       0.0       0.0       0.3
 0 C  px              0.0       0.0       0.0       0.0       0.0       0.3
 0 C  py              0.0       0.0       0.0       0.0       0.0       1.3
 1 C  s               0.0       0.0       0.0       0.0       0.0      16.1
 1 C  pz              0.0       0.1       0.0       0.0       0.0       0.6
 1 C  px              0.0       0.1       0.0       0.0       0.0       0.2
 1 C  py              0.0       0.0       0.0       0.0       0.0       0.1
 2 C  s               0.0       0.0       0.0       0.0       0.0       5.3
 2 C  pz              0.0       0.0       0.0       0.0       0.0       0.3
 2 C  px              0.0       0.0       0.0       0.0       0.0       1.0
 2 C  py              0.0       0.0       0.0       0.0       0.0       0.6
 3 S  s               0.0      99.7       0.0       0.0       0.0      17.3
 3 S  pz              0.0       0.0       0.0      97.8       2.2       2.1
 3 S  px              0.0       0.0      99.3       0.0       0.6       0.0
 3 S  py              0.0       0.0       0.6       2.1      97.2       0.0
 3 S  dx2y2           0.0       0.0       0.0       0.0       0.0       0.2
 4 C  s               0.0       0.0       0.0       0.0       0.0      16.0
 4 C  pz              0.0       0.1       0.0       0.0       0.0       0.6
 4 C  px              0.0       0.1       0.0       0.0       0.0       0.3
 5 C  s               0.0       0.0       0.0       0.0       0.0       5.2
 5 C  pz              0.0       0.0       0.0       0.0       0.0       0.3
 5 C  px              0.0       0.0       0.0       0.0       0.0       1.2
 5 C  py              0.0       0.0       0.0       0.0       0.0       0.5
 6 C  s              99.5       0.0       0.0       0.0       0.0       5.2
 6 C  pz              0.0       0.0       0.0       0.0       0.0       0.2
 6 C  px              0.0       0.0       0.0       0.0       0.0       0.2
 6 C  py              0.0       0.0       0.0       0.0       0.0       1.5
 7 H  s               0.0       0.0       0.0       0.0       0.0       1.0
 8 H  s               0.0       0.0       0.0       0.0       0.0       1.0
 9 H  s               0.0       0.0       0.0       0.0       0.0       0.9
10 H  s               0.0       0.0       0.0       0.0       0.0       3.2
11 H  s               0.0       0.0       0.0       0.0       0.0       0.9
12 H  s               0.0       0.0       0.0       0.0       0.0       1.0
13 H  s               0.0       0.0       0.0       0.0       0.0       0.9
14 H  s               0.0       0.0       0.0       0.0       0.0       3.2
15 H  s               0.0       0.0       0.0       0.0       0.0       0.9
16 H  s               0.0       0.0       0.0       0.0       0.0       0.9
17 H  s               0.0       0.0       0.0       0.0       0.0       1.0
18 H  s               0.1       0.0       0.0       0.0       0.0       1.0
19 H  s               0.1       0.0       0.0       0.0       0.0       0.9
20 H  s               0.1       0.0       0.0       0.0       0.0       1.0

                     12        13        14        15        16        17   
                  -0.71406  -0.61776  -0.61441  -0.61390  -0.51447  -0.49600
                   2.00000   2.00000   2.00000   2.00000   2.00000   2.00000
                  --------  --------  --------  --------  --------  --------
 0 C  s               7.9      15.0       0.5      13.2       2.9       1.2
 0 C  pz              0.2       0.1       0.0       0.1       0.2       0.2
 0 C  px              0.1       0.0       0.5       0.0       1.7       0.4
 0 C  py              1.4       0.2       0.0       0.1       3.3       4.0
 1 C  s              14.5       0.0       0.0       0.0       8.9       5.4
 1 C  pz              0.1       3.0       0.3       2.5       0.2       7.7
 1 C  px              1.2       0.0      11.1       0.1       2.7       0.0
 1 C  py              0.0       6.0       1.0       4.5       0.6       2.5
 1 C  dxz             0.0       0.0       0.2       0.0       0.0       0.1
 1 C  dxy             0.0       0.1       0.0       0.1       0.0       0.0
 2 C  s               8.8       8.7      13.2       5.7       3.6       0.9
 2 C  pz              0.4       0.1       0.0       0.1       1.2       3.2
 2 C  px              0.7       0.0       0.6       0.0       4.2       1.0
 2 C  py              0.6       0.2       0.0       0.2       0.6       0.0
 3 S  s               0.0       1.7      30.0       1.8       0.0      12.6
 3 S  pz              0.0       0.0       0.6       0.0       0.0       2.8
 3 S  px              3.6       0.0       0.0       0.0       5.5       0.0
 3 S  py              0.0       0.3       0.0       0.0       0.0       0.4
 3 S  dxz             0.3       0.0       0.0       0.0       0.7       0.0
 4 C  s              14.7       0.0       0.0       0.0       8.8       5.5
 4 C  pz              0.1       2.2       1.4       1.2       0.2       8.2
 4 C  px              1.1       0.0       9.5       2.3       2.4       0.0
 4 C  py              0.1       5.6       0.3       5.9       0.8       2.1
 4 C  dxz             0.0       0.0       0.2       0.1       0.0       0.1
 4 C  dxy             0.0       0.1       0.0       0.1       0.0       0.0
 5 C  s               8.8       7.5       4.2      16.0       3.5       0.9
 5 C  pz              0.4       0.1       0.1       0.1       1.1       3.2
 5 C  px              0.8       0.0       0.5       0.1       4.4       1.1
 5 C  py              0.6       0.2       0.0       0.2       0.4       0.0
 6 C  s               8.0      13.0       5.7       9.9       3.0       1.1
 6 C  pz              0.2       0.1       0.1       0.0       0.1       0.4
 6 C  px              0.0       0.0       0.5       0.1       1.2       0.1
 6 C  py              1.5       0.2       0.0       0.2       3.9       4.0
 7 H  s               1.3       4.6       0.0       3.5       1.3       0.7
 8 H  s               1.5       3.6       0.1       3.2       2.1       2.2
 9 H  s               1.5       3.8       0.3       3.6       2.1       0.4
10 H  s               2.4       0.0       0.0       0.0       4.6       8.9
11 H  s               1.5       2.7       2.9       1.8       1.4       0.6
12 H  s               1.7       2.1       3.3       1.4       2.5       2.0
13 H  s               1.7       2.0       4.2       1.3       2.6       0.2
14 H  s               2.4       0.0       0.0       0.0       4.5       9.0
15 H  s               1.7       1.7       1.6       4.2       2.5       0.3
16 H  s               1.5       2.3       0.7       4.4       1.4       0.6
17 H  s               1.7       1.8       1.1       4.0       2.4       2.0
18 H  s               1.5       3.1       1.4       2.4       2.1       2.1
19 H  s               1.6       3.3       2.0       2.4       2.2       0.4
20 H  s               1.3       4.0       1.1       2.9       1.3       0.7

                     18        19        20        21        22        23   
                  -0.42643  -0.41385  -0.39086  -0.37794  -0.36600  -0.35903
                   2.00000   2.00000   2.00000   2.00000   2.00000   2.00000
                  --------  --------  --------  --------  --------  --------
 0 C  s               0.0       0.2       0.3       0.1       0.1       0.0
 0 C  pz              5.9       7.2       2.8       1.4       2.4       0.0
 0 C  px              0.3       1.5       2.7      17.0       0.6      14.9
 0 C  py              1.3       4.0       5.7       0.1       3.1       0.9
 1 C  s               0.0       1.2       0.1       0.1       0.4       0.0
 1 C  pz             12.4       2.5       0.0       0.6       1.7       2.4
 1 C  px              0.5       6.1       6.3       0.6       0.0       1.0
 1 C  py              3.1       2.0       1.6       6.4       1.0       6.4
 1 C  dxz             0.0       0.0       0.0       0.0       0.1       0.0
 2 C  s               0.0       0.3       0.1       0.2       0.0       0.1
 2 C  pz              5.6       0.3       2.4       1.9       4.7       1.2
 2 C  px              1.0       0.2       3.4       3.8      14.0       9.8
 2 C  py              2.4      11.0       9.6       0.2       0.0       0.1
 2 C  dxz             0.0       0.1       0.0       0.0       0.2       0.0
 2 C  dxy             0.0       0.1       0.1       0.0       0.0       0.0
 3 S  s               0.0       0.1       0.0       2.5       6.7       0.0
 3 S  pz              0.0       0.4       0.0       2.9       0.8       0.0
 3 S  px             10.3       0.0       1.5       0.0       0.0       0.0
 3 S  py              0.0       0.5       0.0       3.3       1.1       0.0
 3 S  dz2             0.0       0.1       0.0       0.1       0.0       0.0
 3 S  dxz             0.2       0.0       0.1       0.0       0.0       0.0
 3 S  dx2y2           0.0       0.1       0.0       0.0       0.1       0.0
 3 S  dxy             0.0       0.0       0.1       0.0       0.0       0.2
 4 C  s               0.0       1.2       0.1       0.1       0.4       0.0
 4 C  pz             13.4       2.5       0.0       0.3       1.6       2.0
 4 C  px              0.7       5.2       6.0       1.0       0.0       1.5
 4 C  py              2.2       2.4       1.9       6.4       1.2       6.2
 4 C  dxz             0.0       0.0       0.0       0.0       0.1       0.0
 5 C  s               0.0       0.3       0.1       0.2       0.0       0.1
 5 C  pz              5.9       0.2       1.9       1.9       4.6       1.0
 5 C  px              1.4       0.6       1.8       3.9      14.4       8.8
 5 C  py              1.8      10.3      11.5       0.7       0.4       0.2
 5 C  dxz             0.0       0.0       0.0       0.0       0.2       0.0
 5 C  dxy             0.0       0.1       0.1       0.0       0.0       0.0
 6 C  s               0.0       0.2       0.2       0.1       0.1       0.0
 6 C  pz              6.5       6.2       2.2       1.5       2.6       0.1
 6 C  px              0.4       1.9       4.5      14.9       0.9      15.2
 6 C  py              0.7       4.2       5.1       0.9       2.5       1.8
 6 C  dx2y2           0.0       0.1       0.1       0.0       0.0       0.0
 7 H  s               0.0       5.9       4.8       1.9       0.3       2.0
 8 H  s               1.9       0.3       0.0       0.4       2.2       1.7
 9 H  s               1.7       0.3       0.0       8.2       1.8       4.0
10 H  s               3.7       1.7       0.7       0.0       0.0       0.0
11 H  s               0.0       4.5       7.0       0.1       2.3       0.5
12 H  s               1.8       0.1       0.2       2.4       0.1       2.5
13 H  s               2.6       0.6       0.9       0.2       9.7       1.7
14 H  s               3.7       1.6       0.7       0.0       0.0       0.0
15 H  s               2.7       0.6       0.8       0.3      10.0       1.7
16 H  s               0.0       4.4       7.0       0.2       2.4       0.4
17 H  s               1.7       0.1       0.2       2.7       0.1       2.2
18 H  s               2.0       0.2       0.0       0.3       2.2       1.8
19 H  s               1.7       0.3       0.1       7.8       1.8       4.4
20 H  s               0.1       5.7       5.1       1.5       0.4       2.3

                     24        25        26        27        28        29   
                  -0.34469  -0.34310  -0.32148  -0.30959  -0.30225  -0.29683
                   2.00000   2.00000   2.00000   2.00000   2.00000   2.00000
                  --------  --------  --------  --------  --------  --------
 0 C  s               0.0       0.0       0.0       0.2       0.2       0.1
 0 C  pz             12.0       9.9       3.1       1.3       4.1       3.0
 0 C  px              0.2       0.8       6.8       0.5       0.6       1.0
 0 C  py              3.8       2.9       0.9       9.3       8.2       2.7
 0 C  dxz             0.1       0.1       0.0       0.1       0.1       0.1
 0 C  dyz             0.1       0.0       0.3       0.0       0.0       0.2
 0 C  dxy             0.0       0.0       0.1       0.1       0.2       0.0
 1 C  s               0.0       0.0       0.1       0.0       0.0       0.0
 1 C  pz              0.1       0.0       1.8       1.1       2.6       6.2
 1 C  px              0.0       0.0       5.9       0.0       0.0       1.4
 1 C  py              0.1       0.0       0.3       7.5       5.6       3.8
 1 C  dz2             0.1       0.1       0.0       0.0       0.0       0.0
 1 C  dxz             0.0       0.0       0.0       0.1       0.0       0.2
 1 C  dyz             0.1       0.0       0.2       0.0       0.0       0.3
 1 C  dxy             0.0       0.0       0.1       0.1       0.2       0.1
 2 C  pz             11.7       8.5       3.9       2.0       3.2       4.2
 2 C  px              0.2       0.5       4.7       0.4       0.2       0.8
 2 C  py              4.4       2.8       0.3      11.7       7.8       1.4
 2 C  dxz             0.1       0.1       0.0       0.0       0.0       0.1
 2 C  dyz             0.0       0.0       0.1       0.1       0.1       0.1
 2 C  dx2y2           0.0       0.0       0.0       0.2       0.2       0.0
 3 S  s               0.0       0.0       0.6       0.0       0.0       0.0
 3 S  pz              0.3       0.0       4.4       0.1       0.0       0.0
 3 S  px              0.0       0.0       0.0       0.0       1.2       3.9
 3 S  py              0.5       0.0       0.6       1.6       0.0       0.0
 3 S  dz2             0.0       0.0       0.2       0.0       0.0       0.0
 3 S  dxy             0.0       0.0       0.0       0.0       0.1       0.0
 4 C  s               0.0       0.0       0.1       0.0       0.0       0.0
 4 C  pz              0.1       0.0       2.0       0.8       2.4       6.3
 4 C  px              0.0       0.0       5.6       0.3       0.0       0.9
 4 C  py              0.2       0.0       0.6       6.8       6.5       3.9
 4 C  dz2             0.1       0.1       0.0       0.0       0.0       0.1
 4 C  dxz             0.0       0.0       0.0       0.1       0.0       0.2
 4 C  dyz             0.1       0.1       0.2       0.0       0.0       0.3
 4 C  dx2y2           0.0       0.0       0.0       0.1       0.2       0.0
 4 C  dxy             0.0       0.0       0.2       0.0       0.1       0.1
 5 C  s               0.0       0.0       0.1       0.1       0.1       0.0
 5 C  pz             10.3      11.6       4.1       1.4       3.0       4.1
 5 C  px              0.3       0.9       4.9       0.0       0.0       0.5
 5 C  py              2.6       2.6       0.6      11.6       9.4       1.5
 5 C  dz2             0.0       0.0       0.0       0.0       0.0       0.1
 5 C  dxz             0.1       0.1       0.0       0.0       0.0       0.1
 5 C  dyz             0.0       0.0       0.1       0.1       0.1       0.1
 5 C  dx2y2           0.0       0.0       0.0       0.2       0.3       0.0
 6 C  s               0.0       0.0       0.0       0.2       0.2       0.1
 6 C  pz              9.9      13.5       3.2       0.8       3.9       3.2
 6 C  px              0.2       1.4       5.3       1.2       1.5       0.7
 6 C  py              2.3       2.5       1.3       8.1       8.8       3.0
 6 C  dxz             0.1       0.1       0.0       0.1       0.1       0.0
 6 C  dyz             0.1       0.1       0.2       0.0       0.0       0.3
 6 C  dxy             0.0       0.0       0.1       0.1       0.2       0.0
 7 H  s               0.1       0.0       3.9       5.1       5.2       0.6
 8 H  s               6.9       5.1       5.0       0.1       0.2       5.4
 9 H  s               3.9       4.5       0.3       0.4       0.0       0.5
10 H  s               0.0       0.0       4.3       0.4       0.0       9.1
11 H  s               0.1       0.0       0.3       8.9       7.0       0.5
12 H  s               7.0       4.5       4.1       0.8       0.1       5.5
13 H  s               4.3       3.6       0.0       0.4       0.9       0.8
14 H  s               0.0       0.0       4.5       0.3       0.0       8.8
15 H  s               3.3       4.6       0.0       0.3       0.9       0.8
16 H  s               0.1       0.0       0.5       8.0       7.6       0.6
17 H  s               5.7       5.9       4.5       0.7       0.1       5.4
18 H  s               5.4       6.6       4.8       0.1       0.2       5.4
19 H  s               2.7       5.6       0.2       0.4       0.0       0.5
20 H  s               0.1       0.0       3.4       5.0       5.9       0.5

                     30        31        32        33        34        35   
                  -0.28001  -0.25308  -0.17475   0.01192   0.02783   0.03966
                   2.00000   2.00000   2.00000   0.00000   0.00000   0.00000
                  --------  --------  --------  --------  --------  --------
 0 C  s               0.1       0.0       0.8       0.7       3.4       1.7
 0 C  pz              0.2       0.8       0.5       0.1       0.9       0.5
 0 C  px              4.5       0.6       0.7       0.3       0.0       0.7
 0 C  py              0.0       0.0       0.9       0.3       0.6       1.6
 0 C  dxz             0.2       0.1       0.1       0.1       0.0       0.2
 0 C  dx2y2           0.1       0.1       0.0       0.1       0.1       0.0
 0 C  dxy             0.0       0.0       0.0       0.1       0.1       0.2
 1 C  s               0.0       0.3       0.0       5.1       1.8       3.2
 1 C  pz              0.4       7.1       0.1       2.6       4.8       4.4
 1 C  px             12.4       2.1       0.0       6.3       0.1       4.5
 1 C  py              0.3       0.5       1.1       0.1       1.6       0.8
 1 C  dz2             0.0       0.1       0.0       0.3       0.1       0.3
 1 C  dxz             0.3       0.1       0.1       0.3       0.1       0.3
 1 C  dyz             0.2       0.1       0.2       0.1       0.1       0.0
 1 C  dx2y2           0.1       0.2       0.0       0.0       0.0       0.5
 1 C  dxy             0.0       0.0       0.4       0.0       0.1       0.0
 2 C  s               0.5       0.1       0.3       2.6       3.0       0.0
 2 C  pz              0.0       0.5       0.1       0.3       0.0       0.9
 2 C  px              7.7       0.1       0.7       0.6       0.4       0.1
 2 C  py              1.3       0.0       0.0       0.0       0.4       0.6
 2 C  dz2             0.0       0.1       0.0       0.1       0.1       0.1
 2 C  dxz             0.1       0.0       0.0       0.0       0.3       0.1
 2 C  dx2y2           0.1       0.0       0.0       0.0       0.0       0.2
 2 C  dxy             0.0       0.0       0.0       0.0       0.0       0.4
 3 S  s               0.0       6.5       0.0       0.0       2.0       4.8
 3 S  pz              0.0      50.7       1.9       0.0       1.1      15.6
 3 S  px             20.6       0.0       0.5      26.6       0.0       0.0
 3 S  py              0.1       1.6      81.2       0.2       0.0       0.5
 3 S  dz2             0.0       0.0       0.0       0.0       0.5       0.0
 3 S  dxz             0.8       0.0       0.0      10.2       0.0       0.0
 3 S  dyz             0.0       0.0       0.0       0.1       0.1       0.2
 3 S  dx2y2           0.0       0.4       0.0       0.0       0.5       5.9
 3 S  dxy             0.0       0.0       0.0       0.4       0.0       0.1
 4 C  s               0.0       0.3       0.0       5.0       1.7       3.5
 4 C  pz              0.5       7.3       0.1       2.2       5.4       4.8
 4 C  px             12.7       2.3       0.0       6.1       0.2       4.8
 4 C  py              0.0       0.2       1.1       0.0       1.2       0.3
 4 C  dz2             0.0       0.1       0.0       0.3       0.1       0.3
 4 C  dxz             0.3       0.1       0.0       0.3       0.1       0.3
 4 C  dyz             0.1       0.1       0.2       0.1       0.1       0.0
 4 C  dx2y2           0.1       0.2       0.0       0.0       0.0       0.6
 4 C  dxy             0.0       0.0       0.4       0.0       0.0       0.0
 5 C  s               0.4       0.1       0.3       2.5       2.9       0.0
 5 C  pz              0.0       0.5       0.1       0.3       0.0       0.8
 5 C  px              8.0       0.1       0.9       0.6       0.4       0.0
 5 C  py              0.5       0.0       0.0       0.0       0.3       0.8
 5 C  dz2             0.0       0.1       0.0       0.1       0.1       0.1
 5 C  dxz             0.2       0.0       0.0       0.0       0.3       0.1
 5 C  dx2y2           0.1       0.0       0.0       0.1       0.0       0.4
 5 C  dxy             0.0       0.0       0.0       0.0       0.0       0.3
 6 C  s               0.1       0.0       0.8       0.9       3.1       1.6
 6 C  pz              0.3       0.7       0.4       0.2       0.8       0.4
 6 C  px              4.8       0.5       0.6       0.3       0.0       1.0
 6 C  py              0.1       0.0       1.1       0.3       0.6       1.6
 6 C  dxz             0.2       0.1       0.1       0.0       0.0       0.2
 6 C  dx2y2           0.1       0.1       0.0       0.0       0.2       0.0
 6 C  dxy             0.1       0.0       0.0       0.1       0.0       0.3
 7 H  s               1.8       0.0       0.1       0.1       4.3       7.0
 8 H  s               0.0       0.8       0.2       2.5       0.7       1.1
 9 H  s               3.6       1.4       0.8       0.4       4.6       0.2
10 H  s               0.2       4.2       0.5       1.9      12.9       0.6
11 H  s               0.3       0.1       0.3       0.8       2.3       2.6
12 H  s               0.0       0.6       0.0       4.0       0.6       0.3
13 H  s               4.4       0.4       0.3       1.1       5.1       2.3
14 H  s               0.3       4.4       0.3       2.3      12.8       0.6
15 H  s               4.3       0.5       0.4       1.1       4.9       2.1
16 H  s               0.3       0.1       0.3       0.7       2.3       2.9
17 H  s               0.0       0.6       0.0       3.9       0.6       0.3
18 H  s               0.0       0.8       0.2       2.7       0.6       1.1
19 H  s               3.7       1.3       0.8       0.5       4.4       0.3
20 H  s               1.8       0.0       0.1       0.1       3.8       7.4

                     36        37        38        39        40        41   
                   0.06648   0.06960   0.07986   0.09996   0.10505   0.10627
                   0.00000   0.00000   0.00000   0.00000   0.00000   0.00000
                  --------  --------  --------  --------  --------  --------
 0 C  s               2.5       3.6       4.3       5.4       0.0       0.2
 0 C  pz              0.3       0.9       1.0       1.3       0.5       2.5
 0 C  px              1.1       2.7       1.8       1.8       5.8       0.3
 0 C  py              0.4       0.0       0.9       0.7       0.6       1.0
 0 C  dxz             0.0       0.1       0.0       0.0       0.1       0.1
 0 C  dyz             0.1       0.0       0.0       0.1       0.4       0.0
 0 C  dxy             0.0       0.0       0.1       0.2       0.0       0.0
 1 C  s               2.3       0.1       0.9       0.0       2.7       1.3
 1 C  pz              1.4       1.4       0.0       0.4       1.3       0.1
 1 C  px              1.1       1.1       0.7       0.1       0.7       1.5
 1 C  py              0.8       0.3       0.4       0.2       0.0       0.4
 1 C  dz2             0.0       0.0       0.0       0.0       0.0       0.2
 1 C  dxz             0.1       0.2       0.2       0.0       0.0       0.0
 1 C  dyz             0.0       0.0       0.0       0.0       0.1       0.1
 1 C  dxy             0.1       0.0       0.0       0.6       0.2       0.0
 2 C  s               2.3       2.7       5.5       5.2       1.6       3.7
 2 C  pz              0.2       0.3       0.8       0.5       1.4       5.2
 2 C  px              1.4       2.6       0.1       0.1       2.1       0.2
 2 C  py              0.6       0.5       1.0       2.1       0.1       0.2
 2 C  dz2             0.1       0.0       0.0       0.0       0.2       0.0
 2 C  dxz             0.0       0.1       0.0       0.0       0.1       0.2
 3 S  s               0.8       0.0       0.5       0.0       1.7       0.0
 3 S  pz              0.3       0.0       3.3       0.0       2.5       0.0
 3 S  px              0.0       9.1       0.0       0.0       0.0       3.2
 3 S  py              0.2       0.0       0.7       0.0       0.8       0.0
 3 S  dz2             0.1       0.0       0.6       0.0       0.1       0.0
 3 S  dxz             0.0       1.8       0.0       0.1       0.0       1.4
 3 S  dyz             0.0       0.0       0.0       0.0       0.8       0.0
 3 S  dx2y2           0.1       0.0       0.7       0.0       1.8       0.0
 3 S  dxy             0.0       0.0       0.0       0.8       0.0       0.2
 4 C  s               2.3       0.1       0.6       0.2       2.7       1.3
 4 C  pz              1.3       1.6       0.0       0.2       1.5       0.0
 4 C  px              1.0       1.1       0.8       0.2       0.7       1.4
 4 C  py              0.8       0.2       0.4       0.2       0.0       0.6
 4 C  dz2             0.0       0.0       0.0       0.0       0.0       0.3
 4 C  dxz             0.0       0.2       0.3       0.0       0.0       0.0
 4 C  dyz             0.1       0.0       0.0       0.0       0.1       0.1
 4 C  dxy             0.1       0.0       0.0       0.4       0.4       0.0
 5 C  s               2.0       2.8       6.1       4.2       2.8       3.0
 5 C  pz              0.2       0.3       0.8       0.6       1.6       4.5
 5 C  px              1.4       2.6       0.2       0.2       2.1       0.2
 5 C  py              0.9       0.3       1.0       1.3       0.0       0.2
 5 C  dz2             0.1       0.0       0.0       0.0       0.2       0.0
 5 C  dxz             0.0       0.1       0.0       0.0       0.1       0.2
 6 C  s               3.4       3.1       4.1       5.2       0.3       0.1
 6 C  pz              0.2       0.9       1.1       1.0       0.5       2.1
 6 C  px              1.0       2.5       2.0       0.6       6.9       0.3
 6 C  py              0.5       0.1       0.6       0.8       0.1       0.8
 6 C  dxz             0.0       0.1       0.0       0.0       0.2       0.1
 6 C  dyz             0.1       0.0       0.0       0.0       0.3       0.0
 6 C  dxy             0.0       0.0       0.1       0.2       0.0       0.0
 7 H  s               0.1       0.1      13.0       0.5       4.9       0.1
 8 H  s               6.9       1.1       0.5      15.3       0.2       3.2
 9 H  s               2.9      15.0       0.3       4.0       9.9       5.3
10 H  s              12.6       0.5       0.9       0.5       0.4       3.7
11 H  s               0.2       0.8       8.1       8.9       3.7       3.2
12 H  s               7.2       0.9       4.1       0.1       3.6      17.7
13 H  s               3.5      10.3       1.8       6.3       1.6       0.3
14 H  s              11.7       0.7       0.2       0.7       0.4       4.2
15 H  s               3.7      10.1       1.8       7.1       0.9       0.2
16 H  s               0.2       1.0       8.8       5.4       5.5       2.1
17 H  s               7.0       0.7       5.1       0.0       4.8      15.7
18 H  s               7.8       0.8       0.3      12.4       0.1       3.1
19 H  s               3.9      14.0       0.4       2.7      12.9       3.8
20 H  s               0.2       0.1      12.3       0.7       4.4       0.0

                     42        43        44        45        46        47   
                   0.11189   0.12539   0.12794   0.14392   0.14533   0.15927
                   0.00000   0.00000   0.00000   0.00000   0.00000   0.00000
                  --------  --------  --------  --------  --------  --------
 0 C  s               0.0       2.7       1.6       0.2       0.0       1.0
 0 C  pz              4.2       0.1       1.5       4.7       4.0       0.9
 0 C  px              0.3       0.7       1.5       0.5       0.5       0.7
 0 C  py              1.5       0.7       0.7       1.6       0.2       2.1
 0 C  dz2             0.3       0.0       0.0       0.0       0.0       0.0
 0 C  dxz             0.1       0.0       0.0       0.5       0.2       0.2
 0 C  dyz             0.1       0.3       0.0       0.1       0.0       0.2
 0 C  dx2y2           0.0       0.1       0.0       0.2       0.4       0.8
 0 C  dxy             0.0       0.0       0.3       0.1       0.1       0.0
 1 C  s               1.9       0.3       0.2       0.3       0.1       3.0
 1 C  pz              0.9       0.0       0.1       0.5       0.1       1.5
 1 C  px              0.0       0.2       1.5       0.1       1.0       8.2
 1 C  py              0.5       0.9       1.7       0.1       0.1       0.6
 1 C  dz2             0.0       0.0       0.0       0.4       0.5       0.3
 1 C  dxz             0.0       0.0       0.6       0.0       0.1       0.8
 1 C  dyz             0.1       0.5       0.0       0.4       0.0       1.1
 1 C  dx2y2           0.0       0.5       0.2       0.3       0.1       0.0
 1 C  dxy             0.0       0.0       0.3       0.1       0.0       0.1
 2 C  s               0.8       0.1       1.0       0.0       0.2       0.8
 2 C  pz              1.6       0.8       1.1       5.1       5.0       1.1
 2 C  px              0.2       5.6       2.2       0.4       0.3       5.8
 2 C  py              1.8       4.0       5.4       2.9       1.2       4.2
 2 C  dz2             0.0       0.2       0.1       0.0       0.0       0.0
 2 C  dxz             0.0       0.0       0.1       0.4       0.1       0.9
 2 C  dyz             0.3       0.4       0.0       0.2       0.1       0.3
 2 C  dx2y2           0.0       0.4       0.1       0.1       0.0       0.0
 2 C  dxy             0.0       0.1       0.2       0.0       0.2       1.0
 3 S  s               0.3       0.0       1.0       0.0       0.6       2.1
 3 S  pz              0.4       0.0       1.7       0.0       1.0       1.5
 3 S  px              0.0       0.4       0.0       0.0       0.0       0.1
 3 S  py              0.6       0.0       0.1       0.0       0.2       0.4
 3 S  dz2             0.2       0.0       0.7       0.0       0.5       2.8
 3 S  dxz             0.0       0.2       0.0       0.0       0.0       0.0
 3 S  dx2y2           0.1       0.0       0.0       0.0       0.1       0.8
 3 S  dxy             0.0       0.3       0.0       1.1       0.0       0.0
 4 C  s               1.8       0.2       0.3       0.2       0.2       5.6
 4 C  pz              0.9       0.1       0.1       0.3       0.1       0.4
 4 C  px              0.0       0.1       1.8       0.2       0.8       9.4
 4 C  py              0.4       1.0       1.4       0.0       0.1       0.3
 4 C  dz2             0.0       0.0       0.0       0.2       0.7       0.3
 4 C  dxz             0.0       0.0       0.5       0.0       0.0       1.3
 4 C  dyz             0.2       0.4       0.0       0.4       0.1       0.8
 4 C  dx2y2           0.0       0.5       0.4       0.1       0.2       0.0
 4 C  dxy             0.1       0.0       0.2       0.1       0.1       0.1
 5 C  s               1.1       0.1       0.7       0.0       0.2       1.0
 5 C  pz              2.2       0.7       0.8       3.5       7.2       1.4
 5 C  px              0.2       4.8       1.4       0.4       0.6       7.5
 5 C  py              2.3       5.2       6.0       1.6       1.2       3.7
 5 C  dz2             0.0       0.2       0.1       0.0       0.0       0.0
 5 C  dxz             0.0       0.0       0.1       0.3       0.2       1.1
 5 C  dyz             0.3       0.3       0.0       0.2       0.2       0.4
 5 C  dx2y2           0.0       0.5       0.2       0.1       0.1       0.0
 5 C  dxy             0.0       0.0       0.1       0.0       0.1       1.2
 6 C  s               0.0       2.7       1.4       0.3       0.1       1.4
 6 C  pz              5.3       0.0       1.3       3.4       6.1       0.6
 6 C  px              0.5       0.6       1.7       0.4       0.8       0.8
 6 C  py              1.5       0.8       0.9       1.0       0.3       3.1
 6 C  dz2             0.4       0.0       0.0       0.0       0.0       0.0
[...]
 4 C  dyz             6.3       5.6      11.5       0.0       0.1       0.1
 4 C  dx2y2           6.3       5.3       1.9       0.0       2.1       3.2
 4 C  dxy             0.9       2.1       3.3       0.3       2.7       5.2
 5 C  s               0.0       0.0       0.0       0.0       0.1       0.1
 5 C  pz              0.0       0.1       0.2       0.0       0.0       0.0
 5 C  px              0.1       0.1       0.1       0.0       0.3       0.1
 5 C  dz2             3.3       3.0       5.7       0.3       0.7       1.1
 5 C  dxz             0.3       0.8      15.6       0.0       1.6       0.1
 5 C  dyz             0.3       0.8       1.0       0.5       6.7       5.9
 5 C  dx2y2           0.0       0.0       4.4       0.3       6.0       6.2
 5 C  dxy             1.7       0.3       2.7       0.2       0.3       0.5
 6 C  s               0.0       0.1       0.0       0.0       0.1       0.0
 6 C  pz              0.0       0.1       0.2       0.0       0.0       0.0
 6 C  px              0.1       0.1       0.0       0.0       0.1       0.1
 6 C  py              0.0       0.0       0.0       0.0       0.2       0.1
 6 C  dz2             1.1       1.3       0.0       0.0       1.1       0.4
 6 C  dxz             0.0       0.5      13.1       0.1       0.8       3.6
 6 C  dyz             3.9       0.4       9.4       0.7       7.7       5.6
 6 C  dx2y2           1.0       0.1       8.5       0.1       1.5       3.3
 6 C  dxy             0.2       0.9       0.0       0.1       2.9       5.5
 7 H  s               0.1       0.0       0.0       0.0       0.6       0.9
 8 H  s               0.0       0.1       0.0       1.7       0.7       0.2
 9 H  s               0.0       0.1       0.0       1.8       0.2       0.8
10 H  s               2.3       2.9       0.0       0.1       0.2       0.1
11 H  s               0.0       0.0       0.0       0.0       0.7       0.6
12 H  s               0.0       0.0       0.0       1.8       0.2       0.5
13 H  s               0.0       0.0       0.0       1.8       0.7       0.1
14 H  s               2.2       3.0       0.1       0.0       0.1       0.1
15 H  s               0.0       0.0       1.8       0.0       0.7       0.2
16 H  s               0.0       0.0       0.0       0.0       0.7       0.7
17 H  s               0.0       0.0       1.8       0.0       0.2       0.5
18 H  s               0.1       0.1       1.7       0.0       0.6       0.3
19 H  s               0.0       0.1       1.8       0.0       0.2       0.7
20 H  s               0.1       0.0       0.0       0.1       0.6       0.9

                    126       127       128       129   
                   2.44279   2.46828   2.56110   2.58305
                   0.00000   0.00000   0.00000   0.00000
                  --------  --------  --------  --------
 0 C  s               0.3       0.3       0.7       0.8
 0 C  pz              0.1       0.2       0.2       0.2
 0 C  px              0.2       0.3       0.1       0.1
 0 C  py              0.5       0.7       1.1       1.2
 0 C  dz2             1.5       1.5       0.7       0.5
 0 C  dxz             1.2       0.4       0.5       0.7
 0 C  dyz             0.3       1.4       2.8       1.9
 0 C  dx2y2           0.3       1.4       3.5       2.7
 0 C  dxy             7.8       6.6       2.0       2.1
 1 C  s               1.3       1.4       0.0       0.0
 1 C  pz              0.0       0.0       0.7       0.8
 1 C  px              0.6       1.2       0.1       0.3
 1 C  py              0.1       0.2       1.8       2.3
 1 C  dz2             0.9       1.5       0.1       0.3
 1 C  dxz             0.8       1.5       4.9       7.0
 1 C  dyz            13.6      14.0       0.0       0.1
 1 C  dx2y2           6.6       5.7       4.7       3.7
 1 C  dxy             1.4       0.2      12.1      12.1
 2 C  s               0.2       0.3       0.6       1.2
 2 C  pz              0.1       0.1       0.4       0.5
 2 C  px              0.5       0.5       0.5       0.7
 2 C  py              0.1       0.1       0.6       0.7
 2 C  dz2             0.3       0.3       0.0       0.1
 2 C  dxz             4.3       3.0       2.8       3.3
 2 C  dyz             0.2       0.3       2.2       2.6
 2 C  dx2y2           3.7       2.1       0.0       0.1
 2 C  dxy             2.4       2.0       4.2       5.3
 3 S  s               0.4       0.0       0.1       0.0
 3 S  pz              0.2       0.0       0.1       0.0
 3 S  px              0.0       0.7       0.0       0.0
 3 S  dxz             0.0       1.0       0.0       0.0
 3 S  dx2y2           0.3       0.0       0.0       0.0
 4 C  s               1.3       1.4       0.0       0.0
 4 C  pz              0.0       0.0       0.6       0.6
 4 C  px              0.6       1.1       0.2       0.5
 4 C  py              0.1       0.3       2.0       2.1
 4 C  dz2             1.7       2.7       0.1       0.3
 4 C  dxz             1.4       2.6       4.4       5.6
 4 C  dyz            10.4      11.1       0.0       0.0
 4 C  dx2y2           5.7       6.1       9.3       6.2
 4 C  dxy             3.2       1.2       9.8       9.2
 5 C  s               0.2       0.3       0.7       1.1
 5 C  pz              0.1       0.1       0.4       0.4
 5 C  px              0.6       0.6       0.7       0.8
 5 C  py              0.1       0.1       0.6       0.6
 5 C  dz2             0.3       0.4       0.1       0.2
 5 C  dxz             4.0       3.1       3.1       3.1
 5 C  dyz             0.1       0.2       1.9       1.7
 5 C  dx2y2           4.7       3.0       0.2       0.5
 5 C  dxy             1.5       1.4       4.9       4.8
 6 C  s               0.2       0.3       0.8       0.8
 6 C  pz              0.0       0.1       0.2       0.1
 6 C  px              0.1       0.2       0.1       0.0
 6 C  py              0.6       0.9       1.4       1.2
 6 C  dz2             1.6       1.9       1.0       0.8
 6 C  dxz             0.7       0.2       0.2       0.3
 6 C  dyz             0.2       1.0       2.3       1.6
 6 C  dx2y2           1.2       3.2       5.4       3.8
 6 C  dxy             6.9       5.3       1.0       1.1
 7 H  s               0.3       0.1       0.1       0.2
 9 H  s               0.0       0.2       0.1       0.0
10 H  s               0.5       0.6       0.0       0.0
11 H  s               0.2       0.1       0.1       0.1
14 H  s               0.5       0.6       0.0       0.0
16 H  s               0.2       0.1       0.1       0.1
19 H  s               0.0       0.1       0.1       0.0
20 H  s               0.3       0.1       0.1       0.1


                      *****************************
                      * MAYER POPULATION ANALYSIS *
                      *****************************

  NA   - Mulliken gross atomic population
  ZA   - Total nuclear charge
  QA   - Mulliken gross atomic charge
  VA   - Mayer's total valence
  BVA  - Mayer's bonded valence
  FA   - Mayer's free valence

  ATOM       NA         ZA         QA         VA         BVA        FA
  0 C      6.2061     6.0000    -0.2061     3.8815     3.8815     0.0000
  1 C      6.2976     6.0000    -0.2976     4.1594     4.1594    -0.0000
  2 C      6.2199     6.0000    -0.2199     3.9159     3.9159     0.0000
  3 S     16.0449    16.0000    -0.0449     2.1287     2.1287    -0.0000
  4 C      6.2943     6.0000    -0.2943     4.1533     4.1533     0.0000
  5 C      6.2185     6.0000    -0.2185     3.9120     3.9120     0.0000
  6 C      6.2064     6.0000    -0.2064     3.8855     3.8855    -0.0000
  7 H      0.8881     1.0000     0.1119     0.9717     0.9717     0.0000
  8 H      0.8966     1.0000     0.1034     0.9745     0.9745     0.0000
  9 H      0.9045     1.0000     0.0955     0.9568     0.9568     0.0000
 10 H      0.8883     1.0000     0.1117     0.9401     0.9401    -0.0000
 11 H      0.8893     1.0000     0.1107     0.9702     0.9702     0.0000
 12 H      0.8924     1.0000     0.1076     0.9628     0.9628     0.0000
 13 H      0.8953     1.0000     0.1047     0.9569     0.9569    -0.0000
 14 H      0.8897     1.0000     0.1103     0.9419     0.9419    -0.0000
 15 H      0.8958     1.0000     0.1042     0.9565     0.9565     0.0000
 16 H      0.8900     1.0000     0.1100     0.9709     0.9709     0.0000
 17 H      0.8928     1.0000     0.1072     0.9631     0.9631     0.0000
 18 H      0.8967     1.0000     0.1033     0.9733     0.9733    -0.0000
 19 H      0.9039     1.0000     0.0961     0.9565     0.9565     0.0000
 20 H      0.8889     1.0000     0.1111     0.9740     0.9740    -0.0000

  Mayer bond orders larger than 0.100000
B(  0-C ,  1-C ) :   1.0807 B(  0-C ,  7-H ) :   0.9435 B(  0-C ,  8-H ) :   0.9484 
B(  0-C ,  9-H ) :   0.9360 B(  1-C ,  2-C ) :   1.0949 B(  1-C ,  3-S ) :   1.0187 
B(  1-C , 10-H ) :   0.8999 B(  2-C , 11-H ) :   0.9480 B(  2-C , 12-H ) :   0.9490 
B(  2-C , 13-H ) :   0.9447 B(  3-S ,  4-C ) :   1.0150 B(  4-C ,  5-C ) :   1.0930 
B(  4-C ,  6-C ) :   1.0826 B(  4-C , 14-H ) :   0.8991 B(  5-C , 15-H ) :   0.9443 
B(  5-C , 16-H ) :   0.9482 B(  5-C , 17-H ) :   0.9493 B(  6-C , 18-H ) :   0.9483 
B(  6-C , 19-H ) :   0.9369 B(  6-C , 20-H ) :   0.9434 

-------
TIMINGS
-------

Total SCF time: 0 days 0 hours 0 min 7 sec 

Total time                  ....       7.061 sec
Sum of individual times     ....       6.475 sec  ( 91.7%)

SCF preparation             ....       0.176 sec  (  2.5%)
Fock matrix formation       ....       5.486 sec  ( 77.7%)
  Startup                   ....       0.056 sec  (  1.0% of F)
  Split-RI-J                ....       1.791 sec  ( 32.6% of F)
  XC integration            ....       3.186 sec  ( 58.1% of F)
    XC Preparation          ....       0.000 sec  (  0.0% of XC)
    Basis function eval.    ....       1.068 sec  ( 33.5% of XC)
    Density eval.           ....       0.374 sec  ( 11.8% of XC)
    XC-Functional eval.     ....       0.275 sec  (  8.6% of XC)
    XC-Potential eval.      ....       0.601 sec  ( 18.9% of XC)
Diagonalization             ....       0.000 sec  (  0.0%)
Density matrix formation    ....       0.253 sec  (  3.6%)
Total Energy calculation    ....       0.032 sec  (  0.5%)
Population analysis         ....       0.067 sec  (  0.9%)
Orbital Transformation      ....       0.058 sec  (  0.8%)
Orbital Orthonormalization  ....       0.000 sec  (  0.0%)
DIIS solution               ....       0.330 sec  (  4.7%)
  MO trafo                  ....       0.000 sec  (  0.0 % of DIIS)
  Orb grad                  ....       0.000 sec  (  0.0 % of DIIS)
  Energy W gradient         ....       0.000 sec  (  0.0 % of DIIS)
  DIIS error                ....       0.002 sec  (  0.7 % of DIIS)
  DIIS work                 ....       0.289 sec  ( 87.4 % of DIIS)
  Form Q                    ....       0.000 sec  (  0.0 % of DIIS)
  Form QpQm                 ....       0.000 sec  (  0.0 % of DIIS)
  Exp/Cayley                ....       0.000 sec  (  0.0 % of DIIS)
  Orb update                ....       0.000 sec  (  0.0 % of DIIS)
  Wake-sleep                ....       0.017 sec  (  5.2 % of DIIS)
SOSCF solution              ....       0.074 sec  (  1.0%)
  MO trafo                  ....       0.042 sec  ( 56.3 % of SOSCF)
  Orb grad                  ....       0.001 sec  (  1.5 % of SOSCF)
  Rot update                ....       0.016 sec  ( 21.7 % of SOSCF)
  Step                      ....       0.015 sec  ( 20.4 % of SOSCF)
Finished LeanSCF after   7.1 sec

Maximum memory used throughout the entire LEANSCF-calculation: 12.8 MB


-------------------------------------------------------------------------------
                          DFT DISPERSION CORRECTION                            
                                                                               
                                DFTD4 V3.4.0                                   
-------------------------------------------------------------------------------
The PBE functional is recognized
Active option DFTDOPT                   ...         5   

-------------------------   ----------------
Dispersion correction           -0.018386071
-------------------------   ----------------

------------------   -----------------
gCP correction             0.085241487
------------------   -----------------

-------------------------   --------------------
FINAL SINGLE POINT ENERGY      -634.346168037290
-------------------------   --------------------


------------------------------------------------------------------------------
                              ORCA PROPERTY CALCULATIONS
------------------------------------------------------------------------------

GBWName                                 ... sp.gbw
Number of atoms                         ...     21
Number of basis functions               ...    130
Max core memory                         ...   1024 MB

Electric properties:
Dipole moment                           ... YES
Quadrupole moment                       ...  NO
Static polarizability (Dipole/Dipole)   ...  NO
Static polarizability (Dipole/Quad.)    ...  NO
Static polarizability (Quad./Quad.)     ...  NO
Static polarizability (Velocity)        ...  NO

Atomic electric properties:
Dipole moment                           ...  NO
Quadrupole moment                       ...  NO
Static polarizability                   ...  NO

Choice of electric origin               ... Center of mass
Position of electric origin             ...     0.000000     0.000001    -0.000008

General magnetic properties:
Magnetizability                         ...  NO

EPR properties:
g-Tensor (aka g-matrix)                 ...  NO
Zero-Field splitting spin-orbit         ...  NO
Zero-field splitting spin-spin          ...  NO
Hyperfine couplings                     ...  NO (   0 nuclei)
Quadrupole couplings                    ...  NO (   0 nuclei)
Contact density                         ...  NO (   0 nuclei)

NMR properties:
Chemical shifts                         ...  NO (   0 nuclei)
Spin-rotation constants                 ...  NO (   0 nuclei)
Spin-spin couplings                     ...  NO (   0 nuclei,    0 pairs)

Choice of magnetic origin               ... GIAO
Position of magnetic origin             ...     0.000000     0.000000     0.000000

Properties with geometric perturbations:
SCF Hessian                             ...  NO
IR spectrum                             ...  NO
VCD spectrum                            ...  NO
X-ray spectroscopy properties:
SCF XES/XAS/RIXS spectra                ...  NO


-------------
DIPOLE MOMENT
-------------

Method             : SCF
Type of density    : Electron Density
Multiplicity       :   1
Irrep              :   0
Energy             :  -634.4130234538240529 Eh
Relativity type    : 
Basis              : AO
                                X                 Y                 Z
Electronic contribution:     -0.020968520      -0.606021605       3.942461673
Nuclear contribution   :      0.016409004       0.488466310      -4.534200086
                        -----------------------------------------
Total Dipole Moment    :     -0.004559516      -0.117555295      -0.591738414
                        -----------------------------------------
Magnitude (a.u.)       :      0.603319473
Magnitude (Debye)      :      1.533516230



--------------------
Rotational spectrum 
--------------------
 
Rotational constants in cm-1:             0.120663             0.041897             0.034780 
Rotational constants in MHz :          3617.399126          1256.032725          1042.679023 

Dipole components along the rotational axes: 
x,y,z [a.u.] :     0.003138     0.258556    -0.545100 
x,y,z [Debye]:     0.007976     0.657196    -1.385533 

 

Dipole moment calculation done in   0.0 sec 

Maximum memory used throughout the entire PROP-calculation: 7.9 MB

--------------------------------
SUGGESTED CITATIONS FOR THIS RUN
--------------------------------

Below you find a list of papers that are relevant to this ORCA run
We neither can nor want to force you to cite these papers, but we appreciate if you do
You receive ORCA, which is the product of decades of hard work by many enthusiastic individuals, for free
The only thing we kindly ask in return is that you cite our papers,
We deeply appreciate it, if you show your appreciation for ORCA by not just citing the generic ORCA reference.

Please note that relegating all ORCA citations to the supporting information does *not* help us.
SI sections are not indexed - citations you put there will not count into any citation statistics
But we need these citations in order to attract the funding resources that allow us to do what we are doing

Therefore, if you are a happy ORCA user, please consider citing a few of the papers listed below in the main body of your paper

In addition to the list printed below, the program has created the file sp.bibtex that contains the list in bibtex format
You can import this file easily into all common literature databanks and citation aid programs


List of essential papers. We consider these as the minimum necessary citations

  1. Neese,F.
     Software update: the ORCA program system, version 5.0
     WIRES Comput. Molec. Sci., 2022 12(1)e1606
     doi.org/10.1002/wcms.1606

List of papers to cite with high priority. The work reported in these papers was absolutely
necessary for this run to complete.
Our perspective: the developers of density functionals and basis sets usually get cited in chemistry papers
Good! But without the algorithms to do something with them, the functionals or basis sets would not do anything.
Hence, in our opinion, the algorithm design and method developments papers are equally worthy of getting cited

  1. Neese,F.
     An improvement of the resolution of the identity approximation for the formation of the Coulomb matrix
     J. Comp. Chem., 2003 24(14)1740-1747
     doi.org/10.1002/jcc.10318
  2. Neese,F.
     The SHARK Integral Generation and Digestion System
     J. Comp. Chem., 2022  1-16
     doi.org/10.1002/jcc.26942
  3. Caldeweyher,E.; Bannwarth,C.; Grimme,S.
     Extension of the D3 dispersion coefficient model
     J. Chem. Phys., 2017 147 034112-XXXX
     doi.org/10.1063/1.4993215
  4. Caldeweyher,E.; Ehlert,S.; Hansen,A.; Neugebauer,H.; Spicher,S.; Bannwarth,C.; Grimme,S.
     A generally applicable atomic-charge dependent London dispersion correction
     J. Chem. Phys., 2019 150 154122-XXXX
     doi.org/10.1063/1.5090222
  5. Caldeweyher,E.; Mewes,J.; Ehlert,S.; Grimme,S.
     Extension and evaluation of the D4 London-dispersion model for periodic systems
     Phys. Chem. Chem. Phys., 2020 22(16)8499-8512
     doi.org/10.1039/D0CP00502A

List of suggested additional citations. These are papers that are important in the 'surrounding' of 
of this run, or papers that preceded the highly important papers. If you like your results we are grateful for a citation.

  1. Neese,F.
     The ORCA program system
     WIRES Comput. Molec. Sci., 2012 2(1)73-78
     doi.org/10.1002/wcms.81
  2. Neese,F.
     Software update: the ORCA program system, version 4.0
     WIRES Comput. Molec. Sci., 2018 8(1)1-6
     doi.org/10.1002/wcms.1327
  3. Neese,F.; Wennmohs,F.; Becker,U.; Riplinger,C.
     The ORCA quantum chemistry program package
     J. Chem. Phys., 2020 152 Art. No. L224108
     doi.org/10.1063/5.0004608

List of optional additional citations

  1. Neese,F.
     Approximate second-order SCF convergence for spin unrestricted wavefunctions
     Chem. Phys. Lett., 2000 325(1-3)93-98
     doi.org/10.1016/s0009-2614(00)00662-x

Timings for individual modules:

Sum of individual times          ...        8.748 sec (=   0.146 min)
Startup calculation              ...        0.770 sec (=   0.013 min)   8.8 %
SCF iterations                   ...        7.883 sec (=   0.131 min)  90.1 %
Property calculations            ...        0.095 sec (=   0.002 min)   1.1 %
                             ****ORCA TERMINATED NORMALLY****
TOTAL RUN TIME: 0 days 0 hours 0 minutes 9 seconds 495 msec
