      -----------------------------------------------------------      
     |                   =====================                   |     
     |                           x T B                           |     
     |                   =====================                   |     
     |                         S. Grimme                         |     
     |          Mulliken Center for Theoretical Chemistry        |     
     |                    University of Bonn                     |     
      -----------------------------------------------------------      

   * xtb version 6.7.1 (edcfbbe) compiled by 'albert@albert-system' on 2024-07-22

   xtb is free software: you can redistribute it and/or modify it under
   the terms of the GNU Lesser General Public License as published by
   the Free Software Foundation, either version 3 of the License, or
   (at your option) any later version.
   
   xtb is distributed in the hope that it will be useful,
   but WITHOUT ANY WARRANTY; without even the implied warranty of
   MERCHANTABILITY or FITNESS FOR A PARTICULAR PURPOSE.  See the
   GNU Lesser General Public License for more details.
   
   Cite this work as:
   * C. Bannwarth, E. Caldeweyher, S. Ehlert, A. Hansen, P. Pracht,
     J. Seibert, S. Spicher, S. Grimme, WIREs Comput. Mol. Sci., 2020, 11,
     e01493. DOI: 10.1002/wcms.1493
   
   for GFN2-xTB:
   * C. Bannwarth, S. Ehlert and S. Grimme., J. Chem. Theory Comput., 2019,
     15, 1652-1671. DOI: 10.1021/acs.jctc.8b01176
   for GFN1-xTB:
   * S. Grimme, C. Bannwarth, P. Shushkov, J. Chem. Theory Comput., 2017,
     13, 1989-2009. DOI: 10.1021/acs.jctc.7b00118
   for GFN0-xTB:
   * P. Pracht, E. Caldeweyher, S. Ehlert, S. Grimme, ChemRxiv, 2019, preprint.
     DOI: 10.26434/chemrxiv.8326202.v1
   for GFN-FF:
   * S. Spicher and S. Grimme, Angew. Chem. Int. Ed., 2020, 59, 15665-15673.
     DOI: 10.1002/anie.202004239
   
   for ALPB and GBSA implicit solvation:
   * S. Ehlert, M. Stahn, S. Spicher, S. Grimme, J. Chem. Theory Comput.,
     2021, 17, 4250-4261. DOI: 10.1021/acs.jctc.1c00471
   
   for ddCOSMO and CPCM-X implicit solvation:
   * M. Stahn, S. Ehlert, S. Grimme, J. Phys. Chem. A,
     2023, XX, XXXX-XXXX. DOI: 10.1021/acs.jpca.3c04382
   
   for DFT-D4:
   * E. Caldeweyher, C. Bannwarth and S. Grimme, J. Chem. Phys., 2017,
     147, 034112. DOI: 10.1063/1.4993215
   * E. Caldeweyher, S. Ehlert, A. Hansen, H. Neugebauer, S. Spicher,
     C. Bannwarth and S. Grimme, J. Chem. Phys., 2019, 150, 154122.
     DOI: 10.1063/1.5090222
   * E. Caldeweyher, J.-M. Mewes, S. Ehlert and S. Grimme, Phys. Chem. Chem. Phys.
     2020, 22, 8499-8512. DOI: 10.1039/D0CP00502A
   
   for sTDA-xTB:
   * S. Grimme and C. Bannwarth, J. Chem. Phys., 2016, 145, 054103.
     DOI: 10.1063/1.4959605
   
   in the mass-spec context:
   * V. Asgeirsson, C. Bauer and S. Grimme, Chem. Sci., 2017, 8, 4879.
     DOI: 10.1039/c7sc00601b
   * J. Koopman and S. Grimme, ACS Omega 2019, 4, 12, 15120-15133.
     DOI: 10.1021/acsomega.9b02011
   
   for metadynamics refer to:
   * S. Grimme, J. Chem. Theory Comput., 2019, 155, 2847-2862
     DOI: 10.1021/acs.jctc.9b00143
   
   for SPH calculations refer to:
   * S. Spicher and S. Grimme, J. Chem. Theory Comput., 2021, 17, 1701-1714
     DOI: 10.1021/acs.jctc.0c01306
   
   for ONIOM refer to:
   * C. Plett, A. Katbashev, S. Ehlert, S. Grimme, M. Bursch,
     Phys. Chem. Chem. Phys., 2023, 25, 17860-17868. DOI: 10.1039/D3CP02178E
   
   for DIPRO refer to:
   * J. Kohn, N. Gildemeister, S. Grimme, D. Fazzi, A. Hansen,
     J. Chem. Phys., 2023, just accepted.
   
   for PTB refer to:
   * S. Grimme, M. Mueller, A. Hansen, J. Chem. Phys., 2023, 158, 124111.
     DOI: 10.1063/5.0137838
   
   with help from (in alphabetical order)
   P. Atkinson, C. Bannwarth, F. Bohle, G. Brandenburg, E. Caldeweyher
   M. Checinski, S. Dohm, S. Ehlert, S. Ehrlich, I. Gerasimov, C. Hölzer
   A. Katbashev, J. Kohn, J. Koopman, C. Lavigne, S. Lehtola, F. März, M. Müller,
   F. Musil, H. Neugebauer, J. Pisarek, C. Plett, P. Pracht, F. Pultar,
   J. Seibert, P. Shushkov, S. Spicher, M. Stahn, M. Steiner, T. Strunk,
   J. Stückrath, T. Rose, and J. Unsleber
   
 * started run on 2025/04/11 at 12:50:02.016     
   ID    Z sym.   atoms
    1    6 C      1-3, 5-7
    2   16 S      4
    3    1 H      8-21

           -------------------------------------------------
          |                Calculation Setup                |
           -------------------------------------------------

          program call               : /srv/scratch/z5358697/.xtb/bin/xtb xtb_opt.coord --opt normal --orca -I xtb_opt-xcontrol-inp
          hostname                   : k075
          coordinate file            : xtb_opt.coord
          omp threads                :                     7

           -------------------------------------------------
          |                   Orca driver                   |
           -------------------------------------------------
orca executable           : /apps/z_install_tree/linux-rocky8-ivybridge/gcc-12.2.0/orca-6.0.0-srtngmq3qlimg2qxbl6avaaiffipurdx/bin/orca
orca input file           : xtb_opt.inp
orca input line           : 
orca parallel             : true
orca number of threads    : 7
                         * ORCA takes the control...
  ------------------------------------------------------------------------

                                 *****************
                                 * O   R   C   A *
                                 *****************

                                            #,                                       
                                            ###                                      
                                            ####                                     
                                            #####                                    
                                            ######                                   
                                           ########,                                 
                                     ,,################,,,,,                         
                               ,,#################################,,                 
                          ,,##########################################,,             
                       ,#########################################, ''#####,          
                    ,#############################################,,   '####,        
                  ,##################################################,,,,####,       
                ,###########''''           ''''###############################       
              ,#####''   ,,,,##########,,,,          '''####'''          '####       
            ,##' ,,,,###########################,,,                        '##       
           ' ,,###''''                  '''############,,,                           
         ,,##''                                '''############,,,,        ,,,,,,###''
      ,#''                                            '''#######################'''  
     '                                                          ''''####''''         
             ,#######,   #######,   ,#######,      ##                                
            ,#'     '#,  ##    ##  ,#'     '#,    #''#        ,####,   ,####,        
            ##       ##  ##   ,#'  ##            #'  '#       #'       #'  '#        
            ##       ##  #######   ##           ,######,      #####,   #    #        
            '#,     ,#'  ##    ##  '#,     ,#' ,#      #,     #,   #   #,  ,#        
             '#######'   ##     ##  '#######'  #'      '#     '####' # '####'        



                #########################################################
                #                        -***-                          #
                #          Department of theory and spectroscopy        #
                #                                                       #
                #                      Frank Neese                      #
                #                                                       #
                #     Directorship, Architecture, Infrastructure        #
                #                    SHARK, DRIVERS                     #
                #        Core code/Algorithms in most modules           #
                #                                                       #
                #        Max Planck Institute fuer Kohlenforschung      #
                #                Kaiser Wilhelm Platz 1                 #
                #                 D-45470 Muelheim/Ruhr                 #
                #                      Germany                          #
                #                                                       #
                #                  All rights reserved                  #
                #                        -***-                          #
                #########################################################


                         Program Version 6.0.0  -   RELEASE  -


 With contributions from (in alphabetic order):
   Daniel Aravena         : Magnetic Suceptibility
   Michael Atanasov       : Ab Initio Ligand Field Theory (pilot matlab implementation)
   Alexander A. Auer      : GIAO ZORA, VPT2 properties, NMR spectrum
   Ute Becker             : All parallelization in ORCA, NUMFREQ, NUMCALC
   Giovanni Bistoni       : ED, misc. LED, open-shell LED, HFLD
   Martin Brehm           : Molecular dynamics
   Dmytro Bykov           : pre 5.0 version of the SCF Hessian
   Marcos Casanova-Páez   : Triplet and SCS-CIS(D). UHF-(DLPNO)-IP/EA/STEOM-CCSD. UHF-CVS-IP/STEOM-CCSD
   Vijay G. Chilkuri      : MRCI spin determinant printing, contributions to CSF-ICE
   Pauline Colinet        : FMM embedding
   Dipayan Datta          : RHF DLPNO-CCSD density
   Achintya Kumar Dutta   : EOM-CC, STEOM-CC
   Nicolas Foglia         : Exact transition moments, OPA infrastructure, MCD improvements
   Dmitry Ganyushin       : Spin-Orbit,Spin-Spin,Magnetic field MRCI
   Miquel Garcia          : C-PCM and meta-GGA Hessian, CCSD/C-PCM, Gaussian charge scheme
   Tiago L. C. Gouveia    : GS-ROHF, GS-ROCIS
   Yang Guo               : DLPNO-NEVPT2, F12-NEVPT2, CIM, IAO-localization
   Andreas Hansen         : Spin unrestricted coupled pair/coupled cluster methods
   Ingolf Harden          : AUTO-CI MPn and infrastructure 
   Benjamin Helmich-Paris : MC-RPA, TRAH-(SCF,CASSCF), AVAS, COSX integrals, SCF dyn. polar.
   Lee Huntington         : MR-EOM, pCC
   Robert Izsak           : Overlap fitted RIJCOSX, COSX-SCS-MP3, EOM
   Riya Kayal             : Wick's Theorem for AUTO-CI, AUTO-CI UHF-CCSDT
   Emily Kempfer          : AUTO-CI, RHF CISDT and CCSDT
   Christian Kollmar      : KDIIS, OOCD, Brueckner-CCSD(T), CCSD density, CASPT2, CASPT2-K, improved NEVPT2
   Axel Koslowski         : Symmetry handling
   Simone Kossmann        : Meta GGA functionals, TD-DFT gradient, OOMP2, (MP2 Hessian; deprecated post 5.0)
   Lucas Lang             : DCDCAS
   Marvin Lechner         : AUTO-CI (C++ implementation), FIC-MRCC
   Spencer Leger          : CASSCF response
   Dagmar Lenk            : GEPOL surface, SMD, ORCA-2-JSON
   Dimitrios Liakos       : Extrapolation schemes; Compound Job, initial MDCI parallelization
   Dimitrios Manganas     : Further ROCIS development; embedding schemes. LFT, Crystal Embedding
   Dimitrios Pantazis     : SARC Basis sets
   Anastasios Papadopoulos: AUTO-CI, single reference methods and gradients
   Taras Petrenko         : pre 6.0 DFT Hessian and TD-DFT gradient, (ASA, deprecated), ECA, 1-Electron XAS/XES, NRVS
   Peter Pinski           : DLPNO-MP2, DLPNO-MP2 Gradient
   Christoph Reimann      : Effective Core Potentials
   Marius Retegan         : Local ZFS, SOC
   Christoph Riplinger    : Optimizer, TS searches, QM/MM, DLPNO-CCSD(T), (RO)-DLPNO pert. Triples
   Michael Roemelt        : Original ROCIS implementation
   Masaaki Saitow         : Open-shell DLPNO-CCSD energy and density
   Barbara Sandhoefer     : DKH picture change effects
   Kantharuban Sivalingam : CASSCF convergence/infrastructure, NEVPT2 and variants, FIC-MRCI
   Bernardo de Souza      : ESD, SOC TD-DFT
   Georgi Stoychev        : AutoAux, RI-MP2 NMR, DLPNO-MP2 response, X2C
   Van Anh Tran           : RI-MP2 g-tensors
   Willem Van den Heuvel  : Paramagnetic NMR
   Zikuan Wang            : NOTCH, Electric field optimization 
   Frank Wennmohs         : Technical directorship and infrastructure
   Hang Xu                : AUTO-CI-Response properties 


 We gratefully acknowledge several colleagues who have allowed us to
 interface, adapt or use parts of their codes:
   Stefan Grimme, W. Hujo, H. Kruse, P. Pracht,  : VdW corrections, initial TS optimization,
                  C. Bannwarth, S. Ehlert,         DFT functionals, gCP, sTDA/sTD-DF
                  L. Wittmann, M. Mueller
   Ed Valeev, F. Pavosevic, A. Kumar             : LibInt (2-el integral package), F12 methods
   Garnet Chan, S. Sharma, J. Yang, R. Olivares  : DMRG
   Ulf Ekstrom                                   : XCFun DFT Library
   Mihaly Kallay                                 : mrcc  (arbitrary order and MRCC methods)
   Frank Weinhold                                : gennbo (NPA and NBO analysis)
   Simon Mueller                                 : openCOSMO-RS
   Christopher J. Cramer and Donald G. Truhlar   : smd solvation model
   Lars Goerigk                                  : TD-DFT with DH, B97 family of functionals
   V. Asgeirsson, H. Jonsson                     : NEB implementation
   FAccTs GmbH                                   : IRC, NEB, NEB-TS, DLPNO-Multilevel, CI-OPT
                                                   MM, QMMM, 2- and 3-layer-ONIOM, Crystal-QMMM,
                                                   LR-CPCM, SF, NACMEs, symmetry and pop. for TD-DFT,
                                                   nearIR, NL-DFT gradient (VV10), updates on ESD,
                                                   ML-optimized integration grids, MBIS, APM,
                                                   GOAT, DOCKER, SOLVATOR, interface openCOSMO-RS
   S Lehtola, MJT Oliveira, MAL Marques          : LibXC Library
   Liviu Ungur et al                             : ANISO software


 Your calculation uses the libint2 library for the computation of 2-el integrals
 For citations please refer to: http://libint.valeyev.net

 Your ORCA version has been built with support for libXC version: 6.2.2
 For citations please refer to: https://libxc.gitlab.io

 This ORCA versions uses:
   CBLAS   interface :  Fast vector & matrix operations
   LAPACKE interface :  Fast linear algebra routines
   SCALAPACK package :  Parallel linear algebra routines
   Shared memory     :  Shared parallel matrices
   BLAS/LAPACK       :  OpenBLAS 0.3.27  USE64BITINT DYNAMIC_ARCH NO_AFFINITY SkylakeX SINGLE_THREADED
        Core in use  :  SkylakeX
   Copyright (c) 2011-2014, The OpenBLAS Project




***************************************
The coordinates will be read from file: xtb_opt.xyz
***************************************


Your calculation utilizes the geometrical counterpoise correction gCP
Please cite in your paper:
H.Kruse, S. Grimme J.Chem.Phys., 136, (2012), 154101 
   

Your calculation utilizes the atom-pairwise dispersion correction
based on EEQ partial charges (D4)


Your calculation utilizes the SMD solvation module
Please cite in your paper:
A.V. Marenich, C.J. Cramer, D.G. Truhlar J. Phys. Chem. B, 113, (2009), 6378 

================================================================================

----- Orbital basis set information -----
Your calculation utilizes the basis: def2-mTZVPP
   Stefan Grimme, Andreas Hansen, Sebastian Ehlert, and Jan-Michael Mewes 
   J. Chem. Phys. 154, 064103 (2021). DOI: 10.1063/5.0040021

----- AuxJ basis set information -----
Your calculation utilizes the auxiliary basis: def2/J
   F. Weigend, Phys. Chem. Chem. Phys. 8, 1057 (2006).

================================================================================
                                        WARNINGS
                       Please study these warnings very carefully!
================================================================================

WARNING: Old DensityContainer found on disk!
         Will remove this file - 
         If you want to keep old densities, please start your calculation with a different basename. 

Using LibXC functional ID 497 : Re-regularized SCAN exchange by Furness et al
[ 1]  J. W. Furness, A. D. Kaplan, J. Ning, J. P. Perdew, and J. Sun.,  J. Phys. Chem. Lett. 11, 8208-8215 (2020)
[ 2]  J. W. Furness, A. D. Kaplan, J. Ning, J. P. Perdew, and J. Sun.,  J. Phys. Chem. Lett. 11, 9248-9248 (2020)
Using LibXC functional ID 498 : Re-regularized SCAN correlation by Furness et al
[ 1]  J. W. Furness, A. D. Kaplan, J. Ning, J. P. Perdew, and J. Sun.,  J. Phys. Chem. Lett. 11, 8208-8215 (2020)
[ 2]  J. W. Furness, A. D. Kaplan, J. Ning, J. P. Perdew, and J. Sun.,  J. Phys. Chem. Lett. 11, 9248-9248 (2020)
Using LibXC functional ID 497 : Re-regularized SCAN exchange by Furness et al
[ 1]  J. W. Furness, A. D. Kaplan, J. Ning, J. P. Perdew, and J. Sun.,  J. Phys. Chem. Lett. 11, 8208-8215 (2020)
[ 2]  J. W. Furness, A. D. Kaplan, J. Ning, J. P. Perdew, and J. Sun.,  J. Phys. Chem. Lett. 11, 9248-9248 (2020)
Using LibXC functional ID 498 : Re-regularized SCAN correlation by Furness et al
[ 1]  J. W. Furness, A. D. Kaplan, J. Ning, J. P. Perdew, and J. Sun.,  J. Phys. Chem. Lett. 11, 8208-8215 (2020)
[ 2]  J. W. Furness, A. D. Kaplan, J. Ning, J. P. Perdew, and J. Sun.,  J. Phys. Chem. Lett. 11, 9248-9248 (2020)

================================================================================
                                       INPUT FILE
================================================================================
NAME = xtb_opt.inp
|  1> ! r2scan-3c def2/J RI DEFGRID2 scfconv7 ENGRAD tightSCF miniprint
|  2> %cpcm
|  3>     smd true
|  4>     smdsolvent "water"
|  5> end
|  6> * xyzfile 0 1 xtb_opt.xyz
|  7> 
|  8>                          ****END OF INPUT****
================================================================================

                     *******************************
                     * Energy+Gradient Calculation *
                     *******************************

---------------------------------
CARTESIAN COORDINATES (ANGSTROEM)
---------------------------------
  C      2.538046    0.886926   -0.765912
  C      1.403601   -0.103527   -0.520140
  C      1.865988   -1.273706    0.339692
  S      0.011309    0.832191    0.272074
  C     -1.420443   -0.333978    0.071122
  C     -2.530881    0.144367    1.002385
  C     -1.896708   -0.407702   -1.373490
  H      2.230758    1.702352   -1.429096
  H      2.890662    1.320564    0.178214
  H      3.382133    0.365256   -1.228790
  H      1.034420   -0.473387   -1.484588
  H      1.056675   -1.979284    0.549355
  H      2.266530   -0.913700    1.294377
  H      2.659500   -1.823214   -0.181772
  H     -1.073367   -1.320914    0.400064
  H     -2.864760    1.153454    0.729679
  H     -3.393130   -0.527079    0.918919
  H     -2.207126    0.157995    2.048562
  H     -2.718894   -1.128618   -1.454465
  H     -1.104458   -0.732891   -2.054263
  H     -2.263214    0.568391   -1.708801

----------------------------
CARTESIAN COORDINATES (A.U.)
----------------------------
  NO LB      ZA    FRAG     MASS         X           Y           Z
   0 C     6.0000    0    12.011    4.796212    1.676047   -1.447363
   1 C     6.0000    0    12.011    2.652422   -0.195637   -0.982922
   2 C     6.0000    0    12.011    3.526205   -2.406955    0.641925
   3 S    16.0000    0    32.060    0.021371    1.572613    0.514145
   4 C     6.0000    0    12.011   -2.684247   -0.631127    0.134402
   5 C     6.0000    0    12.011   -4.782672    0.272814    1.894233
   6 C     6.0000    0    12.011   -3.584258   -0.770445   -2.595519
   7 H     1.0000    0     1.008    4.215521    3.216980   -2.700600
   8 H     1.0000    0     1.008    5.462559    2.495504    0.336775
   9 H     1.0000    0     1.008    6.391305    0.690234   -2.322076
  10 H     1.0000    0     1.008    1.954770   -0.894572   -2.805464
  11 H     1.0000    0     1.008    1.996827   -3.740304    1.038131
  12 H     1.0000    0     1.008    4.283120   -1.726642    2.446019
  13 H     1.0000    0     1.008    5.025727   -3.445376   -0.343500
  14 H     1.0000    0     1.008   -2.028370   -2.496166    0.756012
  15 H     1.0000    0     1.008   -5.413613    2.179712    1.378894
  16 H     1.0000    0     1.008   -6.412087   -0.996034    1.736505
  17 H     1.0000    0     1.008   -4.170864    0.298567    3.871222
  18 H     1.0000    0     1.008   -5.137965   -2.132780   -2.748541
  19 H     1.0000    0     1.008   -2.087123   -1.384963   -3.881995
  20 H     1.0000    0     1.008   -4.276855    1.074103   -3.229165

------------------------------------------------------------------------------
                   ___                                                        
                  /   \      - P O W E R E D   B Y -                         
                 /     \                                                     
                 |  |  |   _    _      __       _____    __    __             
                 |  |  |  | |  | |    /  \     |  _  \  |  |  /  |          
                  \  \/   | |  | |   /    \    | | | |  |  | /  /          
                 / \  \   | |__| |  /  /\  \   | |_| |  |  |/  /          
                |  |  |   |  __  | /  /__\  \  |    /   |      \           
                |  |  |   | |  | | |   __   |  |    \   |  |\   \          
                \     /   | |  | | |  |  |  |  | |\  \  |  | \   \       
                 \___/    |_|  |_| |__|  |__|  |_| \__\ |__|  \__/        
                                                                              
                      - O R C A' S   B I G   F R I E N D -                    
                                      &                                       
                       - I N T E G R A L  F E E D E R -                       
                                                                              
 v1 FN, 2020, v2 2021, v3 2022-2024                                           
------------------------------------------------------------------------------


----------------------
SHARK INTEGRAL PACKAGE
----------------------

Number of atoms                             ...     21
Number of basis functions                   ...    211
Number of shells                            ...    107
Maximum angular momentum                    ...      2
Integral batch strategy                     ... SHARK/LIBINT Hybrid
RI-J (if used) integral strategy            ... SPLIT-RIJ (Revised 2003 algorithm where possible)
Printlevel                                  ...      1
Contraction scheme used                     ... SEGMENTED contraction
Prescreening option                         ... SCHWARTZ
   Thresh                                   ... 3.000e-11
   Tcut                                     ... 1.000e-12
   Tpresel                                  ... 1.000e-12 
Coulomb Range Separation                    ... NOT USED
Exchange Range Separation                   ... NOT USED
Multipole approximations                    ... NOT USED
Finite Nucleus Model                        ... NOT USED
CABS basis                                  ... NOT available
Auxiliary Coulomb fitting basis             ... AVAILABLE
   # of basis functions in Aux-J            ...    499
   # of shells in Aux-J                     ...    177
   Maximum angular momentum in Aux-J        ...      4
Auxiliary J/K fitting basis                 ... NOT available
Auxiliary Correlation fitting basis         ... NOT available
Auxiliary 'external' fitting basis          ... NOT available

Checking pre-screening integrals            ... done (  0.0 sec) Dimension = 107
Check shell pair data                       ... done (  0.0 sec)
Shell pair information
Shell pair cut-off parameter TPreSel        ...   1.0e-12
Total number of shell pairs                 ...      5778
Shell pairs after pre-screening             ...      5144
Total number of primitive shell pairs       ...     20920
Primitive shell pairs kept                  ...     13234
          la=0 lb=0:   1790 shell pairs
          la=1 lb=0:   2012 shell pairs
          la=1 lb=1:    590 shell pairs
          la=2 lb=0:    455 shell pairs
          la=2 lb=1:    262 shell pairs
          la=2 lb=2:     35 shell pairs

Calculating one electron integrals          ... done (  0.0 sec)
Calculating RI/J V-Matrix + Cholesky decomp.... done (  0.1 sec)
Calculating Nuclear repulsion               ... done (  0.0 sec) ENN=    396.309142467165 Eh

Diagonalization of the overlap matrix:
Smallest eigenvalue                        ... 3.200e-04
Time for diagonalization                   ...    0.004 sec
Threshold for overlap eigenvalues          ... 1.000e-07
Number of eigenvalues below threshold      ... 0
Time for construction of square roots      ...    0.016 sec
Total time needed                          ...    0.030 sec

-------------------
DFT GRID GENERATION
-------------------

General Integration Accuracy     IntAcc      ... 4.388
Radial Grid Type                 RadialGrid  ... OptM3 with GC (2021)
Angular Grid (max. ang.)         AngularGrid ... 4 (Lebedev-302)
Angular grid pruning method      GridPruning ... 4 (adaptive)
Weight generation scheme         WeightScheme... mBecke (2022)
Basis function cutoff            BFCut       ... 1.0000e-11
Integration weight cutoff        WCut        ... 1.0000e-14
Partially contracted basis set               ... off
Rotationally invariant grid construction     ... off
Angular grids for H and He will be reduced by one unit

Total number of grid points                  ...    88212
Total number of batches                      ...     1388
Average number of points per batch           ...       63
Average number of grid points per atom       ...     4201
Initializing property integral containers    ... done (  0.0 sec)

SHARK setup successfully completed in   1.2 seconds

Maximum memory used throughout the entire STARTUP-calculation: 39.4 MB
Occupation numbers will be reassigned to an Aufbau configuration
             **** ENERGY FILE WAS UPDATED (xtb_opt.en.tmp) ****
Finished Guess after   0.3 sec
Maximum memory used throughout the entire GUESS-calculation: 14.4 MB
--------------------
CPCM SOLVATION MODEL
--------------------
CPCM parameters:
  Epsilon                                         ...      78.3550
  Refrac                                          ...       1.3328
  Rsolv                                           ...       1.3000
  Surface type                                    ... GAUSSIAN VDW
  Discretization scheme                           ... Constant charge density
    Threshold for H atoms                         ...       5.0000 (charges/Ang^2)
    Threshold for non-H atoms                     ...       5.0000 (charges/Ang^2)
  Epsilon function type                           ...         CPCM
Solvent:                                          ... WATER
SMD-CDS solvent descriptors:
  Soln                                            ...       1.3328
  Soln25                                          ...       1.3323
  Sola                                            ...       0.0000
  Solb                                            ...       0.0000
  Solg                                            ...       0.0000
  Solc                                            ...       0.0000
  Solh                                            ...       0.0000
Radii:
  Scheme                                          ... Element-dependent radii
  Radius for C  used is    3.4960 Bohr (=   1.8500 Ang.)
  Radius for S  used is    4.7054 Bohr (=   2.4900 Ang.)
  Radius for H  used is    2.2677 Bohr (=   1.2000 Ang.)
Calculating surface                               ...        done! (  0.0s)
Cavity surface points                             ...         1625
Cavity Volume                                     ...    1062.9177
Cavity Surface-area                               ...     627.1214
Calculating surface distance matrix               ...        done! (  0.0s)
Performing Cholesky decomposition & store         ...        done! (  0.1s)
Overall time for CPCM initialization              ...                 0.1s

----------------------------------------D-I-I-S--------------------------------------------
Iteration    Energy (Eh)           Delta-E    RMSDP     MaxDP     DIISErr   Damp  Time(sec)
-------------------------------------------------------------------------------------------
               ***  Starting incremental Fock matrix formation  ***
                              *** Initializing SOSCF ***
---------------------------------------S-O-S-C-F--------------------------------------
Iteration    Energy (Eh)           Delta-E    RMSDP     MaxDP     MaxGrad    Time(sec)
--------------------------------------------------------------------------------------
    1    -635.1734289158209776     0.00e+00  9.54e-07  3.00e-05  2.99e-06     3.1
               *** Restarting incremental Fock matrix formation ***
    2    -635.1734289182343218    -2.41e-09  9.85e-07  3.08e-05  7.35e-06     3.0
                  *** Gradient check signals convergence ***

               *****************************************************
               *                     SUCCESS                       *
               *           SCF CONVERGED AFTER   2 CYCLES          *
               *****************************************************


SMD CDS free energy correction energy :                 3.77842     Kcal/mol
Total Energy after SMD CDS correction =              -635.167407629 Eh
             **** ENERGY FILE WAS UPDATED (xtb_opt.en.tmp) ****

----------------
TOTAL SCF ENERGY
----------------

Total Energy       :       -635.16740762874747 Eh          -17283.78385 eV

Components:
Nuclear Repulsion  :        396.30914246716515 Eh           10784.12002 eV
Electronic Energy  :      -1031.47419769919452 Eh          -28067.83986 eV
One Electron Energy:      -1654.77803725755552 Eh          -45028.79961 eV
Two Electron Energy:        623.30383955836089 Eh           16960.95975 eV
CPCM Dielectric    :         -0.00837368620505 Eh              -0.22786 eV
SMD CDS (Gcds)     :          0.00602128948681 Eh               0.16385 eV

Virial components:
Potential Energy   :      -1267.95257123800911 Eh          -34502.74355 eV
Kinetic Energy     :        632.78516360926164 Eh           17218.95970 eV
Virial Ratio       :          2.00376469638747

DFT components:
N(Alpha)           :       33.000062705131 electrons
N(Beta)            :       33.000062705131 electrons
N(Total)           :       66.000125410262 electrons
E(X)               :      -61.185982645104 Eh       
E(C)               :       -2.150700816925 Eh       
E(XC)              :      -63.336683462029 Eh       

CPCM Solvation Model Properties:
Surface-charge          :         -0.04410296878382
Corrected charge        :          0.00000000000000
Outlying charge corr.   :          0.00014253889294 Eh               0.00388 eV
Free-energy (cav+disp)  :          0.00602128948681 Eh               0.16385 eV

---------------
SCF CONVERGENCE
---------------

  Last Energy change         ...    2.4133e-09  Tolerance :   1.0000e-07
  Last MAX-Density change    ...    3.0764e-05  Tolerance :   1.0000e-07
  Last RMS-Density change    ...    9.8519e-07  Tolerance :   5.0000e-09
  Last DIIS Error            ...    3.9916e-05  Tolerance :   1.0000e-07
  Last Orbital Gradient      ...    7.3493e-06  Tolerance :   1.0000e-04
  Last Orbital Rotation      ...    1.2289e-05  Tolerance :   1.0000e-04


----------------
ORBITAL ENERGIES
----------------

  NO   OCC          E(Eh)            E(eV) 
   0   2.0000     -88.536648     -2409.2047 
   1   2.0000     -10.060972      -273.7730 
   2   2.0000     -10.060797      -273.7682 
   3   2.0000     -10.018738      -272.6237 
   4   2.0000     -10.018557      -272.6188 
   5   2.0000     -10.015381      -272.5324 
   6   2.0000     -10.015258      -272.5290 
   7   2.0000      -7.830471      -213.0779 
   8   2.0000      -5.777695      -157.2191 
   9   2.0000      -5.774253      -157.1254 
  10   2.0000      -5.767492      -156.9414 
  11   2.0000      -0.783271       -21.3139 
  12   2.0000      -0.749816       -20.4035 
  13   2.0000      -0.647451       -17.6181 
  14   2.0000      -0.646918       -17.6035 
  15   2.0000      -0.642890       -17.4939 
  16   2.0000      -0.543870       -14.7995 
  17   2.0000      -0.509121       -13.8539 
  18   2.0000      -0.436002       -11.8642 
  19   2.0000      -0.420317       -11.4374 
  20   2.0000      -0.402517       -10.9530 
  21   2.0000      -0.379798       -10.3348 
  22   2.0000      -0.370603       -10.0846 
  23   2.0000      -0.369299       -10.0491 
  24   2.0000      -0.347875        -9.4662 
  25   2.0000      -0.347703        -9.4615 
  26   2.0000      -0.314610        -8.5610 
  27   2.0000      -0.312545        -8.5048 
  28   2.0000      -0.311258        -8.4698 
  29   2.0000      -0.306270        -8.3340 
  30   2.0000      -0.283534        -7.7154 
  31   2.0000      -0.262464        -7.1420 
  32   2.0000      -0.190238        -5.1766 
  33   0.0000       0.017529         0.4770 
  34   0.0000       0.056090         1.5263 
  35   0.0000       0.085585         2.3289 
  36   0.0000       0.121211         3.2983 
  37   0.0000       0.124313         3.3827 
  38   0.0000       0.133865         3.6426 
  39   0.0000       0.135097         3.6762 
  40   0.0000       0.147156         4.0043 
  41   0.0000       0.147474         4.0130 
  42   0.0000       0.155537         4.2324 
  43   0.0000       0.159929         4.3519 
*Only the first 10 virtual orbitals were printed.
Total SCF time: 0 days 0 hours 0 min 6 sec 
Finished LeanSCF after   6.8 sec

Maximum memory used throughout the entire LEANSCF-calculation: 32.9 MB


-------------------------------------------------------------------------------
                          DFT DISPERSION CORRECTION                            
                                                                               
                                DFTD4 V3.4.0                                   
-------------------------------------------------------------------------------
-------------------------   ----------------
Dispersion correction           -0.006062724
-------------------------   ----------------

------------------   -----------------
gCP correction             0.012681971
------------------   -----------------

-------------------------   --------------------
FINAL SINGLE POINT ENERGY      -635.160788382544
-------------------------   --------------------

------------------------------------------------------------------------------
                         ORCA SCF GRADIENT CALCULATION
------------------------------------------------------------------------------

Nuc. rep. gradient        (SHARK) ... done (  0.0 sec)
HCore & Overlap gradient  (SHARK) ... done (  0.3 sec)
Split-RIJ-J gradient      (SHARK) ... done (  1.4 sec)
XC gradient                       ... done (  5.9 sec)
CPCM gradient                     ... done (  0.9 sec)
SMD gradient                      ... done (  0.0 sec)
Dispersion correction             ... done (  0.0 sec)

-------------------
DISPERSION GRADIENT
-------------------

   1   C   :    0.000085494    0.000044932   -0.000021928
   2   C   :    0.000074370   -0.000001495   -0.000014713
   3   C   :    0.000078899   -0.000061140    0.000029886
   4   S   :    0.000001336    0.000076413    0.000036252
   5   C   :   -0.000074645   -0.000010223    0.000009272
   6   C   :   -0.000084455    0.000014253    0.000049648
   7   C   :   -0.000080018   -0.000014080   -0.000065285
   8   H   :    0.000030205    0.000029100   -0.000016325
   9   H   :    0.000027551    0.000020699   -0.000001878
  10   H   :    0.000032425    0.000010775   -0.000014431
  11   H   :    0.000028852   -0.000001048   -0.000014129
  12   H   :    0.000032636   -0.000040456    0.000017463
  13   H   :    0.000030842   -0.000019219    0.000019542
  14   H   :    0.000031509   -0.000030837    0.000004891
  15   H   :   -0.000029115   -0.000010749    0.000008627
  16   H   :   -0.000027078    0.000012505    0.000017362
  17   H   :   -0.000032340   -0.000003323    0.000018057
  18   H   :   -0.000029535    0.000007013    0.000033057
  19   H   :   -0.000032221   -0.000015002   -0.000026429
  20   H   :   -0.000033529   -0.000011774   -0.000041841
  21   H   :   -0.000031181    0.000003655   -0.000027097

Difference to translation invariance:
           :    0.0000000000    0.0000000000    0.0000000000

Difference to rotation invariance:
           :    0.0000000000   -0.0000000000    0.0000000000

Norm of the Dispersion gradient    ...    0.0002908943
RMS gradient                       ...    0.0000366492
MAX gradient                       ...    0.0000854938
gCP correction                   ... done

------------------
CARTESIAN GRADIENT
------------------

   1   C   :    0.000486677   -0.000651244   -0.000475572
   2   C   :   -0.000276249    0.000385703    0.000388496
   3   C   :    0.000096696   -0.000524251   -0.000162581
   4   S   :    0.000394755    0.000212012    0.000203128
   5   C   :   -0.000350012   -0.000038789   -0.000514854
   6   C   :   -0.000090875   -0.000343569   -0.000287529
   7   C   :   -0.000226329   -0.000079261   -0.000002322
   8   H   :   -0.000163012    0.000746271   -0.000500068
   9   H   :    0.000235222    0.000230803    0.000702486
  10   H   :   -0.000243641    0.000041217    0.000152812
  11   H   :   -0.000145307   -0.000343004   -0.000742337
  12   H   :   -0.000011690   -0.000201962    0.000149778
  13   H   :    0.000150393    0.000299919    0.000577766
  14   H   :    0.000014265   -0.000046131   -0.000101505
  15   H   :    0.000416677   -0.000562249    0.000172026
  16   H   :   -0.000301939    0.000854580   -0.000189568
  17   H   :   -0.000335178   -0.000277976    0.000140268
  18   H   :    0.000171335    0.000105905    0.000939342
  19   H   :    0.000234286    0.000227553   -0.000125789
  20   H   :    0.000025084   -0.000161098   -0.000289335
  21   H   :   -0.000081160    0.000125574   -0.000034642

Difference to translation invariance:
           :    0.0000000000    0.0000000000    0.0000000000

Difference to rotation invariance:
           :    0.0000923005   -0.0001781127   -0.0002320278

Norm of the Cartesian gradient     ...    0.0028229362
RMS gradient                       ...    0.0003556565
MAX gradient                       ...    0.0009393418

-------
TIMINGS
-------

Total SCF gradient time     ....        9.385 sec

Densities                   ....       0.001 sec  (  0.0%)
One electron gradient       ....       0.311 sec  (  3.3%)
RI-J Coulomb gradient       ....       1.416 sec  ( 15.1%)
XC gradient                 ....       5.906 sec  ( 62.9%)
CPCM gradient               ....       0.928 sec  (  9.9%)
   A-Matrix (El+Nuc)        ....       0.085 sec  (  0.9%)
   Potential                ....       0.843 sec  (  9.0%)
SMD gradient                ....       0.015 sec  (  0.2%)

Maximum memory used throughout the entire SCFGRAD-calculation: 34.6 MB

------------------------------------------------------------------------------
                              ORCA PROPERTY CALCULATIONS
------------------------------------------------------------------------------

GBWName                                 ... xtb_opt.gbw
Number of atoms                         ...     21
Number of basis functions               ...    211
Max core memory                         ...   1024 MB

Electric properties:
Dipole moment                           ... YES
Quadrupole moment                       ...  NO
Static polarizability (Dipole/Dipole)   ...  NO
Static polarizability (Dipole/Quad.)    ...  NO
Static polarizability (Quad./Quad.)     ...  NO
Static polarizability (Velocity)        ...  NO

Atomic electric properties:
Dipole moment                           ...  NO
Quadrupole moment                       ...  NO
Static polarizability                   ...  NO

Choice of electric origin               ... Center of mass
Position of electric origin             ...    -0.003640     0.159129    -0.154983

General magnetic properties:
Magnetizability                         ...  NO

EPR properties:
g-Tensor (aka g-matrix)                 ...  NO
Zero-Field splitting spin-orbit         ...  NO
Zero-field splitting spin-spin          ...  NO
Hyperfine couplings                     ...  NO (   0 nuclei)
Quadrupole couplings                    ...  NO (   0 nuclei)
Contact density                         ...  NO (   0 nuclei)

NMR properties:
Chemical shifts                         ...  NO (   0 nuclei)
Spin-rotation constants                 ...  NO (   0 nuclei)
Spin-spin couplings                     ...  NO (   0 nuclei,    0 pairs)

Choice of magnetic origin               ... GIAO
Position of magnetic origin             ...     0.000000     0.000000     0.000000

Properties with geometric perturbations:
SCF Hessian                             ...  NO
IR spectrum                             ...  NO
VCD spectrum                            ...  NO
X-ray spectroscopy properties:
SCF XES/XAS/RIXS spectra                ...  NO


-------------
DIPOLE MOMENT
-------------

Method             : SCF
Type of density    : Electron Density
Multiplicity       :   1
Irrep              :   0
Energy             :  -635.1674076287474691 Eh
Relativity type    : 
Basis              : AO
                                X                 Y                 Z
Electronic contribution:      0.052660470       3.587371081       1.697105063
Nuclear contribution   :     -0.072909926      -4.534263936      -2.144052314
                        -----------------------------------------
Total Dipole Moment    :     -0.020249456      -0.946892855      -0.446947252
                        -----------------------------------------
Magnitude (a.u.)       :      1.047271677
Magnitude (Debye)      :      2.661953054



--------------------
Rotational spectrum 
--------------------
 
Rotational constants in cm-1:             0.120042             0.038630             0.037990 
Rotational constants in MHz :          3598.771534          1158.095050          1138.914107 

Dipole components along the rotational axes: 
x,y,z [a.u.] :     0.003643    -1.047186     0.012917 
x,y,z [Debye]:     0.009259    -2.661734     0.032832 

 

Dipole moment calculation done in   0.0 sec 

Maximum memory used throughout the entire PROP-calculation: 13.1 MB

--------------------------------
SUGGESTED CITATIONS FOR THIS RUN
--------------------------------

Below you find a list of papers that are relevant to this ORCA run
We neither can nor want to force you to cite these papers, but we appreciate if you do
You receive ORCA, which is the product of decades of hard work by many enthusiastic individuals, for free
The only thing we kindly ask in return is that you cite our papers,
We deeply appreciate it, if you show your appreciation for ORCA by not just citing the generic ORCA reference.

Please note that relegating all ORCA citations to the supporting information does *not* help us.
SI sections are not indexed - citations you put there will not count into any citation statistics
But we need these citations in order to attract the funding resources that allow us to do what we are doing

Therefore, if you are a happy ORCA user, please consider citing a few of the papers listed below in the main body of your paper

In addition to the list printed below, the program has created the file xtb_opt.bibtex that contains the list in bibtex format
You can import this file easily into all common literature databanks and citation aid programs


List of essential papers. We consider these as the minimum necessary citations

  1. Neese,F.
     Software update: the ORCA program system, version 5.0
     WIRES Comput. Molec. Sci., 2022 12(1)e1606
     doi.org/10.1002/wcms.1606
  2. Grimme,S.; Hansen,A.; Ehlert,S.; Mewes,J.
     r2SCAN-3c: A 'Swiss army knife' composite electronic-structure method
     J. Chem. Phys., 2021 154 064103
     doi.org/10.1063/5.0040021

List of papers to cite with high priority. The work reported in these papers was absolutely
necessary for this run to complete.
Our perspective: the developers of density functionals and basis sets usually get cited in chemistry papers
Good! But without the algorithms to do something with them, the functionals or basis sets would not do anything.
Hence, in our opinion, the algorithm design and method developments papers are equally worthy of getting cited

  1. Neese,F.
     An improvement of the resolution of the identity approximation for the formation of the Coulomb matrix
     J. Comp. Chem., 2003 24(14)1740-1747
     doi.org/10.1002/jcc.10318
  2. Garcia-Rates,M.; Neese,F.
     Effect of the Solute Cavity on the Solvation Energy and its Derivatives within the Framework of the Gaussian Charge Scheme
     J. Comput. Chem., 2020 41 922-939
     doi.org/10.1002/jcc.26139
  3. Neese,F.
     The SHARK Integral Generation and Digestion System
     J. Comp. Chem., 2022  1-16
     doi.org/10.1002/jcc.26942
  4. Lehtola,S.; Steigemann,C.; Oliveira,M.; Marques,M.
     Recent developments in Libxc - A comprehensive library of functionals for density functional theory
     Software X, 2018 7 
     doi.org/10.1016/j.softx.2017.11.002
  5. Caldeweyher,E.; Bannwarth,C.; Grimme,S.
     Extension of the D3 dispersion coefficient model
     J. Chem. Phys., 2017 147 034112-XXXX
     doi.org/10.1063/1.4993215
  6. Caldeweyher,E.; Ehlert,S.; Hansen,A.; Neugebauer,H.; Spicher,S.; Bannwarth,C.; Grimme,S.
     A generally applicable atomic-charge dependent London dispersion correction
     J. Chem. Phys., 2019 150 154122-XXXX
     doi.org/10.1063/1.5090222
  7. Caldeweyher,E.; Mewes,J.; Ehlert,S.; Grimme,S.
     Extension and evaluation of the D4 London-dispersion model for periodic systems
     Phys. Chem. Chem. Phys., 2020 22(16)8499-8512
     doi.org/10.1039/D0CP00502A

List of suggested additional citations. These are papers that are important in the 'surrounding' of 
of this run, or papers that preceded the highly important papers. If you like your results we are grateful for a citation.

  1. Neese,F.
     The ORCA program system
     WIRES Comput. Molec. Sci., 2012 2(1)73-78
     doi.org/10.1002/wcms.81
  2. Neese,F.
     Software update: the ORCA program system, version 4.0
     WIRES Comput. Molec. Sci., 2018 8(1)1-6
     doi.org/10.1002/wcms.1327
  3. Neese,F.; Wennmohs,F.; Becker,U.; Riplinger,C.
     The ORCA quantum chemistry program package
     J. Chem. Phys., 2020 152 Art. No. L224108
     doi.org/10.1063/5.0004608

List of optional additional citations

  1. Neese,F.
     Approximate second-order SCF convergence for spin unrestricted wavefunctions
     Chem. Phys. Lett., 2000 325(1-3)93-98
     doi.org/10.1016/s0009-2614(00)00662-x

Timings for individual modules:

Sum of individual times          ...       17.932 sec (=   0.299 min)
Startup calculation              ...        1.217 sec (=   0.020 min)   6.8 %
SCF iterations                   ...        7.122 sec (=   0.119 min)  39.7 %
Property calculations            ...        0.108 sec (=   0.002 min)   0.6 %
SCF Gradient evaluation          ...        9.484 sec (=   0.158 min)  52.9 %
                             ****ORCA TERMINATED NORMALLY****
TOTAL RUN TIME: 0 days 0 hours 0 minutes 19 seconds 201 msec
  ------------------------------------------------------------------------
          * successful ORCA run, taking over control again...

         :::::::::::::::::::::::::::::::::::::::::::::::::::::
         ::                  ORCA SUMMARY                   ::
         :::::::::::::::::::::::::::::::::::::::::::::::::::::
         :: total energy            -635.160788382544 Eh    ::
         :: gradient norm              0.002822936235 Eh/a0 ::
         :: HOMO-LUMO gap              0.000000000000 eV    ::
         :::::::::::::::::::::::::::::::::::::::::::::::::::::

      ----------------------------------------------------------- 
     |                       L-ANC optimizer                     |
      ----------------------------------------------------------- 
          low memory version by Sebastian Ehlert

          ...................................................
          :                      SETUP                      :
          :.................................................:
          :   energy convergence        0.5000000E-05 Eh    :
          :   grad. convergence         0.1000000E-02 Eh/a0 :
          :   optimization log               true           :
          :   writing optlog all                1     steps :
          :   Hessian reset                     8     steps :
          :   maximium step len.        1.0000000     a0    :
          :   LBFGS images                      8           :
          ...................................................
 * calculating model hessian...
Using Lindh-Hessian (1995)
 Shifting diagonal of input Hessian by   1.000000000000000E-002
 Lowest  eigenvalues of input Hessian
    0.000000    0.000000    0.000000    0.000000    0.000000    0.000000
    0.010608    0.011931    0.013177    0.016461    0.017755    0.018176
    0.018814    0.018841    0.024033    0.024624    0.026871    0.026986
 Highest eigenvalues
    1.117199    1.123597    1.175668    1.178713    1.239833    1.243534
 

........................................................................
.............................. CYCLE    1 ..............................
........................................................................
                         * ORCA takes the control...
  ------------------------------------------------------------------------

                                 *****************
                                 * O   R   C   A *
                                 *****************

                                            #,                                       
                                            ###                                      
                                            ####                                     
                                            #####                                    
                                            ######                                   
                                           ########,                                 
                                     ,,################,,,,,                         
                               ,,#################################,,                 
                          ,,##########################################,,             
                       ,#########################################, ''#####,          
                    ,#############################################,,   '####,        
                  ,##################################################,,,,####,       
                ,###########''''           ''''###############################       
              ,#####''   ,,,,##########,,,,          '''####'''          '####       
            ,##' ,,,,###########################,,,                        '##       
           ' ,,###''''                  '''############,,,                           
         ,,##''                                '''############,,,,        ,,,,,,###''
      ,#''                                            '''#######################'''  
     '                                                          ''''####''''         
             ,#######,   #######,   ,#######,      ##                                
            ,#'     '#,  ##    ##  ,#'     '#,    #''#        ,####,   ,####,        
            ##       ##  ##   ,#'  ##            #'  '#       #'       #'  '#        
            ##       ##  #######   ##           ,######,      #####,   #    #        
            '#,     ,#'  ##    ##  '#,     ,#' ,#      #,     #,   #   #,  ,#        
             '#######'   ##     ##  '#######'  #'      '#     '####' # '####'        



                #########################################################
                #                        -***-                          #
                #          Department of theory and spectroscopy        #
                #                                                       #
                #                      Frank Neese                      #
                #                                                       #
                #     Directorship, Architecture, Infrastructure        #
                #                    SHARK, DRIVERS                     #
                #        Core code/Algorithms in most modules           #
                #                                                       #
                #        Max Planck Institute fuer Kohlenforschung      #
                #                Kaiser Wilhelm Platz 1                 #
                #                 D-45470 Muelheim/Ruhr                 #
                #                      Germany                          #
                #                                                       #
                #                  All rights reserved                  #
                #                        -***-                          #
                #########################################################


                         Program Version 6.0.0  -   RELEASE  -


 With contributions from (in alphabetic order):
   Daniel Aravena         : Magnetic Suceptibility
   Michael Atanasov       : Ab Initio Ligand Field Theory (pilot matlab implementation)
   Alexander A. Auer      : GIAO ZORA, VPT2 properties, NMR spectrum
   Ute Becker             : All parallelization in ORCA, NUMFREQ, NUMCALC
   Giovanni Bistoni       : ED, misc. LED, open-shell LED, HFLD
   Martin Brehm           : Molecular dynamics
   Dmytro Bykov           : pre 5.0 version of the SCF Hessian
   Marcos Casanova-Páez   : Triplet and SCS-CIS(D). UHF-(DLPNO)-IP/EA/STEOM-CCSD. UHF-CVS-IP/STEOM-CCSD
   Vijay G. Chilkuri      : MRCI spin determinant printing, contributions to CSF-ICE
   Pauline Colinet        : FMM embedding
   Dipayan Datta          : RHF DLPNO-CCSD density
   Achintya Kumar Dutta   : EOM-CC, STEOM-CC
   Nicolas Foglia         : Exact transition moments, OPA infrastructure, MCD improvements
   Dmitry Ganyushin       : Spin-Orbit,Spin-Spin,Magnetic field MRCI
   Miquel Garcia          : C-PCM and meta-GGA Hessian, CCSD/C-PCM, Gaussian charge scheme
   Tiago L. C. Gouveia    : GS-ROHF, GS-ROCIS
   Yang Guo               : DLPNO-NEVPT2, F12-NEVPT2, CIM, IAO-localization
   Andreas Hansen         : Spin unrestricted coupled pair/coupled cluster methods
   Ingolf Harden          : AUTO-CI MPn and infrastructure 
   Benjamin Helmich-Paris : MC-RPA, TRAH-(SCF,CASSCF), AVAS, COSX integrals, SCF dyn. polar.
   Lee Huntington         : MR-EOM, pCC
   Robert Izsak           : Overlap fitted RIJCOSX, COSX-SCS-MP3, EOM
   Riya Kayal             : Wick's Theorem for AUTO-CI, AUTO-CI UHF-CCSDT
   Emily Kempfer          : AUTO-CI, RHF CISDT and CCSDT
   Christian Kollmar      : KDIIS, OOCD, Brueckner-CCSD(T), CCSD density, CASPT2, CASPT2-K, improved NEVPT2
   Axel Koslowski         : Symmetry handling
   Simone Kossmann        : Meta GGA functionals, TD-DFT gradient, OOMP2, (MP2 Hessian; deprecated post 5.0)
   Lucas Lang             : DCDCAS
   Marvin Lechner         : AUTO-CI (C++ implementation), FIC-MRCC
   Spencer Leger          : CASSCF response
   Dagmar Lenk            : GEPOL surface, SMD, ORCA-2-JSON
   Dimitrios Liakos       : Extrapolation schemes; Compound Job, initial MDCI parallelization
   Dimitrios Manganas     : Further ROCIS development; embedding schemes. LFT, Crystal Embedding
   Dimitrios Pantazis     : SARC Basis sets
   Anastasios Papadopoulos: AUTO-CI, single reference methods and gradients
   Taras Petrenko         : pre 6.0 DFT Hessian and TD-DFT gradient, (ASA, deprecated), ECA, 1-Electron XAS/XES, NRVS
   Peter Pinski           : DLPNO-MP2, DLPNO-MP2 Gradient
   Christoph Reimann      : Effective Core Potentials
   Marius Retegan         : Local ZFS, SOC
   Christoph Riplinger    : Optimizer, TS searches, QM/MM, DLPNO-CCSD(T), (RO)-DLPNO pert. Triples
   Michael Roemelt        : Original ROCIS implementation
   Masaaki Saitow         : Open-shell DLPNO-CCSD energy and density
   Barbara Sandhoefer     : DKH picture change effects
   Kantharuban Sivalingam : CASSCF convergence/infrastructure, NEVPT2 and variants, FIC-MRCI
   Bernardo de Souza      : ESD, SOC TD-DFT
   Georgi Stoychev        : AutoAux, RI-MP2 NMR, DLPNO-MP2 response, X2C
   Van Anh Tran           : RI-MP2 g-tensors
   Willem Van den Heuvel  : Paramagnetic NMR
   Zikuan Wang            : NOTCH, Electric field optimization 
   Frank Wennmohs         : Technical directorship and infrastructure
   Hang Xu                : AUTO-CI-Response properties 


 We gratefully acknowledge several colleagues who have allowed us to
 interface, adapt or use parts of their codes:
   Stefan Grimme, W. Hujo, H. Kruse, P. Pracht,  : VdW corrections, initial TS optimization,
                  C. Bannwarth, S. Ehlert,         DFT functionals, gCP, sTDA/sTD-DF
                  L. Wittmann, M. Mueller
   Ed Valeev, F. Pavosevic, A. Kumar             : LibInt (2-el integral package), F12 methods
   Garnet Chan, S. Sharma, J. Yang, R. Olivares  : DMRG
   Ulf Ekstrom                                   : XCFun DFT Library
   Mihaly Kallay                                 : mrcc  (arbitrary order and MRCC methods)
   Frank Weinhold                                : gennbo (NPA and NBO analysis)
   Simon Mueller                                 : openCOSMO-RS
   Christopher J. Cramer and Donald G. Truhlar   : smd solvation model
   Lars Goerigk                                  : TD-DFT with DH, B97 family of functionals
   V. Asgeirsson, H. Jonsson                     : NEB implementation
   FAccTs GmbH                                   : IRC, NEB, NEB-TS, DLPNO-Multilevel, CI-OPT
                                                   MM, QMMM, 2- and 3-layer-ONIOM, Crystal-QMMM,
                                                   LR-CPCM, SF, NACMEs, symmetry and pop. for TD-DFT,
                                                   nearIR, NL-DFT gradient (VV10), updates on ESD,
                                                   ML-optimized integration grids, MBIS, APM,
                                                   GOAT, DOCKER, SOLVATOR, interface openCOSMO-RS
   S Lehtola, MJT Oliveira, MAL Marques          : LibXC Library
   Liviu Ungur et al                             : ANISO software


 Your calculation uses the libint2 library for the computation of 2-el integrals
 For citations please refer to: http://libint.valeyev.net

 Your ORCA version has been built with support for libXC version: 6.2.2
 For citations please refer to: https://libxc.gitlab.io

 This ORCA versions uses:
   CBLAS   interface :  Fast vector & matrix operations
   LAPACKE interface :  Fast linear algebra routines
   SCALAPACK package :  Parallel linear algebra routines
   Shared memory     :  Shared parallel matrices
   BLAS/LAPACK       :  OpenBLAS 0.3.27  USE64BITINT DYNAMIC_ARCH NO_AFFINITY SkylakeX SINGLE_THREADED
        Core in use  :  SkylakeX
   Copyright (c) 2011-2014, The OpenBLAS Project




***************************************
The coordinates will be read from file: xtb_opt.xyz
***************************************


Your calculation utilizes the geometrical counterpoise correction gCP
Please cite in your paper:
H.Kruse, S. Grimme J.Chem.Phys., 136, (2012), 154101 
   

Your calculation utilizes the atom-pairwise dispersion correction
based on EEQ partial charges (D4)


Your calculation utilizes the SMD solvation module
Please cite in your paper:
A.V. Marenich, C.J. Cramer, D.G. Truhlar J. Phys. Chem. B, 113, (2009), 6378 

================================================================================

----- Orbital basis set information -----
Your calculation utilizes the basis: def2-mTZVPP
   Stefan Grimme, Andreas Hansen, Sebastian Ehlert, and Jan-Michael Mewes 
   J. Chem. Phys. 154, 064103 (2021). DOI: 10.1063/5.0040021

----- AuxJ basis set information -----
Your calculation utilizes the auxiliary basis: def2/J
   F. Weigend, Phys. Chem. Chem. Phys. 8, 1057 (2006).

================================================================================
                                        WARNINGS
                       Please study these warnings very carefully!
================================================================================

WARNING: Old DensityContainer found on disk!
         Will remove this file - 
         If you want to keep old densities, please start your calculation with a different basename. 

Using LibXC functional ID 497 : Re-regularized SCAN exchange by Furness et al
[ 1]  J. W. Furness, A. D. Kaplan, J. Ning, J. P. Perdew, and J. Sun.,  J. Phys. Chem. Lett. 11, 8208-8215 (2020)
[ 2]  J. W. Furness, A. D. Kaplan, J. Ning, J. P. Perdew, and J. Sun.,  J. Phys. Chem. Lett. 11, 9248-9248 (2020)
Using LibXC functional ID 498 : Re-regularized SCAN correlation by Furness et al
[ 1]  J. W. Furness, A. D. Kaplan, J. Ning, J. P. Perdew, and J. Sun.,  J. Phys. Chem. Lett. 11, 8208-8215 (2020)
[ 2]  J. W. Furness, A. D. Kaplan, J. Ning, J. P. Perdew, and J. Sun.,  J. Phys. Chem. Lett. 11, 9248-9248 (2020)
Using LibXC functional ID 497 : Re-regularized SCAN exchange by Furness et al
[ 1]  J. W. Furness, A. D. Kaplan, J. Ning, J. P. Perdew, and J. Sun.,  J. Phys. Chem. Lett. 11, 8208-8215 (2020)
[ 2]  J. W. Furness, A. D. Kaplan, J. Ning, J. P. Perdew, and J. Sun.,  J. Phys. Chem. Lett. 11, 9248-9248 (2020)
Using LibXC functional ID 498 : Re-regularized SCAN correlation by Furness et al
[ 1]  J. W. Furness, A. D. Kaplan, J. Ning, J. P. Perdew, and J. Sun.,  J. Phys. Chem. Lett. 11, 8208-8215 (2020)
[ 2]  J. W. Furness, A. D. Kaplan, J. Ning, J. P. Perdew, and J. Sun.,  J. Phys. Chem. Lett. 11, 9248-9248 (2020)

================================================================================
                                       INPUT FILE
================================================================================
NAME = xtb_opt.inp
|  1> ! r2scan-3c def2/J RI DEFGRID2 scfconv7 ENGRAD tightSCF miniprint
|  2> %cpcm
|  3>     smd true
|  4>     smdsolvent "water"
|  5> end
|  6> * xyzfile 0 1 xtb_opt.xyz
|  7> 
|  8>                          ****END OF INPUT****
================================================================================

                     *******************************
                     * Energy+Gradient Calculation *
                     *******************************

---------------------------------
CARTESIAN COORDINATES (ANGSTROEM)
---------------------------------
  C      2.538074    0.886832   -0.765322
  C      1.403705   -0.102773   -0.519712
  C      1.864716   -1.273427    0.338805
  S      0.011192    0.833593    0.271229
  C     -1.419458   -0.333050    0.071860
  C     -2.530143    0.144437    1.001696
  C     -1.896089   -0.408487   -1.372196
  H      2.230209    1.700614   -1.428399
  H      2.890428    1.321234    0.177410
  H      3.382655    0.365676   -1.228645
  H      1.033877   -0.471388   -1.483255
  H      1.054274   -1.977811    0.546957
  H      2.265486   -0.915561    1.293281
  H      2.658033   -1.823325   -0.182339
  H     -1.074105   -1.319533    0.401210
  H     -2.863070    1.152802    0.729842
  H     -3.392110   -0.526247    0.916015
  H     -2.207156    0.156394    2.046899
  H     -2.718071   -1.130381   -1.451999
  H     -1.102950   -0.733109   -2.051730
  H     -2.262858    0.567008   -1.708478

----------------------------
CARTESIAN COORDINATES (A.U.)
----------------------------
  NO LB      ZA    FRAG     MASS         X           Y           Z
   0 C     6.0000    0    12.011    4.796265    1.675870   -1.446250
   1 C     6.0000    0    12.011    2.652619   -0.194214   -0.982113
   2 C     6.0000    0    12.011    3.523803   -2.406428    0.640249
   3 S    16.0000    0    32.060    0.021150    1.575262    0.512548
   4 C     6.0000    0    12.011   -2.682387   -0.629373    0.135796
   5 C     6.0000    0    12.011   -4.781278    0.272946    1.892931
   6 C     6.0000    0    12.011   -3.583089   -0.771929   -2.593076
   7 H     1.0000    0     1.008    4.214484    3.213694   -2.699283
   8 H     1.0000    0     1.008    5.462118    2.496770    0.335256
   9 H     1.0000    0     1.008    6.392292    0.691027   -2.321803
  10 H     1.0000    0     1.008    1.953744   -0.890795   -2.802947
  11 H     1.0000    0     1.008    1.992289   -3.737521    1.033600
  12 H     1.0000    0     1.008    4.281148   -1.730159    2.443946
  13 H     1.0000    0     1.008    5.022954   -3.445585   -0.344572
  14 H     1.0000    0     1.008   -2.029765   -2.493556    0.758177
  15 H     1.0000    0     1.008   -5.410419    2.178481    1.379201
  16 H     1.0000    0     1.008   -6.410159   -0.994463    1.731018
  17 H     1.0000    0     1.008   -4.170920    0.295541    3.868078
  18 H     1.0000    0     1.008   -5.136410   -2.136111   -2.743880
  19 H     1.0000    0     1.008   -2.084273   -1.385375   -3.877208
  20 H     1.0000    0     1.008   -4.276181    1.071491   -3.228555

------------------------------------------------------------------------------
                   ___                                                        
                  /   \      - P O W E R E D   B Y -                         
                 /     \                                                     
                 |  |  |   _    _      __       _____    __    __             
                 |  |  |  | |  | |    /  \     |  _  \  |  |  /  |          
                  \  \/   | |  | |   /    \    | | | |  |  | /  /          
                 / \  \   | |__| |  /  /\  \   | |_| |  |  |/  /          
                |  |  |   |  __  | /  /__\  \  |    /   |      \           
                |  |  |   | |  | | |   __   |  |    \   |  |\   \          
                \     /   | |  | | |  |  |  |  | |\  \  |  | \   \       
                 \___/    |_|  |_| |__|  |__|  |_| \__\ |__|  \__/        
                                                                              
                      - O R C A' S   B I G   F R I E N D -                    
                                      &                                       
                       - I N T E G R A L  F E E D E R -                       
                                                                              
 v1 FN, 2020, v2 2021, v3 2022-2024                                           
------------------------------------------------------------------------------


----------------------
SHARK INTEGRAL PACKAGE
----------------------

Number of atoms                             ...     21
Number of basis functions                   ...    211
Number of shells                            ...    107
Maximum angular momentum                    ...      2
Integral batch strategy                     ... SHARK/LIBINT Hybrid
RI-J (if used) integral strategy            ... SPLIT-RIJ (Revised 2003 algorithm where possible)
Printlevel                                  ...      1
Contraction scheme used                     ... SEGMENTED contraction
Prescreening option                         ... SCHWARTZ
   Thresh                                   ... 3.000e-11
   Tcut                                     ... 1.000e-12
   Tpresel                                  ... 1.000e-12 
Coulomb Range Separation                    ... NOT USED
Exchange Range Separation                   ... NOT USED
Multipole approximations                    ... NOT USED
Finite Nucleus Model                        ... NOT USED
CABS basis                                  ... NOT available
Auxiliary Coulomb fitting basis             ... AVAILABLE
   # of basis functions in Aux-J            ...    499
   # of shells in Aux-J                     ...    177
   Maximum angular momentum in Aux-J        ...      4
Auxiliary J/K fitting basis                 ... NOT available
Auxiliary Correlation fitting basis         ... NOT available
Auxiliary 'external' fitting basis          ... NOT available

Checking pre-screening integrals            ... done (  0.0 sec) Dimension = 107
Check shell pair data                       ... done (  0.0 sec)
Shell pair information
Shell pair cut-off parameter TPreSel        ...   1.0e-12
Total number of shell pairs                 ...      5778
Shell pairs after pre-screening             ...      5146
Total number of primitive shell pairs       ...     20920
Primitive shell pairs kept                  ...     13236
          la=0 lb=0:   1792 shell pairs
          la=1 lb=0:   2012 shell pairs
          la=1 lb=1:    590 shell pairs
          la=2 lb=0:    455 shell pairs
          la=2 lb=1:    262 shell pairs
          la=2 lb=2:     35 shell pairs

Calculating one electron integrals          ... done (  0.0 sec)
Calculating RI/J V-Matrix + Cholesky decomp.... done (  0.1 sec)
Calculating Nuclear repulsion               ... done (  0.0 sec) ENN=    396.442867826361 Eh

Diagonalization of the overlap matrix:
Smallest eigenvalue                        ... 3.192e-04
Time for diagonalization                   ...    0.004 sec
Threshold for overlap eigenvalues          ... 1.000e-07
Number of eigenvalues below threshold      ... 0
Time for construction of square roots      ...    0.014 sec
Total time needed                          ...    0.027 sec

-------------------
DFT GRID GENERATION
-------------------

General Integration Accuracy     IntAcc      ... 4.388
Radial Grid Type                 RadialGrid  ... OptM3 with GC (2021)
Angular Grid (max. ang.)         AngularGrid ... 4 (Lebedev-302)
Angular grid pruning method      GridPruning ... 4 (adaptive)
Weight generation scheme         WeightScheme... mBecke (2022)
Basis function cutoff            BFCut       ... 1.0000e-11
Integration weight cutoff        WCut        ... 1.0000e-14
Partially contracted basis set               ... off
Rotationally invariant grid construction     ... off
Angular grids for H and He will be reduced by one unit

Total number of grid points                  ...    88209
Total number of batches                      ...     1387
Average number of points per batch           ...       63
Average number of grid points per atom       ...     4200
Initializing property integral containers    ... done (  0.0 sec)

SHARK setup successfully completed in   1.2 seconds

Maximum memory used throughout the entire STARTUP-calculation: 39.4 MB
Occupation numbers will be reassigned to an Aufbau configuration
             **** ENERGY FILE WAS UPDATED (xtb_opt.en.tmp) ****
Finished Guess after   0.3 sec
Maximum memory used throughout the entire GUESS-calculation: 14.5 MB
--------------------
CPCM SOLVATION MODEL
--------------------
CPCM parameters:
  Epsilon                                         ...      78.3550
  Refrac                                          ...       1.3328
  Rsolv                                           ...       1.3000
  Surface type                                    ... GAUSSIAN VDW
  Discretization scheme                           ... Constant charge density
    Threshold for H atoms                         ...       5.0000 (charges/Ang^2)
    Threshold for non-H atoms                     ...       5.0000 (charges/Ang^2)
  Epsilon function type                           ...         CPCM
Solvent:                                          ... WATER
SMD-CDS solvent descriptors:
  Soln                                            ...       1.3328
  Soln25                                          ...       1.3323
  Sola                                            ...       0.0000
  Solb                                            ...       0.0000
  Solg                                            ...       0.0000
  Solc                                            ...       0.0000
  Solh                                            ...       0.0000
Radii:
  Scheme                                          ... Element-dependent radii
  Radius for C  used is    3.4960 Bohr (=   1.8500 Ang.)
  Radius for S  used is    4.7054 Bohr (=   2.4900 Ang.)
  Radius for H  used is    2.2677 Bohr (=   1.2000 Ang.)
Calculating surface                               ...        done! (  0.0s)
Cavity surface points                             ...         1626
Cavity Volume                                     ...    1062.5313
Cavity Surface-area                               ...     626.8434
Calculating surface distance matrix               ...        done! (  0.0s)
Performing Cholesky decomposition & store         ...        done! (  0.1s)
Overall time for CPCM initialization              ...                 0.1s

----------------------------------------D-I-I-S--------------------------------------------
Iteration    Energy (Eh)           Delta-E    RMSDP     MaxDP     DIISErr   Damp  Time(sec)
-------------------------------------------------------------------------------------------
               ***  Starting incremental Fock matrix formation  ***
                              *** Initializing SOSCF ***
---------------------------------------S-O-S-C-F--------------------------------------
Iteration    Energy (Eh)           Delta-E    RMSDP     MaxDP     MaxGrad    Time(sec)
--------------------------------------------------------------------------------------
    1    -635.1734522109472891     0.00e+00  2.34e-05  3.71e-04  8.16e-05     3.1
               *** Restarting incremental Fock matrix formation ***
    2    -635.1734562881147212    -4.08e-06  1.21e-05  1.88e-04  6.53e-05     3.0
    3    -635.1734563660047570    -7.79e-08  5.32e-06  1.22e-04  6.72e-05     2.5
                 **** Energy Check signals convergence ****

               *****************************************************
               *                     SUCCESS                       *
               *           SCF CONVERGED AFTER   3 CYCLES          *
               *****************************************************


SMD CDS free energy correction energy :                 3.77519     Kcal/mol
Total Energy after SMD CDS correction =              -635.167440221 Eh
             **** ENERGY FILE WAS UPDATED (xtb_opt.en.tmp) ****

----------------
TOTAL SCF ENERGY
----------------

Total Energy       :       -635.16744022148612 Eh          -17283.78474 eV

Components:
Nuclear Repulsion  :        396.44286782636135 Eh           10787.75887 eV
Electronic Energy  :      -1031.60795422785645 Eh          -28071.47956 eV
One Electron Energy:      -1655.03273400384569 Eh          -45035.73026 eV
Two Electron Energy:        623.42477977598924 Eh           16964.25070 eV
CPCM Dielectric    :         -0.00836996450976 Eh              -0.22776 eV
SMD CDS (Gcds)     :          0.00601614451861 Eh               0.16371 eV

Virial components:
Potential Energy   :      -1267.96795768476954 Eh          -34503.16224 eV
Kinetic Energy     :        632.80051746328343 Eh           17219.37750 eV
Virial Ratio       :          2.00374039320905

DFT components:
N(Alpha)           :       33.000060212205 electrons
N(Beta)            :       33.000060212205 electrons
N(Total)           :       66.000120424410 electrons
E(X)               :      -61.189565430911 Eh       
E(C)               :       -2.150871265016 Eh       
E(XC)              :      -63.340436695927 Eh       

CPCM Solvation Model Properties:
Surface-charge          :         -0.04408571964712
Corrected charge        :          0.00000000000000
Outlying charge corr.   :          0.00014245229767 Eh               0.00388 eV
Free-energy (cav+disp)  :          0.00601614451861 Eh               0.16371 eV

---------------
SCF CONVERGENCE
---------------

  Last Energy change         ...    7.7890e-08  Tolerance :   1.0000e-07
  Last MAX-Density change    ...    1.2212e-04  Tolerance :   1.0000e-07
  Last RMS-Density change    ...    5.3228e-06  Tolerance :   5.0000e-09
  Last DIIS Error            ...    4.7653e-04  Tolerance :   1.0000e-07
  Last Orbital Gradient      ...    6.7156e-05  Tolerance :   1.0000e-04
  Last Orbital Rotation      ...    9.3884e-05  Tolerance :   1.0000e-04


----------------
ORBITAL ENERGIES
----------------

  NO   OCC          E(Eh)            E(eV) 
   0   2.0000     -88.536499     -2409.2006 
   1   2.0000     -10.061121      -273.7770 
   2   2.0000     -10.060897      -273.7709 
   3   2.0000     -10.018737      -272.6237 
   4   2.0000     -10.018441      -272.6156 
   5   2.0000     -10.015472      -272.5348 
   6   2.0000     -10.015248      -272.5287 
   7   2.0000      -7.830376      -213.0754 
   8   2.0000      -5.777595      -157.2164 
   9   2.0000      -5.774152      -157.1227 
  10   2.0000      -5.767396      -156.9388 
  11   2.0000      -0.783648       -21.3241 
  12   2.0000      -0.750227       -20.4147 
  13   2.0000      -0.647696       -17.6247 
  14   2.0000      -0.647173       -17.6105 
  15   2.0000      -0.643077       -17.4990 
  16   2.0000      -0.544083       -14.8053 
  17   2.0000      -0.509335       -13.8597 
  18   2.0000      -0.436273       -11.8716 
  19   2.0000      -0.420564       -11.4441 
  20   2.0000      -0.402773       -10.9600 
  21   2.0000      -0.380036       -10.3413 
  22   2.0000      -0.370857       -10.0915 
  23   2.0000      -0.369564       -10.0564 
  24   2.0000      -0.347991        -9.4693 
  25   2.0000      -0.347843        -9.4653 
  26   2.0000      -0.314680        -8.5629 
  27   2.0000      -0.312591        -8.5060 
  28   2.0000      -0.311400        -8.4736 
  29   2.0000      -0.306436        -8.3386 
  30   2.0000      -0.283711        -7.7202 
  31   2.0000      -0.262524        -7.1436 
  32   2.0000      -0.190276        -5.1777 
  33   0.0000       0.017544         0.4774 
  34   0.0000       0.056131         1.5274 
  35   0.0000       0.085557         2.3281 
  36   0.0000       0.121298         3.3007 
  37   0.0000       0.124435         3.3861 
  38   0.0000       0.133884         3.6432 
  39   0.0000       0.135195         3.6789 
  40   0.0000       0.147303         4.0083 
  41   0.0000       0.147637         4.0174 
  42   0.0000       0.155668         4.2359 
  43   0.0000       0.160004         4.3539 
*Only the first 10 virtual orbitals were printed.
Total SCF time: 0 days 0 hours 0 min 9 sec 
Finished LeanSCF after   9.2 sec

Maximum memory used throughout the entire LEANSCF-calculation: 32.9 MB


-------------------------------------------------------------------------------
                          DFT DISPERSION CORRECTION                            
                                                                               
                                DFTD4 V3.4.0                                   
-------------------------------------------------------------------------------
-------------------------   ----------------
Dispersion correction           -0.006064876
-------------------------   ----------------

------------------   -----------------
gCP correction             0.012702213
------------------   -----------------

-------------------------   --------------------
[...]
  Last Orbital Gradient      ...    4.1980e-06  Tolerance :   1.0000e-04
  Last Orbital Rotation      ...    1.3937e-05  Tolerance :   1.0000e-04


----------------
ORBITAL ENERGIES
----------------

  NO   OCC          E(Eh)            E(eV) 
   0   2.0000     -88.536613     -2409.2037 
   1   2.0000     -10.060413      -273.7578 
   2   2.0000     -10.060410      -273.7577 
   3   2.0000     -10.018138      -272.6074 
   4   2.0000     -10.018079      -272.6058 
   5   2.0000     -10.015138      -272.5258 
   6   2.0000     -10.015128      -272.5255 
   7   2.0000      -7.830460      -213.0776 
   8   2.0000      -5.777679      -157.2186 
   9   2.0000      -5.774239      -157.1250 
  10   2.0000      -5.767485      -156.9412 
  11   2.0000      -0.783729       -21.3264 
  12   2.0000      -0.750234       -20.4149 
  13   2.0000      -0.647730       -17.6256 
  14   2.0000      -0.647204       -17.6113 
  15   2.0000      -0.643074       -17.4989 
  16   2.0000      -0.544030       -14.8038 
  17   2.0000      -0.509287       -13.8584 
  18   2.0000      -0.436292       -11.8721 
  19   2.0000      -0.420568       -11.4442 
  20   2.0000      -0.402782       -10.9603 
  21   2.0000      -0.380070       -10.3422 
  22   2.0000      -0.370808       -10.0902 
  23   2.0000      -0.369548       -10.0559 
  24   2.0000      -0.347952        -9.4683 
  25   2.0000      -0.347850        -9.4655 
  26   2.0000      -0.314664        -8.5624 
  27   2.0000      -0.312589        -8.5060 
  28   2.0000      -0.311330        -8.4717 
  29   2.0000      -0.306269        -8.3340 
  30   2.0000      -0.283544        -7.7156 
  31   2.0000      -0.262493        -7.1428 
  32   2.0000      -0.190264        -5.1774 
  33   0.0000       0.017663         0.4806 
  34   0.0000       0.056504         1.5375 
  35   0.0000       0.085612         2.3296 
  36   0.0000       0.121474         3.3055 
  37   0.0000       0.124578         3.3899 
  38   0.0000       0.133947         3.6449 
  39   0.0000       0.135249         3.6803 
  40   0.0000       0.147469         4.0128 
  41   0.0000       0.147839         4.0229 
  42   0.0000       0.155851         4.2409 
  43   0.0000       0.160171         4.3585 
*Only the first 10 virtual orbitals were printed.
Total SCF time: 0 days 0 hours 0 min 7 sec 
Finished LeanSCF after   7.9 sec

Maximum memory used throughout the entire LEANSCF-calculation: 32.9 MB


-------------------------------------------------------------------------------
                          DFT DISPERSION CORRECTION                            
                                                                               
                                DFTD4 V3.4.0                                   
-------------------------------------------------------------------------------
-------------------------   ----------------
Dispersion correction           -0.006067999
-------------------------   ----------------

------------------   -----------------
gCP correction             0.012720166
------------------   -----------------

-------------------------   --------------------
FINAL SINGLE POINT ENERGY      -635.160807210324
-------------------------   --------------------

------------------------------------------------------------------------------
                         ORCA SCF GRADIENT CALCULATION
------------------------------------------------------------------------------

Nuc. rep. gradient        (SHARK) ... done (  0.0 sec)
HCore & Overlap gradient  (SHARK) ... done (  0.3 sec)
Split-RIJ-J gradient      (SHARK) ... done (  1.4 sec)
XC gradient                       ... done (  6.1 sec)
CPCM gradient                     ... done (  0.9 sec)
SMD gradient                      ... done (  0.0 sec)
Dispersion correction             ... done (  0.0 sec)

-------------------
DISPERSION GRADIENT
-------------------

   1   C   :    0.000085651    0.000044937   -0.000021987
   2   C   :    0.000074357   -0.000001389   -0.000014723
   3   C   :    0.000078897   -0.000061325    0.000029770
   4   S   :    0.000001349    0.000076628    0.000036149
   5   C   :   -0.000074586   -0.000010173    0.000009356
   6   C   :   -0.000084655    0.000014218    0.000049582
   7   C   :   -0.000080132   -0.000014240   -0.000065158
   8   H   :    0.000030239    0.000029139   -0.000016339
   9   H   :    0.000027620    0.000020750   -0.000001813
  10   H   :    0.000032486    0.000010782   -0.000014412
  11   H   :    0.000028859   -0.000000969   -0.000014125
  12   H   :    0.000032654   -0.000040474    0.000017388
  13   H   :    0.000030936   -0.000019297    0.000019620
  14   H   :    0.000031608   -0.000030926    0.000004860
  15   H   :   -0.000029111   -0.000010683    0.000008698
  16   H   :   -0.000027106    0.000012605    0.000017352
  17   H   :   -0.000032396   -0.000003302    0.000017934
  18   H   :   -0.000029573    0.000007003    0.000033139
  19   H   :   -0.000032315   -0.000015071   -0.000026391
  20   H   :   -0.000033538   -0.000011819   -0.000041808
  21   H   :   -0.000031247    0.000003607   -0.000027094

Difference to translation invariance:
           :   -0.0000000000    0.0000000000    0.0000000000

Difference to rotation invariance:
           :   -0.0000000000   -0.0000000000    0.0000000000

Norm of the Dispersion gradient    ...    0.0002911506
RMS gradient                       ...    0.0000366815
MAX gradient                       ...    0.0000856511
gCP correction                   ... done

------------------
CARTESIAN GRADIENT
------------------

   1   C   :   -0.000129133    0.000282666    0.000110668
   2   C   :    0.000010151   -0.000087377   -0.000136834
   3   C   :   -0.000047106    0.000092726    0.000148701
   4   S   :    0.000072425   -0.000016854   -0.000018198
   5   C   :   -0.000060299   -0.000099545    0.000062508
   6   C   :    0.000040943    0.000141223    0.000152195
   7   C   :    0.000084608    0.000055932   -0.000036510
   8   H   :    0.000051233   -0.000219361    0.000161358
   9   H   :   -0.000069255   -0.000101955   -0.000203242
  10   H   :    0.000057781   -0.000038934   -0.000054438
  11   H   :    0.000071717    0.000048149    0.000213007
  12   H   :    0.000031811    0.000028165    0.000006834
  13   H   :   -0.000009678   -0.000060907   -0.000164886
  14   H   :    0.000013378    0.000050427    0.000031829
  15   H   :   -0.000136439    0.000144074   -0.000093966
  16   H   :    0.000060259   -0.000275474    0.000015210
  17   H   :    0.000109935    0.000026860   -0.000024314
  18   H   :   -0.000035999    0.000002036   -0.000268246
  19   H   :   -0.000123640   -0.000032290    0.000019226
  20   H   :   -0.000026520    0.000053187    0.000049673
  21   H   :    0.000033830    0.000007253    0.000029424

Difference to translation invariance:
           :   -0.0000000000    0.0000000000    0.0000000000

Difference to rotation invariance:
           :    0.0000708149   -0.0001857290   -0.0002079307

Norm of the Cartesian gradient     ...    0.0008472332
RMS gradient                       ...    0.0001067413
MAX gradient                       ...    0.0002826664

-------
TIMINGS
-------

Total SCF gradient time     ....        9.600 sec

Densities                   ....       0.001 sec  (  0.0%)
One electron gradient       ....       0.313 sec  (  3.3%)
RI-J Coulomb gradient       ....       1.418 sec  ( 14.8%)
XC gradient                 ....       6.089 sec  ( 63.4%)
CPCM gradient               ....       0.946 sec  (  9.9%)
   A-Matrix (El+Nuc)        ....       0.085 sec  (  0.9%)
   Potential                ....       0.861 sec  (  9.0%)
SMD gradient                ....       0.015 sec  (  0.2%)

Maximum memory used throughout the entire SCFGRAD-calculation: 34.6 MB

------------------------------------------------------------------------------
                              ORCA PROPERTY CALCULATIONS
------------------------------------------------------------------------------

GBWName                                 ... xtb_opt.gbw
Number of atoms                         ...     21
Number of basis functions               ...    211
Max core memory                         ...   1024 MB

Electric properties:
Dipole moment                           ... YES
Quadrupole moment                       ...  NO
Static polarizability (Dipole/Dipole)   ...  NO
Static polarizability (Dipole/Quad.)    ...  NO
Static polarizability (Quad./Quad.)     ...  NO
Static polarizability (Velocity)        ...  NO

Atomic electric properties:
Dipole moment                           ...  NO
Quadrupole moment                       ...  NO
Static polarizability                   ...  NO

Choice of electric origin               ... Center of mass
Position of electric origin             ...    -0.003158     0.161234    -0.154725

General magnetic properties:
Magnetizability                         ...  NO

EPR properties:
g-Tensor (aka g-matrix)                 ...  NO
Zero-Field splitting spin-orbit         ...  NO
Zero-field splitting spin-spin          ...  NO
Hyperfine couplings                     ...  NO (   0 nuclei)
Quadrupole couplings                    ...  NO (   0 nuclei)
Contact density                         ...  NO (   0 nuclei)

NMR properties:
Chemical shifts                         ...  NO (   0 nuclei)
Spin-rotation constants                 ...  NO (   0 nuclei)
Spin-spin couplings                     ...  NO (   0 nuclei,    0 pairs)

Choice of magnetic origin               ... GIAO
Position of magnetic origin             ...     0.000000     0.000000     0.000000

Properties with geometric perturbations:
SCF Hessian                             ...  NO
IR spectrum                             ...  NO
VCD spectrum                            ...  NO
X-ray spectroscopy properties:
SCF XES/XAS/RIXS spectra                ...  NO


-------------
DIPOLE MOMENT
-------------

Method             : SCF
Type of density    : Electron Density
Multiplicity       :   1
Irrep              :   0
Energy             :  -635.1674593775685480 Eh
Relativity type    : 
Basis              : AO
                                X                 Y                 Z
Electronic contribution:      0.061300049       3.607390153       1.702265040
Nuclear contribution   :     -0.078816689      -4.555007753      -2.148044372
                        -----------------------------------------
Total Dipole Moment    :     -0.017516640      -0.947617599      -0.445779333
                        -----------------------------------------
Magnitude (a.u.)       :      1.047380141
Magnitude (Debye)      :      2.662228749



--------------------
Rotational spectrum 
--------------------
 
Rotational constants in cm-1:             0.120154             0.038714             0.038033 
Rotational constants in MHz :          3602.136052          1160.611861          1140.202172 

Dipole components along the rotational axes: 
x,y,z [a.u.] :     0.001247    -1.047372     0.003865 
x,y,z [Debye]:     0.003169    -2.662209     0.009825 

 

Dipole moment calculation done in   0.0 sec 

Maximum memory used throughout the entire PROP-calculation: 13.1 MB

--------------------------------
SUGGESTED CITATIONS FOR THIS RUN
--------------------------------

Below you find a list of papers that are relevant to this ORCA run
We neither can nor want to force you to cite these papers, but we appreciate if you do
You receive ORCA, which is the product of decades of hard work by many enthusiastic individuals, for free
The only thing we kindly ask in return is that you cite our papers,
We deeply appreciate it, if you show your appreciation for ORCA by not just citing the generic ORCA reference.

Please note that relegating all ORCA citations to the supporting information does *not* help us.
SI sections are not indexed - citations you put there will not count into any citation statistics
But we need these citations in order to attract the funding resources that allow us to do what we are doing

Therefore, if you are a happy ORCA user, please consider citing a few of the papers listed below in the main body of your paper

In addition to the list printed below, the program has created the file xtb_opt.bibtex that contains the list in bibtex format
You can import this file easily into all common literature databanks and citation aid programs


List of essential papers. We consider these as the minimum necessary citations

  1. Neese,F.
     Software update: the ORCA program system, version 5.0
     WIRES Comput. Molec. Sci., 2022 12(1)e1606
     doi.org/10.1002/wcms.1606
  2. Grimme,S.; Hansen,A.; Ehlert,S.; Mewes,J.
     r2SCAN-3c: A 'Swiss army knife' composite electronic-structure method
     J. Chem. Phys., 2021 154 064103
     doi.org/10.1063/5.0040021

List of papers to cite with high priority. The work reported in these papers was absolutely
necessary for this run to complete.
Our perspective: the developers of density functionals and basis sets usually get cited in chemistry papers
Good! But without the algorithms to do something with them, the functionals or basis sets would not do anything.
Hence, in our opinion, the algorithm design and method developments papers are equally worthy of getting cited

  1. Neese,F.
     An improvement of the resolution of the identity approximation for the formation of the Coulomb matrix
     J. Comp. Chem., 2003 24(14)1740-1747
     doi.org/10.1002/jcc.10318
  2. Garcia-Rates,M.; Neese,F.
     Effect of the Solute Cavity on the Solvation Energy and its Derivatives within the Framework of the Gaussian Charge Scheme
     J. Comput. Chem., 2020 41 922-939
     doi.org/10.1002/jcc.26139
  3. Neese,F.
     The SHARK Integral Generation and Digestion System
     J. Comp. Chem., 2022  1-16
     doi.org/10.1002/jcc.26942
  4. Lehtola,S.; Steigemann,C.; Oliveira,M.; Marques,M.
     Recent developments in Libxc - A comprehensive library of functionals for density functional theory
     Software X, 2018 7 
     doi.org/10.1016/j.softx.2017.11.002
  5. Caldeweyher,E.; Bannwarth,C.; Grimme,S.
     Extension of the D3 dispersion coefficient model
     J. Chem. Phys., 2017 147 034112-XXXX
     doi.org/10.1063/1.4993215
  6. Caldeweyher,E.; Ehlert,S.; Hansen,A.; Neugebauer,H.; Spicher,S.; Bannwarth,C.; Grimme,S.
     A generally applicable atomic-charge dependent London dispersion correction
     J. Chem. Phys., 2019 150 154122-XXXX
     doi.org/10.1063/1.5090222
  7. Caldeweyher,E.; Mewes,J.; Ehlert,S.; Grimme,S.
     Extension and evaluation of the D4 London-dispersion model for periodic systems
     Phys. Chem. Chem. Phys., 2020 22(16)8499-8512
     doi.org/10.1039/D0CP00502A

List of suggested additional citations. These are papers that are important in the 'surrounding' of 
of this run, or papers that preceded the highly important papers. If you like your results we are grateful for a citation.

  1. Neese,F.
     The ORCA program system
     WIRES Comput. Molec. Sci., 2012 2(1)73-78
     doi.org/10.1002/wcms.81
  2. Neese,F.
     Software update: the ORCA program system, version 4.0
     WIRES Comput. Molec. Sci., 2018 8(1)1-6
     doi.org/10.1002/wcms.1327
  3. Neese,F.; Wennmohs,F.; Becker,U.; Riplinger,C.
     The ORCA quantum chemistry program package
     J. Chem. Phys., 2020 152 Art. No. L224108
     doi.org/10.1063/5.0004608

List of optional additional citations

  1. Neese,F.
     Approximate second-order SCF convergence for spin unrestricted wavefunctions
     Chem. Phys. Lett., 2000 325(1-3)93-98
     doi.org/10.1016/s0009-2614(00)00662-x

Timings for individual modules:

Sum of individual times          ...       19.479 sec (=   0.325 min)
Startup calculation              ...        1.229 sec (=   0.020 min)   6.3 %
SCF iterations                   ...        8.432 sec (=   0.141 min)  43.3 %
Property calculations            ...        0.117 sec (=   0.002 min)   0.6 %
SCF Gradient evaluation          ...        9.702 sec (=   0.162 min)  49.8 %
                             ****ORCA TERMINATED NORMALLY****
TOTAL RUN TIME: 0 days 0 hours 0 minutes 20 seconds 612 msec
  ------------------------------------------------------------------------
          * successful ORCA run, taking over control again...

         :::::::::::::::::::::::::::::::::::::::::::::::::::::
         ::                  ORCA SUMMARY                   ::
         :::::::::::::::::::::::::::::::::::::::::::::::::::::
         :: total energy            -635.160807210324 Eh    ::
         :: gradient norm              0.000847233180 Eh/a0 ::
         :: HOMO-LUMO gap              0.000000000000 eV    ::
         :::::::::::::::::::::::::::::::::::::::::::::::::::::

           -------------------------------------------------
          |                Property Printout                |
           -------------------------------------------------
           -------------------------------------------------
          |                Geometry Summary                 |
           -------------------------------------------------

      molecular mass/u    :      118.2403733
   center of mass at/Å    :       -0.0016705       0.0853579      -0.0818597
  moments of inertia/u·Å² :        0.1402991E+03   0.4354290E+03   0.4432272E+03
rotational constants/cm⁻¹ :        0.1201549E+00   0.3871499E-01   0.3803384E-01

 * 18 selected distances

     #   Z          #   Z                                           value/Å
     1   6 C        2   6 C                                       1.5247011 (max)
     2   6 C        3   6 C                                       1.5223741
     5   6 C        6   6 C                                       1.5245266
     5   6 C        7   6 C                                       1.5224976
     1   6 C        8   1 H                                       1.0932752 (min)
     1   6 C        9   1 H                                       1.0955369
     1   6 C       10   1 H                                       1.0955514
     2   6 C       11   1 H                                       1.0952641
     3   6 C       12   1 H                                       1.0936224
     3   6 C       13   1 H                                       1.0948276
     3   6 C       14   1 H                                       1.0969425
     5   6 C       15   1 H                                       1.0953362
     6   6 C       16   1 H                                       1.0954445
     6   6 C       17   1 H                                       1.0952331
     6   6 C       18   1 H                                       1.0932984
     7   6 C       19   1 H                                       1.0970958
     7   6 C       20   1 H                                       1.0935052
     7   6 C       21   1 H                                       1.0949976

 * 2 distinct bonds (by element types)

   Z      Z             #   av. dist./Å        max./Å        min./Å
   1 H    6 C          14     1.0949951     1.0970958     1.0932752
   6 C    6 C           4     1.5235248     1.5247011     1.5223741


optimized geometry written to: xtbopt.coord


           -------------------------------------------------
          | TOTAL ENERGY             -635.160807210324 Eh   |
          | GRADIENT NORM               0.000847233180 Eh/α |
           -------------------------------------------------

------------------------------------------------------------------------
 * finished run on 2025/04/11 at 12:51:27.796     
------------------------------------------------------------------------
 total:
 * wall-time:     0 d,  0 h,  1 min, 25.779 sec
 *  cpu-time:     0 d,  0 h,  0 min,  2.468 sec
 * ratio c/w:     0.029 speedup
 SCF:
 * wall-time:     0 d,  0 h,  0 min, 19.254 sec
 *  cpu-time:     0 d,  0 h,  0 min,  1.211 sec
 * ratio c/w:     0.063 speedup
 ANC optimizer:
 * wall-time:     0 d,  0 h,  1 min,  6.506 sec
 *  cpu-time:     0 d,  0 h,  0 min,  1.247 sec
 * ratio c/w:     0.019 speedup

