16
 energy: -17.084695944202 gnorm: 0.021720402743 xtb: 6.7.1 (edcfbbe)
C            1.84428609156235       -0.76570900515181       -0.10488379723473
C            1.11911509039238        0.39423190773330        0.57435177803440
C            0.01168461433955        1.01207055108611       -0.28482465836070
C           -1.09922078853607        0.04141402597382       -0.69211340715643
N           -1.81677688205565       -0.60738344452955        0.42176311792516
H            2.68709886926817       -1.11181556747073        0.50218297644240
H            1.18064746050565       -1.62241923967153       -0.26285011433453
H            2.23697047771656       -0.46404189267704       -1.08291571559499
H            0.70054887851528        0.05478640833764        1.53079856443079
H            1.84359760872127        1.17881244808132        0.82388933465610
H           -0.43975148480850        1.85333732615027        0.25888307618125
H            0.45640842477805        1.43019623011960       -1.19911548875117
H           -0.69159294431050       -0.74548001003862       -1.33673342151754
H           -1.83146684180385        0.58465026936512       -1.30078051395980
H           -1.14639795287487       -1.15924419661196        0.95018612474715
H           -2.11174685171809        0.12163428794274        1.06734495848375
16
 energy: -17.085461952965 gnorm: 0.009555085915 xtb: 6.7.1 (edcfbbe)
C            1.84529508285641       -0.76212354225339       -0.10799093104653
C            1.12046693754216        0.39029210948502        0.57524199599181
C            0.01824510486752        1.01039587398857       -0.28613929671955
C           -1.09567381232857        0.03876150852308       -0.69238737542440
N           -1.80972679018745       -0.59583996122483        0.41633262561034
H            2.68166825169573       -1.09846511580229        0.50366031795363
H            1.18113358923035       -1.61128297734742       -0.26425156619983
H            2.23404667662082       -0.45023389816953       -1.07738132794145
H            0.69983357881073        0.04375736747147        1.52495065651067
H            1.84469618398732        1.17351934276650        0.81726392180206
H           -0.42670762927824        1.84671580745630        0.26436800802032
H            0.46184253932645        1.42035147869093       -1.19870967262525
H           -0.69298756428695       -0.75820383322119       -1.32361179201460
H           -1.83842994044877        0.58160748863592       -1.28612536421690
H           -1.15230864984832       -1.16371496627652        0.94479734092299
H           -2.12798978886747        0.12950341591607        1.05516527336780
16
 energy: -17.085617808183 gnorm: 0.003372677801 xtb: 6.7.1 (edcfbbe)
C            1.85164945736579       -0.76088665478846       -0.11126050008470
C            1.12265517459963        0.38814478921226        0.57452150480746
C            0.02241271750564        1.01072750134987       -0.28806342243451
C           -1.09649777152883        0.03753250452330       -0.68750389051161
N           -1.80989678411907       -0.58940365217892        0.41689105892531
H            2.68452223021022       -1.09443786692656        0.50230223390312
H            1.18899602385011       -1.60695688285884       -0.27087884689513
H            2.23953226001642       -0.44148394340691       -1.07513756939837
H            0.69798863344068        0.03743562538221        1.51874184856674
H            1.84395079528076        1.17146334239693        0.81812797250832
H           -0.42097556845022        1.84517890021459        0.26284469322867
H            0.46635861924216        1.41377641786756       -1.20020847767458
H           -0.69313832994369       -0.76185138859969       -1.31212509866957
H           -1.83804931281561        0.58136680573903       -1.28012562696206
H           -1.16554707844941       -1.16708581281567        0.94924240733547
H           -2.15055729651284        0.13152041352801        1.04781452734655
16
 energy: -17.085653692298 gnorm: 0.001735105734 xtb: 6.7.1 (edcfbbe)
C            1.85724962779787       -0.75894330331058       -0.11392704854295
C            1.12399023708472        0.38669090348603        0.57528139755741
C            0.02387429440918        1.00937043405396       -0.28819021489501
C           -1.09834595707968        0.03579485558583       -0.68449836098764
N           -1.81380641427506       -0.58575271455162        0.41889823074746
H            2.68912377674607       -1.09290168459478        0.50067826645386
H            1.19631274188705       -1.60539723333052       -0.27823017898457
H            2.24671485293583       -0.43445854910759       -1.07545850817540
H            0.69720066363715        0.03174703032408        1.51662705167169
H            1.84340425271403        1.17024026420149        0.82329039983552
H           -0.41756524009888        1.84559959825308        0.26104252013511
H            0.46738244703133        1.40834771939383       -1.20185173471757
H           -0.69442807703994       -0.76482382592642       -1.30695809600764
H           -1.83604982252738        0.58086724756068       -1.28067347543797
H           -1.17641992812447       -1.16530540837182        0.95562235707689
H           -2.16523368540608        0.13396476497305        1.04353020826191
16
 energy: -17.085680807845 gnorm: 0.001773352103 xtb: 6.7.1 (edcfbbe)
C            1.86609919321442       -0.75534683641876       -0.11758561610792
C            1.12509324652169        0.38366659595359        0.57622092807045
C            0.02525049099426        1.00646026188227       -0.28771841107441
C           -1.10111483622117        0.03331498832433       -0.68011881902522
N           -1.82197092078755       -0.58111637037408        0.42218422865728
H            2.69694618544952       -1.09172230338283        0.49829110396164
H            1.20838869700764       -1.60341469937513       -0.29124041056042
H            2.25935067530758       -0.42309193958569       -1.07581671156704
H            0.69595045670519        0.02083463200972        1.51370073776907
H            1.84087172528047        1.16826837881515        0.83296115138905
H           -0.41334483499882        1.84682198133435        0.25797686852500
H            0.46799648813475        1.40022480379101       -1.20450602740568
H           -0.69683523152962       -0.76993211320257       -1.29976488427725
H           -1.83271053128131        0.57963942380881       -1.28330374000404
H           -1.19152592311798       -1.15865178394804        0.96678726837091
H           -2.18504111098732        0.13908507900658        1.03711514726969
16
 energy: -17.085695973107 gnorm: 0.001349014097 xtb: 6.7.1 (edcfbbe)
C            1.87008996747617       -0.75303486126252       -0.11960348319648
C            1.12484203115133        0.38107829203580        0.57674889237361
C            0.02544213721139        1.00376879763790       -0.28708056594366
C           -1.10181981478430        0.03202419956357       -0.67917260034928
N           -1.82645759109601       -0.57845716965380        0.42326668938476
H            2.69995093099934       -1.09081712308958        0.49707645768783
H            1.21473721085722       -1.60192647203462       -0.29907401324649
H            2.26588594415119       -0.41643751638822       -1.07547483324281
H            0.69495303069083        0.01349285986101        1.51224911435982
H            1.83799313660057        1.16668594927984        0.83833084464009
H           -0.41220079683292        1.84558203910490        0.25743370701415
H            0.46828627101580        1.39646571378171       -1.20457907744535
H           -0.69790331725586       -0.77389058785661       -1.29602209635079
H           -1.83146173929128        0.57776204564536       -1.28545631223953
H           -1.19661303349550       -1.15174985393312        0.97323776092899
H           -2.19232059770622        0.14449378594708        1.03330232961626
16
 energy: -17.085712407167 gnorm: 0.000571743070 xtb: 6.7.1 (edcfbbe)
C            1.87385422004917       -0.75098914868816       -0.12177225611545
C            1.12371558375968        0.37763362437152        0.57696198070927
C            0.02506193639543        1.00111769859191       -0.28679852145306
C           -1.10189255016451        0.03046102973330       -0.67903821828986
N           -1.83050192023411       -0.57542480134935        0.42432970268134
H            2.70185253413478       -1.09047245578238        0.49635218249329
H            1.22088600734239       -1.60005244101673       -0.30829908683712
H            2.27271355179358       -0.40871126049211       -1.07419260525105
H            0.69297481655580        0.00479028800755        1.51003148431309
H            1.83368771521675        1.16433733788274        0.84372138095055
H           -0.41242197210591        1.84307716399045        0.25772075331569
H            0.46873556250906        1.39406474959575       -1.20385734468766
H           -0.69853126663200       -0.77891821158402       -1.29164611790043
H           -1.83002649604279        0.57471505010002       -1.28823334977892
H           -1.19956361854071       -1.14245409748325        0.98049223670913
H           -2.19714033434486        0.15186557276146        1.02941059313232
16
 energy: -17.085725381504 gnorm: 0.000635957027 xtb: 6.7.1 (edcfbbe)
C            1.87788261966113       -0.74869027261415       -0.12445368517051
C            1.12302734862434        0.37445345364912        0.57771159453588
C            0.02480655583186        0.99805995078322       -0.28652966171830
C           -1.10239440418768        0.02853835854161       -0.67899695581485
N           -1.83471223017131       -0.57151630320392        0.42570054568147
H            2.70329875740377       -1.09026751091988        0.49568293648418
H            1.22727068849825       -1.59763798050709       -0.31889722486899
H            2.28068988909447       -0.40026022510233       -1.07280318220331
H            0.69075360718511       -0.00376974155889        1.50787070983392
H            1.82998024612995        1.16201619325509        0.84976387132208
H           -0.41255899793067        1.83991953219288        0.25814249963066
H            0.46918247150865        1.39121749962291       -1.20304813442711
H           -0.69914913255667       -0.78451784188960       -1.28661832355482
H           -1.82872421166248        0.57103879374896       -1.29176689056082
H           -1.20378927353831       -1.13352073054626        0.98767027246402
H           -2.20216016419866        0.15997692318703        1.02575444235761
16
 energy: -17.085735388079 gnorm: 0.000696559531 xtb: 6.7.1 (edcfbbe)
C            1.88173729206430       -0.74696447191652       -0.12643556048265
C            1.12237789276079        0.37181907562786        0.57778527100487
C            0.02456258164591        0.99635202573350       -0.28643452550146
C           -1.10269746222335        0.02679394917490       -0.67820340376955
N           -1.83867065568041       -0.56804673454877        0.42704769492823
H            2.70495890582225       -1.09070106300856        0.49537762853604
H            1.23277747107423       -1.59543579142539       -0.32785520245585
H            2.28787663176766       -0.39303924447444       -1.07121833618602
H            0.68924672547806       -0.01079085428689        1.50565465712398
H            1.82689714881452        1.15998943436111        0.85392897281907
H           -0.41283144408836        1.83823189709014        0.25820998575760
H            0.46934753454213        1.38928796175617       -1.20279284243041
H           -0.69945820119112       -0.78922460973864       -1.28173641089553
H           -1.82688201278195        0.56805728003089       -1.29445596452340
H           -1.20926243049205       -1.12777645234546        0.99311049423592
H           -2.20657620782083        0.16648769660880        1.02320035583030
16
 energy: -17.085744525721 gnorm: 0.000481158257 xtb: 6.7.1 (edcfbbe)
C            1.88516299904303       -0.74518284971491       -0.12836692559445
C            1.12237376604727        0.36996346363211        0.57811858103217
C            0.02457088842442        0.99445646755223       -0.28627021081911
C           -1.10336344193435        0.02519663258068       -0.67734436774782
N           -1.84255342692979       -0.56458461221458        0.42830092454017
H            2.70625534165153       -1.09093440909257        0.49510112726488
H            1.23771076169992       -1.59323934084140       -0.33604054388678
H            2.29459259545831       -0.38656114659811       -1.06991017580928
H            0.68837554297499       -0.01638144912510        1.50395593128896
H            1.82487865319402        1.15866052297796        0.85777165536277
H           -0.41266010783945        1.83645581174402        0.25825161503565
H            0.46938567852977        1.38705473008257       -1.20269446282646
H           -0.69985092932274       -0.79343174353489       -1.27702173630425
H           -1.82521652119940        0.56540132307836       -1.29725688330470
H           -1.21584885314739       -1.12421125065933        0.99724859766886
H           -2.21040917695839        0.17237794877167        1.02133968809052
16
 energy: -17.085753062518 gnorm: 0.000273421977 xtb: 6.7.1 (edcfbbe)
C            1.88881137720212       -0.74331666144325       -0.13022988591476
C            1.12239862712864        0.36815037507423        0.57841865373908
C            0.02453103167976        0.99271113107646       -0.28587893191751
C           -1.10394724174965        0.02353019872569       -0.67630476521606
N           -1.84678251032534       -0.56095933160635        0.42945572726512
H            2.70807848535389       -1.09106483271929        0.49458735437974
H            1.24282288580928       -1.59104725639980       -0.34374834950592
H            2.30125405873988       -0.38040416347435       -1.06885799938318
H            0.68776640312303       -0.02166368604367        1.50251987229097
H            1.82299015996029        1.15744072952773        0.86126068563938
H           -0.41243738507041        1.83512807030816        0.25825855657783
H            0.46920153974880        1.38470842702648       -1.20263886897401
H           -0.70017782654802       -0.79765559075609       -1.27233865077741
H           -1.82327125029660        0.56286931211662       -1.29995383264822
H           -1.22362622643202       -1.12175003961811        1.00090795571355
H           -2.21420835863190        0.17836341684426        1.01972529272252
16
 energy: -17.085760418571 gnorm: 0.000221205154 xtb: 6.7.1 (edcfbbe)
C            1.89228671855397       -0.74152721642624       -0.13188881101261
C            1.12256806876767        0.36643664599556        0.57863228302846
C            0.02464715147082        0.99087640909779       -0.28566297707625
C           -1.10466048721229        0.02207718289874       -0.67519196821755
N           -1.85118055962278       -0.55751824983985        0.43046231728180
H            2.71015464268017       -1.09073213001679        0.49400752437657
H            1.24797154152616       -1.58921220254094       -0.35081367325634
H            2.30715002772090       -0.37427907653049       -1.06782628495507
H            0.68742374237919       -0.02701736962940        1.50096584201146
H            1.82119877252590        1.15633980639477        0.86478249104587
H           -0.41212249880880        1.83358169552520        0.25817520618665
H            0.46922941541177        1.38245120493036       -1.20268064907909
H           -0.70065137036426       -0.80161820469301       -1.26757600831255
H           -1.82143640421589        0.56053262811535       -1.30261499173564
H           -1.23149652164500       -1.11950948572195        1.00423436116420
H           -2.21767846947576        0.18415846107962        1.01817815254121
16
 energy: -17.085766413640 gnorm: 0.000260394903 xtb: 6.7.1 (edcfbbe)
C            1.89543151685053       -0.73984151672367       -0.13352434487496
C            1.12243344710609        0.36464175483715        0.57900519546095
C            0.02455243245726        0.98921962618649       -0.28519719985627
C           -1.10511374297750        0.02067309266934       -0.67450598885500
N           -1.85484517993422       -0.55428632468143        0.43129484290656
H            2.71231563383630       -1.09007865471439        0.49308706771374
H            1.25279820936194       -1.58765555789792       -0.35666398750359
H            2.31200872438588       -0.36915184552034       -1.06734315760700
H            0.68672273480858       -0.03190557297974        1.49974493721076
H            1.81924880458174        1.15508156343932        0.86808692121577
H           -0.41191079903447        1.83232159890244        0.25832582648385
H            0.46915452001654        1.38029587596800       -1.20241242203435
H           -0.70100422769154       -0.80531855018692       -1.26364273454326
H           -1.81968929513324        0.55839036084231       -1.30509193018363
H           -1.23806372957359       -1.11698010983451        1.00737918808673
H           -2.22063527936854        0.18963435833258        1.01664060037082
16
 energy: -17.085771397479 gnorm: 0.000252465241 xtb: 6.7.1 (edcfbbe)
C            1.89805549141145       -0.73845733947152       -0.13485858539161
C            1.12234247257043        0.36303010885801        0.57929676453949
C            0.02461803506990        0.98775943343410       -0.28499825306783
C           -1.10548747628072        0.01955000071120       -0.67386064515420
N           -1.85806825558652       -0.55161276788837        0.43195487377456
H            2.71441622832354       -1.08921268654819        0.49215609322241
H            1.25701679721319       -1.58658149492976       -0.36149976457329
H            2.31569286224252       -0.36447901210282       -1.06691570154432
H            0.68605547159896       -0.03657594263357        1.49845585268021
H            1.81752673796539        1.15387998688114        0.87123467257196
H           -0.41174852772263        1.83102557178071        0.25833641635731
H            0.46935016797443        1.37861464333252       -1.20225496911448
H           -0.70129231909596       -0.80843820175867       -1.26009559272973
H           -1.81828704948490        0.55646294688138       -1.30713380138052
H           -1.24335917431612       -1.11423079429770        1.01029368599683
H           -2.22342769219119        0.19430564639025        1.01507176780433
16
 energy: -17.085775828018 gnorm: 0.000216921754 xtb: 6.7.1 (edcfbbe)
C            1.90045251757698       -0.73719355460297       -0.13613419019512
C            1.12213145873172        0.36140106489271        0.57959177270743
C            0.02458393330108        0.98641195824012       -0.28469459452910
C           -1.10580067692606        0.01854290402251       -0.67340387777921
N           -1.86082998543819       -0.54924089223165        0.43252208779919
H            2.71653718819127       -1.08822498643839        0.49106649315160
H            1.26099553451866       -1.58570490054916       -0.36563727063768
H            2.31868907056936       -0.36034735517661       -1.06673951302575
H            0.68528764953767       -0.04099725116482        1.49723232005023
H            1.81575862904011        1.15258063148993        0.87425537645483
H           -0.41161604714441        1.82986144942501        0.25849806834130
H            0.46956217916941        1.37704056434573       -1.20191394752280
H           -0.70151547764478       -0.81130089809440       -1.25692060410150
H           -1.81699350431715        0.55470468521824       -1.30911390171197
H           -1.24761254918023       -1.11101901814418        1.01329662563316
H           -2.22622615029368        0.19852569740667        1.01327796935650
16
 energy: -17.085779866178 gnorm: 0.000173680124 xtb: 6.7.1 (edcfbbe)
C            1.90261025297674       -0.73601446653998       -0.13739638092846
C            1.12192154947771        0.35981239895715        0.57994582274918
C            0.02463565548195        0.98515128396317       -0.28442999090753
C           -1.10593883908976        0.01752757702097       -0.67296294417551
N           -1.86334107468334       -0.54709734130066        0.43303905610675
H            2.71855444447024       -1.08716794883160        0.48990356289929
H            1.26468725954113       -1.58498567216007       -0.36948154821807
H            2.32129009992084       -0.35643630685431       -1.06669840068818
H            0.68455020466257       -0.04533387057806        1.49613127105234
H            1.81408201783321        1.15129333272831        0.87720394952836
H           -0.41146394529672        1.82870194967457        0.25868092697423
H            0.46978849098377        1.37566989423754       -1.20161012486009
H           -0.70159495011629       -0.81398445025614       -1.25403329876726
H           -1.81572610859347        0.55294737267156       -1.31080910350045
H           -1.25125521549162       -1.10744518016266        1.01646600983558
H           -2.22939607238519        0.20240152606893        1.01123400689097
16
 energy: -17.085783588860 gnorm: 0.000156558907 xtb: 6.7.1 (edcfbbe)
C            1.90483989512903       -0.73491077549609       -0.13857630788076
C            1.12182271089923        0.35827265874599        0.58018144507971
C            0.02457971673569        0.98390113564923       -0.28401084696719
C           -1.10621641247226        0.01663075457557       -0.67255569885760
N           -1.86577897726833       -0.54512791637211        0.43347032251656
H            2.72073427600179       -1.08622754558434        0.48868850611839
H            1.26833847968898       -1.58426347131160       -0.37304436523171
H            2.32375823334452       -0.35275809543454       -1.06668559874341
H            0.68399236848212       -0.04946717785272        1.49496225298034
H            1.81260165216706        1.14999067167761        0.87995874271377
H           -0.41140591273924        1.82757081109759        0.25901911177230
H            0.46997680943679        1.37430486058526       -1.20110427956531
H           -0.70169260621322       -0.81652626260487       -1.25114442472127
H           -1.81461278204167        0.55128454920621       -1.31258823053906
H           -1.25463134099525       -1.10362611002980        1.01972208689453
H           -2.23290234046346        0.20599201178733        1.00889009842182
16
 energy: -17.085786935334 gnorm: 0.000153086583 xtb: 6.7.1 (edcfbbe)
C            1.90677742236688       -0.73382510015617       -0.13983128462857
C            1.12170044234269        0.35680748909753        0.58052880633756
C            0.02466573940100        0.98273775139845       -0.28368229533893
C           -1.10625850611400        0.01562571686388       -0.67207679754773
N           -1.86809881267108       -0.54330322954530        0.43390853958153
H            2.72256974822425       -1.08525324545829        0.48748628462642
H            1.27168884515327       -1.58360634505771       -0.37660160065041
H            2.32608066308199       -0.34922844771984       -1.06677560865795
H            0.68357868756481       -0.05337373828364        1.49408267412688
H            1.81114771986485        1.14882714813727        0.88252585567064
H           -0.41120977530146        1.82642218444691        0.25941393439053
H            0.47013180661145        1.37317017545676       -1.20074513975525
H           -0.70162719766696       -0.81902661040625       -1.24843161855424
H           -1.81326493425369        0.54962266848322       -1.31414945206152
H           -1.25790899511434       -1.09988378199435        1.02303729005077
H           -2.23656908379789        0.20932746337626        1.00649322640139
16
 energy: -17.085789922502 gnorm: 0.000152578982 xtb: 6.7.1 (edcfbbe)
C            1.90876385307905       -0.73285484040969       -0.14093346689541
C            1.12178287220173        0.35550759761496        0.58072850115348
C            0.02462117592030        0.98162460235704       -0.28318888630216
C           -1.10641388612730        0.01470921104668       -0.67164736263526
N           -1.87033891985093       -0.54155514717693        0.43425138702444
H            2.72445261914698       -1.08457370423766        0.48637107263262
H            1.27483302773145       -1.58288252709904       -0.37992211650892
H            2.32837473291621       -0.34593654247640       -1.06677438875597
H            0.68341028207989       -0.05696554399408        1.49313269598445
H            1.81007852875907        1.14775357686205        0.88478338018128
H           -0.41123543684747        1.82531941504578        0.25991916764197
H            0.47012021637831        1.37209571855418       -1.20020791694189
H           -0.70153029927584       -0.82135117483122       -1.24578692932051
H           -1.81212827841809        0.54795832099391       -1.31573617241365
H           -1.26111956052694       -1.09628848109696        1.02613502908575
H           -2.24026715747464        0.21247961748610        1.00405882006092
16
 energy: -17.085792591686 gnorm: 0.000140900385 xtb: 6.7.1 (edcfbbe)
C            1.91059962531146       -0.73188293908787       -0.14206523215055
C            1.12181230997033        0.35428038303336        0.58095578199394
C            0.02463212826567        0.98059109623142       -0.28277249145528
C           -1.10653769596260        0.01381163011471       -0.67115469477851
N           -1.87254174942571       -0.53991819226234        0.43458998204322
H            2.72607871625535       -1.08394727578798        0.48530911723479
H            1.27776482421714       -1.58210679473448       -0.38319671402683
H            2.33067859867944       -0.34285492611985       -1.06680845489767
H            0.68329638815046       -0.06019312710872        1.49237124142173
H            1.80901670349727        1.14677163554099        0.88679988202690
H           -0.41118188755735        1.82422453744106        0.26047137706316
H            0.47015772542430        1.37118886375855       -1.19973709761104
H           -0.70139076077331       -0.82364612602580       -1.24309224297090
H           -1.81088118143692        0.54637871781003       -1.31731865230627
H           -1.26441673308331       -1.09309432387872        1.02904851708045
H           -2.24368324184043        0.21543693971434        1.00178249532398
16
 energy: -17.085794984800 gnorm: 0.000130405137 xtb: 6.7.1 (edcfbbe)
C            1.91228942710762       -0.73100571117693       -0.14309385427497
C            1.12193701475308        0.35320294801930        0.58113373968579
C            0.02459640056449        0.97962390558061       -0.28232153671019
C           -1.10658436251328        0.01286539767302       -0.67072721813701
N           -1.87461257286694       -0.53825475298398        0.43491896858007
H            2.72750558111450       -1.08349681099269        0.48439329896993
H            1.28044750947469       -1.58136025397234       -0.38645170034747
H            2.33290041908318       -0.33982039790842       -1.06670882199237
H            0.68331566206437       -0.06327482134032        1.49159585500389
H            1.80812428331917        1.14594076109786        0.88868182271477
H           -0.41122738841455        1.82319274433321        0.26103303751598
H            0.47001979440868        1.37035302617898       -1.19927264746926
H           -0.70118273848246       -0.82586353883419       -1.24060722737175
H           -1.80964356823218        0.54473765028713       -1.31882884119610
H           -1.26768134240050       -1.09018576970470        1.03172991627373
H           -2.24680034928809        0.21838572238218        0.99970802274609
16
 energy: -17.085796666313 gnorm: 0.000112554978 xtb: 6.7.1 (edcfbbe)
C            1.91376753536248       -0.73029082682159       -0.14380230829553
C            1.12198919823758        0.35231324797805        0.58136228873648
C            0.02460894090216        0.97875694674329       -0.28205698101378
C           -1.10687136306640        0.01226638952511       -0.67037949215588
N           -1.87643840097633       -0.53695123555259        0.43511443429730
H            2.72892927965921       -1.08288202567059        0.48369899130431
H            1.28283772919550       -1.58085124705920       -0.38868179460907
H            2.33466215422713       -0.33756990216925       -1.06663683020755
H            0.68330889311280       -0.06534112617160        1.49126262522977
H            1.80747363756154        1.14526023873317        0.88990774527810
H           -0.41123652795669        1.82235345658130        0.26122095129350
H            0.47020025807721        1.36944383372836       -1.19894864525403
H           -0.70144936917687       -0.82736968036483       -1.23889045878771
H           -1.80893632031273        0.54385802706537       -1.31979513081004
H           -1.27067907099928       -1.08861870154648        1.03329215420437
H           -2.24876280415554        0.22066270364020        0.99851526478087
16
 energy: -17.085798258987 gnorm: 0.000106507783 xtb: 6.7.1 (edcfbbe)
C            1.91504160458136       -0.72961591557229       -0.14452441333077
C            1.12202213729065        0.35154173067535        0.58145756260824
C            0.02458930248146        0.97809860450938       -0.28181355394114
C           -1.10697132955672        0.01162370217770       -0.67002289943661
N           -1.87800979084072       -0.53563576532037        0.43537395204932
H            2.72992520076915       -1.08254674054399        0.48315237305131
H            1.28486262069042       -1.58023808439422       -0.39110352105192
H            2.33641304991137       -0.33528804680936       -1.06645063160722
H            0.68322007412913       -0.06763917474681        1.49057623137786
H            1.80669015231192        1.14468974203138        0.89133321107644
H           -0.41117579570054        1.82171442525407        0.26151219288406