31
 energy: -767.461797254968 gnorm: 0.041902592173 xtb: 6.7.1 (edcfbbe)
C           -3.54277718556990        1.61657040241635       -0.98408042823607
C           -3.12381953958425        0.17667580057829       -0.70229259761120
H           -3.50108969765143       -0.48456192011472       -1.48814664165944
C           -1.62526598512020       -0.03420748891516       -0.58488094965918
C           -1.11151889539254       -1.31676318458349       -0.86144624398173
C            0.22433824049941       -1.57918245829978       -0.75213530593329
C            1.12895942190027       -0.57077480205293       -0.35920436125917
C            2.51328134821370       -0.81604004656161       -0.24701534600946
C            3.36586015939150        0.18751242018309        0.13995080506202
C            2.85347864026445        1.47436503765333        0.42890026279006
C            1.51980521527347        1.72957693286642        0.32733892354505
C            0.61618376547305        0.71849771251839       -0.06941309173076
C           -0.76751038134010        0.95621567952372       -0.18150335268043
O            4.71691822809019        0.06715453662976        0.28110746952457
C            5.31482231815514       -1.18585178652548        0.01178783230522
C           -3.67332472892775       -0.33948786565044        0.61256703797144
O           -4.07445162930550       -1.47374073835305        0.77676810244421
O           -3.62312101370550        0.54637701334211        1.58953321360436
H           -4.60799912654193        1.65243576423224       -1.19845463743107
H           -3.34512838278231        2.25397724109880       -0.12795973615670
H           -2.99857499782875        1.99254734938295       -1.84582748331793
H           -1.79704095979632       -2.09868930542998       -1.15536441861197
H            0.60430398616778       -2.56707201613754       -0.96754316692874
H            2.87165459657251       -1.80771405120105       -0.47388201510999
H            3.55670169957607        2.23504114129041        0.72898893962303
H            1.13604739010341        2.71380733840256        0.54903151794329
H           -1.13266460950191        1.94258058456081        0.05567258242467
H            4.93192040098546       -1.95747565956741        0.68485592420348
H            6.37824551152637       -1.04074809356118        0.18732403758301
H            5.14998620738210       -1.48571474635836       -1.02641222495483
H           -3.93460897724353        0.18583231288235        2.44204449508213
31
 energy: -767.464008661687 gnorm: 0.018280209717 xtb: 6.7.1 (edcfbbe)
C           -3.54585873916507        1.62090996116201       -0.98653872613294
C           -3.12928413808747        0.18167216988210       -0.68747890799299
H           -3.51037294573722       -0.48448914047460       -1.46629690713496
C           -1.62681049972509       -0.03425191799871       -0.58995710367304
C           -1.11027864870150       -1.32287833978550       -0.86269008628110
C            0.23115198825833       -1.58759404440040       -0.75315232304455
C            1.13750585471410       -0.57540081510030       -0.35792518831826
C            2.52705746628166       -0.82116720290698       -0.24659818605598
C            3.37193938013320        0.19424113108313        0.14265724431412
C            2.86143023778190        1.48423029566893        0.43321962976138
C            1.52263786046080        1.73707353169833        0.32980365253284
C            0.61941246061622        0.72062207831209       -0.06893216671855
C           -0.76684856516249        0.96147780967276       -0.18782335348486
O            4.72439859479738        0.07875925734988        0.28523944300872
C            5.31494910267949       -1.18985196186923        0.01098592086850
C           -3.69610074713695       -0.34544197970777        0.61683976489061
O           -4.09578008577687       -1.48841119955164        0.77654442134590
O           -3.63543971597045        0.54757942957312        1.60394785373020
H           -4.61770858123682        1.66141315048977       -1.19186574950796
H           -3.33526061354764        2.28308347909814       -0.14652971773103
H           -3.00872918212201        1.98738236458083       -1.86361470897211
H           -1.79586786647816       -2.10676141196728       -1.16792846877873
H            0.61377800325595       -2.57867848221584       -0.97311446063918
H            2.89283317350047       -1.81543313629660       -0.47270513958729
H            3.56228379934594        2.25387426601369        0.73549345027391
H            1.13535059180995        2.72573709108033        0.55134928978944
H           -1.13439843208545        1.95446390739711        0.04536675726799
H            4.92783302219994       -1.96306636727553        0.68449956491559
H            6.38380303913538       -1.06120433868827        0.18263456735932
H            5.14652187850977       -1.49063704873249       -1.02944616444184
H           -3.94053769079270        0.16388872859497        2.44432497114526
31
 energy: -767.464530026077 gnorm: 0.008832683091 xtb: 6.7.1 (edcfbbe)
C           -3.55034874428735        1.62080688692516       -0.98493062466989
C           -3.13129291125563        0.18314431216843       -0.67908678766878
H           -3.51773531706858       -0.48366835875075       -1.45504220060999
C           -1.62618698601446       -0.03632469476030       -0.58788187118344
C           -1.10655212481512       -1.32534210201535       -0.86563695098837
C            0.23815544573730       -1.58988871582111       -0.75674038219705
C            1.14592219438205       -0.57665675980106       -0.35859304380607
C            2.53831138173603       -0.82211155760252       -0.24558217334117
C            3.37921392105679        0.19935291608161        0.14508501185257
C            2.86935563269926        1.49076235220665        0.43551626697893
C            1.52775252416914        1.74209640289875        0.32873279747272
C            0.62465936086665        0.72323017835024       -0.07176767912116
C           -0.76365819643790        0.96293007616545       -0.19013589656097
O            4.73419669426420        0.08432984068556        0.28824116333257
C            5.31661082830382       -1.19598591558594        0.00991541793293
C           -3.69889035780547       -0.34956834806199        0.62340382235725
O           -4.12248287902641       -1.48598311355485        0.77327910565742
O           -3.64944765733313        0.55053036091028        1.61850039529288
H           -4.62784182090821        1.66612199693650       -1.17219952331833
H           -3.31951883186186        2.30456804942297       -0.16350756809864
H           -3.02811177497011        1.97229501222853       -1.88089569409984
H           -1.79093742146475       -2.11169471467410       -1.17483336161417
H            0.62211967966754       -2.58229873812401       -0.97928881128995
H            2.90908485659332       -1.81651360217319       -0.47009183705690
H            3.56634343051351        2.26604890229799        0.74045802803312
H            1.13806643827592        2.73228150797203        0.55108732258920
H           -1.13226132855008        1.95940972865332        0.03808651307439
H            4.92090008248910       -1.96473429097586        0.68499673584205
H            6.38842070243885       -1.07884092310755        0.17887150413836
H            5.14029694817818       -1.49161034127495       -1.03165711980314
H           -3.97053566387148        0.14445298762908        2.44199349796195
31
 energy: -767.464671585544 gnorm: 0.004876878078 xtb: 6.7.1 (edcfbbe)
C           -3.55190892755438        1.61863969360882       -0.98450418394195
C           -3.13123557183341        0.18261725841550       -0.67616122541368
H           -3.51624123331563       -0.48418937219759       -1.45295301521700
C           -1.62503668276884       -0.03637797009306       -0.58331815244158
C           -1.10408165226525       -1.32429239754155       -0.86416734806452
C            0.24145475525532       -1.58771888608812       -0.75781167112409
C            1.14979822609394       -0.57502368303411       -0.35914318506370
C            2.54246206424078       -0.82017359711132       -0.24532496577149
C            3.38319510598068        0.20157519161619        0.14562701957199
C            2.87356625976237        1.49296842536819        0.43563848227856
C            1.53151193838559        1.74408443085964        0.32759852494151
C            0.62793684060926        0.72529894727331       -0.07256478280538
C           -0.76098677503149        0.96358870112245       -0.18876634523887
O            4.73973855994100        0.08483207326046        0.28914060454767
C            5.31777659504428       -1.20054218768591        0.00927142374153
C           -3.71507927325867       -0.34547812610695        0.62109061652953
O           -4.13625103683143       -1.48068218738967        0.77158393322643
O           -3.65853908366593        0.55210865595511        1.62474075728886
H           -4.63235874808741        1.66545540649192       -1.15533689873915
H           -3.30630538332353        2.31069585012680       -0.17414057057419
H           -3.04311304204375        1.95990767029131       -1.89267498287030
H           -1.78679371773295       -2.11154716451620       -1.17498685657811
H            0.62563679858044       -2.57948594463021       -0.98328438896541
H            2.91443917830138       -1.81392615852699       -0.46871736566113
H            3.56831357817555        2.26966027591318        0.74187798431330
H            1.14184282236850        2.73438115391602        0.54960627546753
H           -1.12940779872537        1.96047281298427        0.03734420741411
H            4.91718767938558       -1.96530208967551        0.68531262173096
H            6.38983124915059       -1.08723391310572        0.17741885025806
H            5.13708773869571       -1.49218655238712       -1.03222815264762
H           -3.98083350675512        0.12901196478663        2.44012041184611
31
 energy: -767.464753055180 gnorm: 0.002999197338 xtb: 6.7.1 (edcfbbe)
C           -3.55159101519583        1.61626131912488       -0.98424696294476
C           -3.12938786434905        0.18144098835127       -0.67464427045155
H           -3.51196159083286       -0.48483167356826       -1.45319361129777
C           -1.62303853522972       -0.03532208089844       -0.57987659992901
C           -1.10182821091576       -1.32216579170173       -0.86201424667020
C            0.24357739501673       -1.58443421511094       -0.75836371918627
C            1.15179945848774       -0.57244055654595       -0.36005535519645
C            2.54371597353412       -0.81747987903919       -0.24598023819195
C            3.38553134323129        0.20259350157121        0.14509038021025
C            2.87615069656335        1.49363423924863        0.43471692591369
C            1.53447443152344        1.74510680557475        0.32654702106856
C            0.63035114512246        0.72714115579593       -0.07281266838677
C           -0.75858890039956        0.96450069423342       -0.18698619496692
O            4.74266392065717        0.08370219996467        0.28909704815529
C            5.31821797811712       -1.20369234041725        0.00893326369524
C           -3.71745615188705       -0.34591213887242        0.62062288888208
O           -4.14930842663975       -1.47582292240755        0.76996122146520
O           -3.66572259258253        0.55226749525824        1.62731724519394
H           -4.63454372028320        1.66316025423886       -1.13644828418287
H           -3.29179638385035        2.31053927317023       -0.18170082926915
H           -3.05850881871957        1.95121307948510       -1.90272989627034
H           -1.78326462479921       -2.10988025872457       -1.17249113670069
H            0.62757767438653       -2.57515198899844       -0.98612338345182
H            2.91532621573536       -1.81072646930358       -0.46885108404233
H            3.56989580897917        2.27017952269188        0.74128920723281
H            1.14582096175706        2.73524490280992        0.54800866446532
H           -1.12669943137529        1.96048506145304        0.03997241277393
H            4.91554765963775       -1.96604566758521        0.68531693547059
H            6.38972617126263       -1.09143282757560        0.17706797499985
H            5.13598643171656       -1.49342752723938       -1.03208204950461
H           -3.99906139214757        0.12243348456480        2.43493354495868
31
 energy: -767.464793634380 gnorm: 0.002597135389 xtb: 6.7.1 (edcfbbe)
C           -3.55188147758912        1.61421671596105       -0.98326738169973
C           -3.12696652261095        0.18014574257685       -0.67465978197640
H           -3.50547198749239       -0.48623209358405       -1.45517269676906
C           -1.62102994708370       -0.03423188227076       -0.57636616252788
C           -1.09979773123882       -1.32030743534257       -0.85946586025594
C            0.24519274889046       -1.58192388926629       -0.75788922332688
C            1.15293775130297       -0.57015182106452       -0.36033787811289
C            2.54407097605920       -0.81528943584566       -0.24719834891910
C            3.38709403503894        0.20297098478290        0.14399918546316
C            2.87807287678469        1.49384606575474        0.43340124513539
C            1.53678798927456        1.74582590315918        0.32621590249573
C            0.63205171984988        0.72845486977110       -0.07177046907953
C           -0.75689569191758        0.96539511493160       -0.18395713194022
O            4.74392212216633        0.08228262108671        0.28839497817964
C            5.31816835052016       -1.20518413363138        0.00888635071788
C           -3.72011208878065       -0.34632248550985        0.61780068110729
O           -4.16034575570543       -1.47255756900201        0.76655524177470
O           -3.67010489314272        0.55122522662587        1.62596801130721
H           -4.63689007732687        1.66179948686999       -1.11650933264374
H           -3.27782868906976        2.30955880291267       -0.18750666142863
H           -3.07461026538458        1.94366656426147       -1.91103953633093
H           -1.78084733236489       -2.10816342456554       -1.16879060543503
H            0.62902765618659       -2.57187716343556       -0.98696304327100
H            2.91465240743059       -1.80848596093538       -0.47059283900711
H            3.57205075555199        2.26983221010520        0.73927802550878
H            1.14936093395981        2.73593299714645        0.54764470082924
H           -1.12448412569874        1.96081902488355        0.04394216228803
H            4.91504000202206       -1.96680059599333        0.68527901372484
H            6.38934001436742       -1.09316338714138        0.17743360226719
H            5.13628965059062       -1.49511147983507       -1.03176048080282
H           -4.01318894823510        0.12096806842960        2.42870912999051
31
 energy: -767.464814737152 gnorm: 0.002129334598 xtb: 6.7.1 (edcfbbe)
C           -3.55254959647627        1.61307100533718       -0.98254270249650
C           -3.12544907639139        0.17938672679033       -0.67473738448599
H           -3.50076064035715       -0.48688363130022       -1.45692426416144
C           -1.61973364103440       -0.03326359311375       -0.57412034371138
C           -1.09850227261993       -1.31930149560103       -0.85735011734444
C            0.24631481920205       -1.58088784936628       -0.75673782718726
C            1.15388679583257       -0.56892394797105       -0.35989249538676
C            2.54480767228835       -0.81430258386711       -0.24811258775449
C            3.38851157789884        0.20323431745689        0.14297716443082
C            2.87984169124454        1.49420628424804        0.43242241275278
C            1.53855725993765        1.74644559194674        0.32667346971324
C            0.63326386137211        0.72924187901020       -0.07026003286736
C           -0.75583030257419        0.96630855166256       -0.18158789601663
O            4.74480002995849        0.08159774472073        0.28734298194022
C            5.31834096131566       -1.20549390143992        0.00896161902762
C           -3.72284737950821       -0.34717532927970        0.61494404932861
O           -4.17000922024314       -1.47118586858889        0.76176174879389
O           -3.67201227472707        0.54883323824571        1.62412583680702
H           -4.63937094742767        1.66175417836573       -1.09872639717626
H           -3.26550562998201        2.31033603671358       -0.19312639664765
H           -3.08941802722037        1.93795753410150       -1.91871969058249
H           -1.77987177823153       -2.10704064910247       -1.16611565690140
H            0.63016864164597       -2.57065867796471       -0.98619040264076
H            2.91455428449727       -1.80768550623664       -0.47247409747649
H            3.57455162282555        2.26994466895610        0.73719907619115
H            1.15190475537134        2.73675780472733        0.54828549117379
H           -1.12291615654059        1.96169934364054        0.04705769166702
H            4.91499882629666       -1.96710420535945        0.68540537198228
H            6.38958741637657       -1.09404353840080        0.17792812274281
H            5.13724320400270       -1.49660696582702       -1.03158111823750
H           -4.02295288008061        0.12092088827847        2.42436476064469
31
 energy: -767.464828957853 gnorm: 0.001430440038 xtb: 6.7.1 (edcfbbe)
C           -3.55389813238668        1.61233106625645       -0.98166026406436
C           -3.12426176743558        0.17894785152399       -0.67502686475370
H           -3.49662104844843       -0.48660201174715       -1.45921423371910
C           -1.61862300236527       -0.03225248244212       -0.57217583402913
C           -1.09736750818999       -1.31863994032879       -0.85506373234589
C            0.24735752438389       -1.58062593106353       -0.75465396983344
C            1.15506598158568       -0.56828086464133       -0.35867071383733
C            2.54614355054965       -0.81401351468085       -0.24869660404337
C            3.39049061217047        0.20347964179781        0.14178176536680
C            2.88208154760165        1.49472420152164        0.43136562950891
C            1.54051811158029        1.74704317757966        0.32757276804528
C            0.63455128106201        0.72974993902833       -0.06818498648566
C           -0.75479432722027        0.96721304423287       -0.17921081127865
O            4.74615922005793        0.08150997216358        0.28546387174945
C            5.31916651679095       -1.20509669459166        0.00905720326672
C           -3.72676847179783       -0.34824767596516        0.61130324447840
O           -4.18262959274916       -1.46993783810870        0.75363035587710
O           -3.67237728991909        0.54443695395459        1.62209360851560
H           -4.64261896078487        1.66306679827457       -1.07700622968825
H           -3.25085876132248        2.31261489750084       -0.20075911260618
H           -3.10817758168025        1.93182209454382       -1.92794425929650
H           -1.77949042917142       -2.10609778558246       -1.16336959840244
H            0.63130563640917       -2.57057818346162       -0.98370822439356
H            2.91508980552791       -1.80766394849360       -0.47424899592670
H            3.57780591362146        2.27042922364156        0.73461606058307
H            1.15444592717727        2.73766614452238        0.54961659268349
H           -1.12119453108720        1.96291729928685        0.04984386674340
H            4.91552533989234       -1.96676457072633        0.68575522802890
H            6.39062394337357       -1.09458156322775        0.17853769771825
H            5.13920293824326       -1.49834864528904       -1.03139032767692
H           -4.03224979388582        0.12091833330510        2.42058598829174
31
 energy: -767.464833564120 gnorm: 0.000782120546 xtb: 6.7.1 (edcfbbe)
C           -3.55461921445308        1.61320155286428       -0.98156568533492
C           -3.12489339624720        0.17956377942764       -0.67565211229318
H           -3.49760887215192       -0.48528922653762       -1.46021246798738
C           -1.61903749510874       -0.03207558166182       -0.57296381347331
C           -1.09786186696429       -1.31903469000731       -0.85486871132678
C            0.24688294062260       -1.58160717619286       -0.75330259409969
C            1.15508754817670       -0.56916929573963       -0.35756716576111
C            2.54653626985787       -0.81497202870171       -0.24791869727937
C            3.39061703752446        0.20330851825367        0.14168382336462
C            2.88221300316653        1.49468467478040        0.43140218396415
C            1.54047499697276        1.74685840253271        0.32799077911393
C            0.63451080345681        0.72932177271782       -0.06774594941037
C           -0.75488541708688        0.96721756776899       -0.17955898145984
O            4.74649901872663        0.08220804418823        0.28428788308624
C            5.32008928074931       -1.20434419774590        0.00897963009064
C           -3.72787603811515       -0.34878576608939        0.61036353396285
O           -4.18472309189734       -1.47046535372110        0.74974750843373
O           -3.66979722183333        0.54179689864817        1.62173796465785
H           -4.64307978407502        1.66496868374923       -1.07320256098553
H           -3.24872997024860        2.31428627910182       -0.20296607838056
H           -3.11238657514827        1.93206307295170       -1.92918220165070
H           -1.78044065248739       -2.10625130203262       -1.16337160307106
H            0.63075780404772       -2.57202036571726       -0.98122971493076
H            2.91562014554630       -1.80866056836973       -0.47340710196893
H            3.57824741324456        2.27051404508360        0.73426576127236
H            1.15414708557687        2.73752597461056        0.55022140968648
H           -1.12107190556251        1.96324228362496        0.04926006041159
H            4.91640923162707       -1.96577109403824        0.68615646132390
H            6.39159528550626       -1.09359981842267        0.17866063561573
H            5.14050924798903       -1.49848134136133       -1.03145289514817
H           -4.02958298146899        0.12090585353308        2.42165074862133
31
 energy: -767.464833564120 gnorm: 0.000782120546 xtb: 6.7.1 (edcfbbe)
C           -3.55461921445308        1.61320155286428       -0.98156568533492
C           -3.12489339624720        0.17956377942764       -0.67565211229318
H           -3.49760887215192       -0.48528922653762       -1.46021246798738
C           -1.61903749510874       -0.03207558166182       -0.57296381347331
C           -1.09786186696429       -1.31903469000731       -0.85486871132678
C            0.24688294062260       -1.58160717619286       -0.75330259409969
C            1.15508754817670       -0.56916929573963       -0.35756716576111
C            2.54653626985787       -0.81497202870171       -0.24791869727937
C            3.39061703752446        0.20330851825367        0.14168382336462
C            2.88221300316653        1.49468467478040        0.43140218396415
C            1.54047499697276        1.74685840253271        0.32799077911393
C            0.63451080345681        0.72932177271782       -0.06774594941037
C           -0.75488541708688        0.96721756776899       -0.17955898145984
O            4.74649901872663        0.08220804418823        0.28428788308624
C            5.32008928074931       -1.20434419774590        0.00897963009064
C           -3.72787603811515       -0.34878576608939        0.61036353396285
O           -4.18472309189734       -1.47046535372110        0.74974750843373
O           -3.66979722183333        0.54179689864817        1.62173796465785
H           -4.64307978407502        1.66496868374923       -1.07320256098553
H           -3.24872997024860        2.31428627910182       -0.20296607838056
H           -3.11238657514827        1.93206307295170       -1.92918220165070
H           -1.78044065248739       -2.10625130203262       -1.16337160307106
H            0.63075780404772       -2.57202036571726       -0.98122971493076
H            2.91562014554630       -1.80866056836973       -0.47340710196893
H            3.57824741324456        2.27051404508360        0.73426576127236
H            1.15414708557687        2.73752597461056        0.55022140968648
H           -1.12107190556251        1.96324228362496        0.04926006041159
H            4.91640923162707       -1.96577109403824        0.68615646132390
H            6.39159528550626       -1.09359981842267        0.17866063561573
H            5.14050924798903       -1.49848134136133       -1.03145289514817
H           -4.02958298146899        0.12090585353308        2.42165074862133
