
                                 *****************
                                 * O   R   C   A *
                                 *****************

                                            #,                                       
                                            ###                                      
                                            ####                                     
                                            #####                                    
                                            ######                                   
                                           ########,                                 
                                     ,,################,,,,,                         
                               ,,#################################,,                 
                          ,,##########################################,,             
                       ,#########################################, ''#####,          
                    ,#############################################,,   '####,        
                  ,##################################################,,,,####,       
                ,###########''''           ''''###############################       
              ,#####''   ,,,,##########,,,,          '''####'''          '####       
            ,##' ,,,,###########################,,,                        '##       
           ' ,,###''''                  '''############,,,                           
         ,,##''                                '''############,,,,        ,,,,,,###''
      ,#''                                            '''#######################'''  
     '                                                          ''''####''''         
             ,#######,   #######,   ,#######,      ##                                
            ,#'     '#,  ##    ##  ,#'     '#,    #''#        ,####,   ,####,        
            ##       ##  ##   ,#'  ##            #'  '#       #'       #'  '#        
            ##       ##  #######   ##           ,######,      #####,   #    #        
            '#,     ,#'  ##    ##  '#,     ,#' ,#      #,     #,   #   #,  ,#        
             '#######'   ##     ##  '#######'  #'      '#     '####' # '####'        



                #########################################################
                #                        -***-                          #
                #          Department of theory and spectroscopy        #
                #                                                       #
                #                      Frank Neese                      #
                #                                                       #
                #     Directorship, Architecture, Infrastructure        #
                #                    SHARK, DRIVERS                     #
                #        Core code/Algorithms in most modules           #
                #                                                       #
                #        Max Planck Institute fuer Kohlenforschung      #
                #                Kaiser Wilhelm Platz 1                 #
                #                 D-45470 Muelheim/Ruhr                 #
                #                      Germany                          #
                #                                                       #
                #                  All rights reserved                  #
                #                        -***-                          #
                #########################################################


                         Program Version 6.0.0  -   RELEASE  -


 With contributions from (in alphabetic order):
   Daniel Aravena         : Magnetic Suceptibility
   Michael Atanasov       : Ab Initio Ligand Field Theory (pilot matlab implementation)
   Alexander A. Auer      : GIAO ZORA, VPT2 properties, NMR spectrum
   Ute Becker             : All parallelization in ORCA, NUMFREQ, NUMCALC
   Giovanni Bistoni       : ED, misc. LED, open-shell LED, HFLD
   Martin Brehm           : Molecular dynamics
   Dmytro Bykov           : pre 5.0 version of the SCF Hessian
   Marcos Casanova-Páez   : Triplet and SCS-CIS(D). UHF-(DLPNO)-IP/EA/STEOM-CCSD. UHF-CVS-IP/STEOM-CCSD
   Vijay G. Chilkuri      : MRCI spin determinant printing, contributions to CSF-ICE
   Pauline Colinet        : FMM embedding
   Dipayan Datta          : RHF DLPNO-CCSD density
   Achintya Kumar Dutta   : EOM-CC, STEOM-CC
   Nicolas Foglia         : Exact transition moments, OPA infrastructure, MCD improvements
   Dmitry Ganyushin       : Spin-Orbit,Spin-Spin,Magnetic field MRCI
   Miquel Garcia          : C-PCM and meta-GGA Hessian, CCSD/C-PCM, Gaussian charge scheme
   Tiago L. C. Gouveia    : GS-ROHF, GS-ROCIS
   Yang Guo               : DLPNO-NEVPT2, F12-NEVPT2, CIM, IAO-localization
   Andreas Hansen         : Spin unrestricted coupled pair/coupled cluster methods
   Ingolf Harden          : AUTO-CI MPn and infrastructure 
   Benjamin Helmich-Paris : MC-RPA, TRAH-(SCF,CASSCF), AVAS, COSX integrals, SCF dyn. polar.
   Lee Huntington         : MR-EOM, pCC
   Robert Izsak           : Overlap fitted RIJCOSX, COSX-SCS-MP3, EOM
   Riya Kayal             : Wick's Theorem for AUTO-CI, AUTO-CI UHF-CCSDT
   Emily Kempfer          : AUTO-CI, RHF CISDT and CCSDT
   Christian Kollmar      : KDIIS, OOCD, Brueckner-CCSD(T), CCSD density, CASPT2, CASPT2-K, improved NEVPT2
   Axel Koslowski         : Symmetry handling
   Simone Kossmann        : Meta GGA functionals, TD-DFT gradient, OOMP2, (MP2 Hessian; deprecated post 5.0)
   Lucas Lang             : DCDCAS
   Marvin Lechner         : AUTO-CI (C++ implementation), FIC-MRCC
   Spencer Leger          : CASSCF response
   Dagmar Lenk            : GEPOL surface, SMD, ORCA-2-JSON
   Dimitrios Liakos       : Extrapolation schemes; Compound Job, initial MDCI parallelization
   Dimitrios Manganas     : Further ROCIS development; embedding schemes. LFT, Crystal Embedding
   Dimitrios Pantazis     : SARC Basis sets
   Anastasios Papadopoulos: AUTO-CI, single reference methods and gradients
   Taras Petrenko         : pre 6.0 DFT Hessian and TD-DFT gradient, (ASA, deprecated), ECA, 1-Electron XAS/XES, NRVS
   Peter Pinski           : DLPNO-MP2, DLPNO-MP2 Gradient
   Christoph Reimann      : Effective Core Potentials
   Marius Retegan         : Local ZFS, SOC
   Christoph Riplinger    : Optimizer, TS searches, QM/MM, DLPNO-CCSD(T), (RO)-DLPNO pert. Triples
   Michael Roemelt        : Original ROCIS implementation
   Masaaki Saitow         : Open-shell DLPNO-CCSD energy and density
   Barbara Sandhoefer     : DKH picture change effects
   Kantharuban Sivalingam : CASSCF convergence/infrastructure, NEVPT2 and variants, FIC-MRCI
   Bernardo de Souza      : ESD, SOC TD-DFT
   Georgi Stoychev        : AutoAux, RI-MP2 NMR, DLPNO-MP2 response, X2C
   Van Anh Tran           : RI-MP2 g-tensors
   Willem Van den Heuvel  : Paramagnetic NMR
   Zikuan Wang            : NOTCH, Electric field optimization 
   Frank Wennmohs         : Technical directorship and infrastructure
   Hang Xu                : AUTO-CI-Response properties 


 We gratefully acknowledge several colleagues who have allowed us to
 interface, adapt or use parts of their codes:
   Stefan Grimme, W. Hujo, H. Kruse, P. Pracht,  : VdW corrections, initial TS optimization,
                  C. Bannwarth, S. Ehlert,         DFT functionals, gCP, sTDA/sTD-DF
                  L. Wittmann, M. Mueller
   Ed Valeev, F. Pavosevic, A. Kumar             : LibInt (2-el integral package), F12 methods
   Garnet Chan, S. Sharma, J. Yang, R. Olivares  : DMRG
   Ulf Ekstrom                                   : XCFun DFT Library
   Mihaly Kallay                                 : mrcc  (arbitrary order and MRCC methods)
   Frank Weinhold                                : gennbo (NPA and NBO analysis)
   Simon Mueller                                 : openCOSMO-RS
   Christopher J. Cramer and Donald G. Truhlar   : smd solvation model
   Lars Goerigk                                  : TD-DFT with DH, B97 family of functionals
   V. Asgeirsson, H. Jonsson                     : NEB implementation
   FAccTs GmbH                                   : IRC, NEB, NEB-TS, DLPNO-Multilevel, CI-OPT
                                                   MM, QMMM, 2- and 3-layer-ONIOM, Crystal-QMMM,
                                                   LR-CPCM, SF, NACMEs, symmetry and pop. for TD-DFT,
                                                   nearIR, NL-DFT gradient (VV10), updates on ESD,
                                                   ML-optimized integration grids, MBIS, APM,
                                                   GOAT, DOCKER, SOLVATOR, interface openCOSMO-RS
   S Lehtola, MJT Oliveira, MAL Marques          : LibXC Library
   Liviu Ungur et al                             : ANISO software


 Your calculation uses the libint2 library for the computation of 2-el integrals
 For citations please refer to: http://libint.valeyev.net

 Your ORCA version has been built with support for libXC version: 6.2.2
 For citations please refer to: https://libxc.gitlab.io

 This ORCA versions uses:
   CBLAS   interface :  Fast vector & matrix operations
   LAPACKE interface :  Fast linear algebra routines
   SCALAPACK package :  Parallel linear algebra routines
   Shared memory     :  Shared parallel matrices
   BLAS/LAPACK       :  OpenBLAS 0.3.27  USE64BITINT DYNAMIC_ARCH NO_AFFINITY SkylakeX SINGLE_THREADED
        Core in use  :  SkylakeX
   Copyright (c) 2011-2014, The OpenBLAS Project


Your calculation utilizes the geometrical counterpoise correction gCP
Please cite in your paper:
H.Kruse, S. Grimme J.Chem.Phys., 136, (2012), 154101 
   

Your calculation utilizes the atom-pairwise dispersion correction
based on EEQ partial charges (D4)


================================================================================

----- Orbital basis set information -----
Your calculation utilizes the basis: def2-mTZVPP
   Stefan Grimme, Andreas Hansen, Sebastian Ehlert, and Jan-Michael Mewes 
   J. Chem. Phys. 154, 064103 (2021). DOI: 10.1063/5.0040021

----- AuxJ basis set information -----
Your calculation utilizes the auxiliary basis: def2/J
   F. Weigend, Phys. Chem. Chem. Phys. 8, 1057 (2006).

================================================================================
                                        WARNINGS
                       Please study these warnings very carefully!
================================================================================

Using LibXC functional ID 497 : Re-regularized SCAN exchange by Furness et al
[ 1]  J. W. Furness, A. D. Kaplan, J. Ning, J. P. Perdew, and J. Sun.,  J. Phys. Chem. Lett. 11, 8208-8215 (2020)
[ 2]  J. W. Furness, A. D. Kaplan, J. Ning, J. P. Perdew, and J. Sun.,  J. Phys. Chem. Lett. 11, 9248-9248 (2020)
Using LibXC functional ID 498 : Re-regularized SCAN correlation by Furness et al
[ 1]  J. W. Furness, A. D. Kaplan, J. Ning, J. P. Perdew, and J. Sun.,  J. Phys. Chem. Lett. 11, 8208-8215 (2020)
[ 2]  J. W. Furness, A. D. Kaplan, J. Ning, J. P. Perdew, and J. Sun.,  J. Phys. Chem. Lett. 11, 9248-9248 (2020)
Using LibXC functional ID 497 : Re-regularized SCAN exchange by Furness et al
[ 1]  J. W. Furness, A. D. Kaplan, J. Ning, J. P. Perdew, and J. Sun.,  J. Phys. Chem. Lett. 11, 8208-8215 (2020)
[ 2]  J. W. Furness, A. D. Kaplan, J. Ning, J. P. Perdew, and J. Sun.,  J. Phys. Chem. Lett. 11, 9248-9248 (2020)
Using LibXC functional ID 498 : Re-regularized SCAN correlation by Furness et al
[ 1]  J. W. Furness, A. D. Kaplan, J. Ning, J. P. Perdew, and J. Sun.,  J. Phys. Chem. Lett. 11, 8208-8215 (2020)
[ 2]  J. W. Furness, A. D. Kaplan, J. Ning, J. P. Perdew, and J. Sun.,  J. Phys. Chem. Lett. 11, 9248-9248 (2020)

================================================================================
                                       INPUT FILE
================================================================================
NAME = sp_gas.inp
|  1> ! r2scan-3c def2/J RI DEFGRID2 scfconv6 printgap
|  2> %output
|  3>     printlevel normal
|  4> end
|  5> * xyz 0 1
|  6> C -4.6376373311 -0.9509115653 -0.3129621053
|  7> C -3.9726843646 -2.1552806882 -0.1280319671
|  8> C -2.6019534779 -2.1689249609 0.0503195876
|  9> C -1.8707617315 -0.9826776958 0.0465508969
| 10> C -2.5428580325 0.2301666438 -0.140392849
| 11> C -3.9252851322 0.2331488257 -0.3185579617
| 12> C -1.8076806655 1.5010477046 -0.1529328789
| 13> O -2.386548515 2.575120374 -0.3106989003
| 14> C -0.3489052595 1.4269460468 0.0299487926
| 15> C 0.3475249169 2.6221187922 -0.0105078786
| 16> C 1.7329368955 2.636292575 0.1332401586
| 17> C 2.4164103021 1.4687499414 0.3370937562
| 18> C 1.7458166635 0.2233826932 0.4112968995
| 19> C 0.3264714644 0.1990829947 0.2349693993
| 20> C -0.4087520193 -1.0455952074 0.2443877253
| 21> O 0.1250962785 -2.1591932769 0.4031915138
| 22> N 2.4131508044 -0.9097407413 0.6635975132
| 23> C 3.8354478179 -1.075394649 0.8149267809
| 24> C 4.5638063276 -1.2469094576 -0.5260621814
| 25> O 4.6592348896 0.0081593905 -1.1671391335
| 26> H -5.707156557 -0.9372398004 -0.4520743544
| 27> H -4.5240426211 -3.0824586878 -0.1227380518
| 28> H -2.0666029602 -3.0953770219 0.196734933
| 29> H -4.4156191105 1.1849647161 -0.4603509457
| 30> H -0.208783246 3.5334993777 -0.1680015085
| 31> H 2.2659749941 3.5723883412 0.0784339498
| 32> H 3.4900383291 1.4873095654 0.4090760162
| 33> H 1.8484364352 -1.7563470159 0.6175395141
| 34> H 3.9968239161 -1.9742103401 1.4108356138
| 35> H 4.2651197073 -0.2217418731 1.3411984852
| 36> H 4.0082501585 -1.9592566341 -1.1487378082
| 37> H 5.5657725823 -1.6493546194 -0.3293990627
| 38> H 5.0669749025 -0.0983415911 -2.0356698725
| 39> *
| 40> 
| 41>                          ****END OF INPUT****
================================================================================

                       ****************************
                       * Single Point Calculation *
                       ****************************

---------------------------------
CARTESIAN COORDINATES (ANGSTROEM)
---------------------------------
  C     -4.637637   -0.950912   -0.312962
  C     -3.972684   -2.155281   -0.128032
  C     -2.601953   -2.168925    0.050320
  C     -1.870762   -0.982678    0.046551
  C     -2.542858    0.230167   -0.140393
  C     -3.925285    0.233149   -0.318558
  C     -1.807681    1.501048   -0.152933
  O     -2.386549    2.575120   -0.310699
  C     -0.348905    1.426946    0.029949
  C      0.347525    2.622119   -0.010508
  C      1.732937    2.636293    0.133240
  C      2.416410    1.468750    0.337094
  C      1.745817    0.223383    0.411297
  C      0.326471    0.199083    0.234969
  C     -0.408752   -1.045595    0.244388
  O      0.125096   -2.159193    0.403192
  N      2.413151   -0.909741    0.663598
  C      3.835448   -1.075395    0.814927
  C      4.563806   -1.246909   -0.526062
  O      4.659235    0.008159   -1.167139
  H     -5.707157   -0.937240   -0.452074
  H     -4.524043   -3.082459   -0.122738
  H     -2.066603   -3.095377    0.196735
  H     -4.415619    1.184965   -0.460351
  H     -0.208783    3.533499   -0.168002
  H      2.265975    3.572388    0.078434
  H      3.490038    1.487310    0.409076
  H      1.848436   -1.756347    0.617540
  H      3.996824   -1.974210    1.410836
  H      4.265120   -0.221742    1.341198
  H      4.008250   -1.959257   -1.148738
  H      5.565773   -1.649355   -0.329399
  H      5.066975   -0.098342   -2.035670

----------------------------
CARTESIAN COORDINATES (A.U.)
----------------------------
  NO LB      ZA    FRAG     MASS         X           Y           Z
   0 C     6.0000    0    12.011   -8.763864   -1.796962   -0.591413
   1 C     6.0000    0    12.011   -7.507285   -4.072890   -0.241945
   2 C     6.0000    0    12.011   -4.916979   -4.098674    0.095090
   3 C     6.0000    0    12.011   -3.535227   -1.856992    0.087968
   4 C     6.0000    0    12.011   -4.805305    0.434952   -0.265304
   5 C     6.0000    0    12.011   -7.417714    0.440587   -0.601987
   6 C     6.0000    0    12.011   -3.416021    2.836569   -0.289001
   7 O     8.0000    0    15.999   -4.509923    4.866272   -0.587136
   8 C     6.0000    0    12.011   -0.659335    2.696537    0.056595
   9 C     6.0000    0    12.011    0.656727    4.955086   -0.019857
  10 C     6.0000    0    12.011    3.274776    4.981871    0.251787
  11 C     6.0000    0    12.011    4.566354    2.775535    0.637015
  12 C     6.0000    0    12.011    3.299115    0.422132    0.777238
  13 C     6.0000    0    12.011    0.616942    0.376212    0.444028
  14 C     6.0000    0    12.011   -0.772429   -1.975889    0.461826
  15 O     8.0000    0    15.999    0.236398   -4.080284    0.761922
  16 N     7.0000    0    14.007    4.560194   -1.719161    1.254018
  17 C     6.0000    0    12.011    7.247946   -2.032201    1.539988
  18 C     6.0000    0    12.011    8.624344   -2.356317   -0.994113
  19 O     8.0000    0    15.999    8.804678    0.015419   -2.205573
  20 H     1.0000    0     1.008  -10.784963   -1.771127   -0.854297
  21 H     1.0000    0     1.008   -8.549202   -5.825003   -0.231941
  22 H     1.0000    0     1.008   -3.905314   -5.849415    0.371775
  23 H     1.0000    0     1.008   -8.344311    2.239259   -0.869937
  24 H     1.0000    0     1.008   -0.394543    6.677346   -0.317477
  25 H     1.0000    0     1.008    4.282072    6.750836    0.148219
  26 H     1.0000    0     1.008    6.595217    2.810608    0.773042
  27 H     1.0000    0     1.008    3.493039   -3.319015    1.166981
  28 H     1.0000    0     1.008    7.552903   -3.730717    2.666093
  29 H     1.0000    0     1.008    8.059908   -0.419031    2.534498
  30 H     1.0000    0     1.008    7.574495   -3.702458   -2.170800
  31 H     1.0000    0     1.008   10.517786   -3.116829   -0.622474
  32 H     1.0000    0     1.008    9.575195   -0.185839   -3.846859

--------------------------------
INTERNAL COORDINATES (ANGSTROEM)
--------------------------------
 C      0   0   0     0.000000000000     0.00000000     0.00000000
 C      1   0   0     1.388116201140     0.00000000     0.00000000
 C      2   1   0     1.382352562480   120.05014064     0.00000000
 C      3   2   1     1.393498527803   120.76738969   359.96008315
 C      4   3   2     1.399161461036   119.09274046     0.00000000
 C      1   2   3     1.381837898750   119.80442414     0.00000000
 C      5   4   3     1.468258044078   120.72567736   180.10269599
 O      7   5   4     1.230288666877   121.41057066   180.30792648
 C      7   5   4     1.472060612410   116.84396526     0.39341426
 C      9   7   5     1.383867632468   116.84641823   178.65547156
 C     10   9   7     1.392921657799   120.41815821   180.99677605
 C     11  10   9     1.368154957619   120.23568879   358.96792548
 C     12  11  10     1.416383252335   121.44102265   359.83108366
 C      9   7   5     1.416267927713   122.28924369   358.82438420
 C     14   9   7     1.445636919365   120.32262626     1.25570113
 O     15  14   9     1.245115781243   123.56073878   179.12058397
 N     13  12  11     1.339014254255   121.19640966   182.67314356
 C     17  13  12     1.439885606224   127.54966548   356.19868839
 C     18  17  13     1.535634997397   112.92859135   275.58570429
 O     19  18  17     1.412545249693   109.21560928    75.93120462
 H      1   2   3     1.078615088702   120.21012876   180.01798441
 H      2   1   3     1.078741394168   120.10198323   179.97553545
 H      3   2   1     1.079977338420   121.16448213   179.93401218
 H      6   1   2     1.080039883433   121.44205555   179.98892415
 H     10   9   7     1.079304214387   118.30410620     0.23472726
 H     11  10   9     1.078614212116   119.67706603   178.67907578
 H     12  11  10     1.076198423042   119.57842323   177.66656668
 H     17  13  12     1.018707927845   114.73875707   184.91040164
 H     18  17  13     1.090421583043   107.36470030   156.20620899
 H     18  17  13     1.091010037117   110.46882441    37.65031277
 H     19  18  17     1.097180975547   109.14375577   314.78156025
 H     19  18  17     1.097531259724   108.51094326   196.09585780
 H     20  19  18     0.965370406522   109.80562856   183.48848091

---------------------------
INTERNAL COORDINATES (A.U.)
---------------------------
 C      0   0   0     0.000000000000     0.00000000     0.00000000
 C      1   0   0     2.623159462213     0.00000000     0.00000000
 C      2   1   0     2.612267763611   120.05014064     0.00000000
 C      3   2   1     2.633330585571   120.76738969   359.96008315
 C      4   3   2     2.644031978495   119.09274046     0.00000000
 C      1   2   3     2.611295190111   119.80442414     0.00000000
 C      5   4   3     2.774605597234   120.72567736   180.10269599
 O      7   5   4     2.324908646064   121.41057066   180.30792648
 C      7   5   4     2.781791409988   116.84396526     0.39341426
 C      9   7   5     2.615130830962   116.84641823   178.65547156
 C     10   9   7     2.632240459248   120.41815821   180.99677605
 C     11  10   9     2.585438178667   120.23568879   358.96792548
 C     12  11  10     2.676576447586   121.44102265   359.83108366
 C      9   7   5     2.676358515635   122.28924369   358.82438420
 C     14   9   7     2.731857866686   120.32262626     1.25570113
 O     15  14   9     2.352927831572   123.56073878   179.12058397
 N     13  12  11     2.530370229958   121.19640966   182.67314356
 C     17  13  12     2.720989459938   127.54966548   356.19868839
 C     18  17  13     2.901929586746   112.92859135   275.58570429
 O     19  18  17     2.669323673691   109.21560928    75.93120462
 H      1   2   3     2.038287121561   120.21012876   180.01798441
 H      2   1   3     2.038525804302   120.10198323   179.97553545
 H      3   2   1     2.040861400456   121.16448213   179.93401218
 H      6   1   2     2.040979593400   121.44205555   179.98892415
 H     10   9   7     2.039589380379   118.30410620     0.23472726
 H     11  10   9     2.038285465055   119.67706603   178.67907578
 H     12  11  10     2.033720285307   119.57842323   177.66656668
 H     17  13  12     1.925078994081   114.73875707   184.91040164
 H     18  17  13     2.060598162468   107.36470030   156.20620899
 H     18  17  13     2.061710179510   110.46882441    37.65031277
 H     19  18  17     2.073371563133   109.14375577   314.78156025
 H     19  18  17     2.074033504295   108.51094326   196.09585780
 H     20  19  18     1.824285686120   109.80562856   183.48848091

---------------------
BASIS SET INFORMATION
---------------------
There are 4 groups of distinct atoms

 Group   1 Type C   : 11s6p1d contracted to 5s3p1d pattern {62111/411/1}
 Group   2 Type O   : 11s6p2d contracted to 5s3p2d pattern {62111/411/11}
 Group   3 Type N   : 11s6p2d contracted to 5s3p2d pattern {62111/411/11}
 Group   4 Type H   : 4s1p contracted to 2s1p pattern {31/1}

Atom   0C    basis set group =>   1
Atom   1C    basis set group =>   1
Atom   2C    basis set group =>   1
Atom   3C    basis set group =>   1
Atom   4C    basis set group =>   1
Atom   5C    basis set group =>   1
Atom   6C    basis set group =>   1
Atom   7O    basis set group =>   2
Atom   8C    basis set group =>   1
Atom   9C    basis set group =>   1
Atom  10C    basis set group =>   1
Atom  11C    basis set group =>   1
Atom  12C    basis set group =>   1
Atom  13C    basis set group =>   1
Atom  14C    basis set group =>   1
Atom  15O    basis set group =>   2
Atom  16N    basis set group =>   3
Atom  17C    basis set group =>   1
Atom  18C    basis set group =>   1
Atom  19O    basis set group =>   2
Atom  20H    basis set group =>   4
Atom  21H    basis set group =>   4
Atom  22H    basis set group =>   4
Atom  23H    basis set group =>   4
Atom  24H    basis set group =>   4
Atom  25H    basis set group =>   4
Atom  26H    basis set group =>   4
Atom  27H    basis set group =>   4
Atom  28H    basis set group =>   4
Atom  29H    basis set group =>   4
Atom  30H    basis set group =>   4
Atom  31H    basis set group =>   4
Atom  32H    basis set group =>   4
---------------------------------
AUXILIARY/J BASIS SET INFORMATION
---------------------------------
There are 4 groups of distinct atoms

 Group   1 Type C   : 12s5p4d2f1g contracted to 6s4p3d1f1g pattern {711111/2111/211/2/1}
 Group   2 Type O   : 12s5p4d2f1g contracted to 6s4p3d1f1g pattern {711111/2111/211/2/1}
 Group   3 Type N   : 12s5p4d2f1g contracted to 6s4p3d1f1g pattern {711111/2111/211/2/1}
 Group   4 Type H   : 5s2p1d contracted to 3s1p1d pattern {311/2/1}

Atom   0C    basis set group =>   1
Atom   1C    basis set group =>   1
Atom   2C    basis set group =>   1
Atom   3C    basis set group =>   1
Atom   4C    basis set group =>   1
Atom   5C    basis set group =>   1
Atom   6C    basis set group =>   1
Atom   7O    basis set group =>   2
Atom   8C    basis set group =>   1
Atom   9C    basis set group =>   1
Atom  10C    basis set group =>   1
Atom  11C    basis set group =>   1
Atom  12C    basis set group =>   1
Atom  13C    basis set group =>   1
Atom  14C    basis set group =>   1
Atom  15O    basis set group =>   2
Atom  16N    basis set group =>   3
Atom  17C    basis set group =>   1
Atom  18C    basis set group =>   1
Atom  19O    basis set group =>   2
Atom  20H    basis set group =>   4
Atom  21H    basis set group =>   4
Atom  22H    basis set group =>   4
Atom  23H    basis set group =>   4
Atom  24H    basis set group =>   4
Atom  25H    basis set group =>   4
Atom  26H    basis set group =>   4
Atom  27H    basis set group =>   4
Atom  28H    basis set group =>   4
Atom  29H    basis set group =>   4
Atom  30H    basis set group =>   4
Atom  31H    basis set group =>   4
Atom  32H    basis set group =>   4

Checking for AutoStart:
The File: sp_gas.gbw exists
Trying to determine its content:
     ... Fine, the file contains calculation information
     ... Fine, the calculation information was read
     ... Fine, the file contains a basis set
     ... Fine, the basis set was read
     ... Fine, the file contains a geometry
     ... Fine, the geometry was read
     ... Fine, the file contains a set of orbitals
     ... Fine, the orbitals can be read
     => possible old guess file was deleted
     => GBW file was renamed to GES file
     => GES file is set as startup file
     => Guess is set to MORead
     ... now leaving AutoStart

------------------------------------------------------------------------------
                             ORCA STARTUP CALCULATIONS
                           -- RI-GTO INTEGRALS CHOSEN --
------------------------------------------------------------------------------
------------------------------------------------------------------------------
                   ___                                                        
                  /   \      - P O W E R E D   B Y -                         
                 /     \                                                     
                 |  |  |   _    _      __       _____    __    __             
                 |  |  |  | |  | |    /  \     |  _  \  |  |  /  |          
                  \  \/   | |  | |   /    \    | | | |  |  | /  /          
                 / \  \   | |__| |  /  /\  \   | |_| |  |  |/  /          
                |  |  |   |  __  | /  /__\  \  |    /   |      \           
                |  |  |   | |  | | |   __   |  |    \   |  |\   \          
                \     /   | |  | | |  |  |  |  | |\  \  |  | \   \       
                 \___/    |_|  |_| |__|  |__|  |_| \__\ |__|  \__/        
                                                                              
                      - O R C A' S   B I G   F R I E N D -                    
                                      &                                       
                       - I N T E G R A L  F E E D E R -                       
                                                                              
 v1 FN, 2020, v2 2021, v3 2022-2024                                           
------------------------------------------------------------------------------


----------------------
SHARK INTEGRAL PACKAGE
----------------------

Number of atoms                             ...     33
Number of basis functions                   ...    465
Number of shells                            ...    223
Maximum angular momentum                    ...      2
Integral batch strategy                     ... SHARK/LIBINT Hybrid
RI-J (if used) integral strategy            ... SPLIT-RIJ (Revised 2003 algorithm where possible)
Printlevel                                  ...      1
Contraction scheme used                     ... SEGMENTED contraction
Prescreening option                         ... SCHWARTZ
   Thresh                                   ... 1.000e-10
   Tcut                                     ... 1.000e-11
   Tpresel                                  ... 1.000e-11 
Coulomb Range Separation                    ... NOT USED
Exchange Range Separation                   ... NOT USED
Multipole approximations                    ... NOT USED
Finite Nucleus Model                        ... NOT USED
CABS basis                                  ... NOT available
Auxiliary Coulomb fitting basis             ... AVAILABLE
   # of basis functions in Aux-J            ...   1123
   # of shells in Aux-J                     ...    365
   Maximum angular momentum in Aux-J        ...      4
Auxiliary J/K fitting basis                 ... NOT available
Auxiliary Correlation fitting basis         ... NOT available
Auxiliary 'external' fitting basis          ... NOT available

Checking pre-screening integrals            ... done (  0.0 sec) Dimension = 223
Check shell pair data                       ... done (  0.0 sec)
Shell pair information
Shell pair cut-off parameter TPreSel        ...   1.0e-11
Total number of shell pairs                 ...     24976
Shell pairs after pre-screening             ...     17963
Total number of primitive shell pairs       ...     92714
Primitive shell pairs kept                  ...     42533
          la=0 lb=0:   5393 shell pairs
          la=1 lb=0:   6829 shell pairs
          la=1 lb=1:   2152 shell pairs
          la=2 lb=0:   2056 shell pairs
          la=2 lb=1:   1316 shell pairs
          la=2 lb=2:    217 shell pairs

Calculating one electron integrals          ... done (  0.1 sec)
Calculating RI/J V-Matrix + Cholesky decomp.... done (  0.2 sec)
Calculating Nuclear repulsion               ... done (  0.0 sec) ENN=   1471.082004757648 Eh

Diagonalization of the overlap matrix:
Smallest eigenvalue                        ... 6.138e-06
Time for diagonalization                   ...    0.028 sec
Threshold for overlap eigenvalues          ... 1.000e-07
Number of eigenvalues below threshold      ... 0
Time for construction of square roots      ...    0.079 sec
Total time needed                          ...    0.131 sec

-------------------
DFT GRID GENERATION
-------------------

General Integration Accuracy     IntAcc      ... 4.388
Radial Grid Type                 RadialGrid  ... OptM3 with GC (2021)
Angular Grid (max. ang.)         AngularGrid ... 4 (Lebedev-302)
Angular grid pruning method      GridPruning ... 4 (adaptive)
Weight generation scheme         WeightScheme... mBecke (2022)
Basis function cutoff            BFCut       ... 1.0000e-10
Integration weight cutoff        WCut        ... 1.0000e-14
Partially contracted basis set               ... off
Rotationally invariant grid construction     ... off
Angular grids for H and He will be reduced by one unit
Diffuse basis detected: some atoms will have their outermost
                        angular grid increased by 1.

Total number of grid points                  ...   161833
Total number of batches                      ...     2547
Average number of points per batch           ...       63
Average number of grid points per atom       ...     4904
Initializing property integral containers    ... done (  0.2 sec)

SHARK setup successfully completed in   3.8 seconds

Maximum memory used throughout the entire STARTUP-calculation: 83.7 MB
-------------------------------------------------------------------------------
                                 ORCA GUESS
                   Start orbitals & Density for SCF / CASSCF
-------------------------------------------------------------------------------

------------
SCF SETTINGS
------------
Hamiltonian:
 Density Functional     Method          .... DFT(GTOs)
  Functional kind                       .... Exchange
  Functional name                       .... Re-regularized SCAN exchange by Furness et al
  Functional family                     .... MGGA
  Functional refs                              
    [ 0] J. W. Furness, A. D. Kaplan, J. Ning, J. P. Perdew, and J. Sun.,  J. Phys. Chem. Lett. 11, 8208-8215 (2020), doi: 10.1021/acs.jpclett.0c02405
    [ 1] J. W. Furness, A. D. Kaplan, J. Ning, J. P. Perdew, and J. Sun.,  J. Phys. Chem. Lett. 11, 9248-9248 (2020), doi: 10.1021/acs.jpclett.0c03077
  Functional external parameters        .... 6
    Parameter  0 _c1        =  6.670000e-01 : c1 parameter        
    Parameter  1 _c2        =  8.000000e-01 : c2 parameter        
    Parameter  2 _d         =  1.240000e+00 : d parameter         
    Parameter  3 _k1        =  6.500000e-02 : k1 parameter        
    Parameter  4 _eta       =  1.000000e-03 : eta parameter       
    Parameter  5 _dp2       =  3.610000e-01 : dp2 parameter       
  Functional kind                       .... Correlation
  Functional name                       .... Re-regularized SCAN correlation by Furness et al
  Functional family                     .... MGGA
  Functional refs                              
    [ 0] J. W. Furness, A. D. Kaplan, J. Ning, J. P. Perdew, and J. Sun.,  J. Phys. Chem. Lett. 11, 8208-8215 (2020), doi: 10.1021/acs.jpclett.0c02405
    [ 1] J. W. Furness, A. D. Kaplan, J. Ning, J. P. Perdew, and J. Sun.,  J. Phys. Chem. Lett. 11, 9248-9248 (2020), doi: 10.1021/acs.jpclett.0c03077
  Functional external parameters        .... 1
    Parameter  0 _eta       =  1.000000e-03 : Regularization parameter
 Gradients option       PostSCFGGA      .... off
 RI-approximation to the Coulomb term is turned on
   Number of AuxJ basis functions       .... 1123


General Settings:
 Integral files         IntName         .... sp_gas
 Hartree-Fock type      HFTyp           .... RHF
 Total Charge           Charge          ....    0
 Multiplicity           Mult            ....    1
 Number of Electrons    NEL             ....  140
 Basis Dimension        Dim             ....  465
 Nuclear Repulsion      ENuc            ....   1471.0820047576 Eh

Convergence Acceleration:
 AO-DIIS                CNVDIIS         .... on
   Start iteration      DIISMaxIt       ....    12
   Startup error        DIISStart       ....  0.200000
   # of expansion vecs  DIISMaxEq       ....     5
   Bias factor          DIISBfac        ....   1.050
   Max. coefficient     DIISMaxC        ....  10.000
 MO-DIIS                CNVKDIIS        .... off
 Trust-Rad. Augm. Hess. CNVTRAH         .... auto
   Auto Start mean grad. ratio tolernc. ....  1.125000
   Auto Start start iteration           ....     1
   Auto Start num. interpolation iter.  ....    10
   Max. Number of Micro iterations      ....    24
   Max. Number of Macro iterations      .... Maxiter - #DIIS iter
   Number of Davidson start vectors     ....     2
   Converg. threshold    (grad. norm)   ....   3.330e-04
   Grad. Scal. Fac. for Micro threshold ....   0.100
   Minimum threshold for Micro iter.    ....   1.000e-02
   NR start threshold (gradient norm)   ....   1.000e-04
   Initial trust radius                 ....   0.400
   Minimum AH scaling param. (alpha)    ....   1.000
   Maximum AH scaling param. (alpha)    .... 1000.000
   Quad. conv. algorithm                .... NR
   White noise on init. David. guess    .... on
   Maximum white noise                  ....   0.010
   Pseudo random numbers                .... off
   Inactive MOs                         .... canonical
   Orbital update algorithm             .... Taylor
   Preconditioner                       .... Diag
   Full preconditioner red. dimension   ....   250
   COSX micro iterations for RIJONX calc.... off
 SOSCF                  CNVSOSCF        .... on
   Start iteration      SOSCFMaxIt      ....   150
   Startup grad/error   SOSCFStart      ....  0.003300
   Hessian update       SOSCFHessUp     .... L-BFGS
 Level Shifting         CNVShift        .... on
   Level shift para.    LevelShift      ....    0.2500
   Turn off err/grad.   ShiftErr        ....    0.0010
 Zerner damping         CNVZerner       .... off
 Static damping         CNVDamp         .... on
   Fraction old density DampFac         ....    0.7000
   Max. Damping (<1)    DampMax         ....    0.9800
   Min. Damping (>=0)   DampMin         ....    0.0000
   Turn off err/grad.   DampErr         ....    0.1000

SCF Procedure:
 Maximum # iterations   MaxIter         ....   125
 SCF integral mode      SCFMode         .... Direct
   Integral package                     .... SHARK and LIBINT hybrid scheme
 Reset frequency        DirectResetFreq ....    20
 Integral Threshold     Thresh          ....  1.000e-10 Eh
 Primitive CutOff       TCut            ....  1.000e-11 Eh

Convergence Tolerance:
 Convergence Check Mode ConvCheckMode   .... Total+1el-Energy
 Convergence forced     ConvForced      .... 0
 Energy Change          TolE            ....  1.000e-06 Eh
 1-El. energy change                    ....  1.000e-03 Eh
 Orbital Gradient       TolG            ....  3.330e-04
 Orbital Rotation angle TolX            ....  3.330e-04
 DIIS Error             TolErr          ....  1.000e-06

---------------------
INITIAL GUESS: MOREAD
---------------------
Guess MOs are being read from file: sp_gas.ges
Input Geometry matches current geometry (good)
Atom 0: N(Shells)= 9 and 6 - projection required
Input basis set needs projection
NBasis(read)= 306
NBasis(calc)= 465
Basis set overlap was calculated
Using GuessMode=FMatrix for the initial guess
C*T matrix was formed
Effective Fockian was calculated
Effective Fockian was diagonalized
Initial density was built
                      ------------------
                      INITIAL GUESS DONE (   0.2 sec)
                      ------------------
             **** ENERGY FILE WAS UPDATED (sp_gas.en.tmp) ****
Finished Guess after   0.6 sec
Maximum memory used throughout the entire GUESS-calculation: 47.4 MB

-------------------------------------------------------------------------------------------
                                      ORCA LEAN-SCF
                              memory conserving SCF solver
-------------------------------------------------------------------------------------------

----------------------------------------D-I-I-S--------------------------------------------
Iteration    Energy (Eh)           Delta-E    RMSDP     MaxDP     DIISErr   Damp  Time(sec)
-------------------------------------------------------------------------------------------
               ***  Starting incremental Fock matrix formation  ***
    1    -897.3655603516915562     0.00e+00  2.30e-02  1.67e+00  6.28e-01  0.700  12.5
Warning: op=0 Small HOMO/LUMO gap (   0.068) - skipping pre-diagonalization
         Will do a full diagonalization
    2    -897.4903606766454232    -1.25e-01  1.65e-02  1.14e+00  4.41e-01  0.700  10.2
    3    -897.5784784446120739    -8.81e-02  1.15e-02  7.85e-01  3.09e-01  0.700   9.7
    4    -897.6402733294787595    -6.18e-02  8.06e-03  5.45e-01  2.16e-01  0.700   9.9
                               ***Turning on AO-DIIS***
    5    -897.6835996466686538    -4.33e-02  5.62e-03  3.77e-01  1.52e-01  0.700  10.2
    6    -897.7139593064273413    -3.04e-02  3.94e-03  2.64e-01  1.06e-01  0.700   9.9
    7    -897.7352390112421290    -2.13e-02  2.75e-03  1.84e-01  7.42e-02  0.700   9.6
    8    -897.7501458490303321    -1.49e-02  6.41e-03  4.28e-01  5.20e-02  0.000   9.5
                              *** Initializing SOSCF ***
---------------------------------------S-O-S-C-F--------------------------------------
Iteration    Energy (Eh)           Delta-E    RMSDP     MaxDP     MaxGrad    Time(sec)
--------------------------------------------------------------------------------------
    9    -897.7849661106640724    -3.48e-02  2.81e-05  2.06e-03  3.17e-04    10.1
               *** Restarting incremental Fock matrix formation ***
   10    -897.7849658228071803     2.88e-07  2.39e-04  1.71e-02  2.09e-04    12.4
   11    -897.7849615052148238     4.32e-06  6.43e-05  3.98e-03  5.92e-04     8.3
   12    -897.7849666390118273    -5.13e-06  4.09e-05  3.58e-03  1.43e-05     8.1
                  *** Gradient check signals convergence ***

               *****************************************************
               *                     SUCCESS                       *
               *           SCF CONVERGED AFTER  12 CYCLES          *
               *****************************************************

             **** ENERGY FILE WAS UPDATED (sp_gas.en.tmp) ****

----------------
TOTAL SCF ENERGY
----------------

Total Energy       :       -897.78496663901183 Eh          -24429.97094 eV

Components:
Nuclear Repulsion  :       1471.08200475764829 Eh           40030.17644 eV
Electronic Energy  :      -2368.86697139666012 Eh          -64460.14738 eV
One Electron Energy:      -4142.73618990874274 Eh         -112729.58279 eV
Two Electron Energy:       1773.86921851208285 Eh           48269.43541 eV

Virial components:
Potential Energy   :      -1792.09614337967241 Eh          -48765.41525 eV
Kinetic Energy     :        894.31117674066058 Eh           24335.44431 eV
Virial Ratio       :          2.00388431900294

DFT components:
N(Alpha)           :       69.999931870753 electrons
N(Beta)            :       69.999931870753 electrons
N(Total)           :      139.999863741506 electrons
E(X)               :     -119.557503303354 Eh       
E(C)               :       -4.618879322627 Eh       
E(XC)              :     -124.176382625982 Eh       

---------------
SCF CONVERGENCE
---------------

  Last Energy change         ...    5.1338e-06  Tolerance :   1.0000e-06
  Last MAX-Density change    ...    3.5836e-03  Tolerance :   1.0000e-05
  Last RMS-Density change    ...    4.0867e-05  Tolerance :   1.0000e-06
  Last DIIS Error            ...    3.1657e-04  Tolerance :   1.0000e-06
  Last Orbital Gradient      ...    1.4259e-05  Tolerance :   3.3300e-04
  Last Orbital Rotation      ...    6.6591e-05  Tolerance :   3.3300e-04


----------------
ORBITAL ENERGIES
----------------

  NO   OCC          E(Eh)            E(eV) 
   0   2.0000     -18.967899      -516.1428 
   1   2.0000     -18.937098      -515.3046 
   2   2.0000     -18.931630      -515.1559 
   3   2.0000     -14.185343      -386.0028 
   4   2.0000     -10.119248      -275.3587 
   5   2.0000     -10.116036      -275.2713 
   6   2.0000     -10.097936      -274.7788 
   7   2.0000     -10.096227      -274.7323 
   8   2.0000     -10.085151      -274.4309 
   9   2.0000     -10.054755      -273.6038 
  10   2.0000     -10.052329      -273.5378 
  11   2.0000     -10.051902      -273.5261 
  12   2.0000     -10.050794      -273.4960 
  13   2.0000     -10.050004      -273.4745 
  14   2.0000     -10.049009      -273.4474 
  15   2.0000     -10.047395      -273.4035 
  16   2.0000     -10.046069      -273.3674 
  17   2.0000     -10.045479      -273.3514 
  18   2.0000     -10.041687      -273.2482 
  19   2.0000     -10.034828      -273.0616 
  20   2.0000      -1.005488       -27.3607 
  21   2.0000      -1.001093       -27.2411 
  22   2.0000      -0.995774       -27.0964 
  23   2.0000      -0.924873       -25.1671 
  24   2.0000      -0.846095       -23.0234 
  25   2.0000      -0.828420       -22.5424 
  26   2.0000      -0.768800       -20.9201 
  27   2.0000      -0.748714       -20.3736 
  28   2.0000      -0.732910       -19.9435 
  29   2.0000      -0.726295       -19.7635 
  30   2.0000      -0.697868       -18.9899 
  31   2.0000      -0.645956       -17.5774 
  32   2.0000      -0.629430       -17.1277 
  33   2.0000      -0.610235       -16.6053 
  34   2.0000      -0.599629       -16.3167 
  35   2.0000      -0.564613       -15.3639 
  36   2.0000      -0.549017       -14.9395 
  37   2.0000      -0.518782       -14.1168 
  38   2.0000      -0.513663       -13.9775 
  39   2.0000      -0.506363       -13.7788 
  40   2.0000      -0.482503       -13.1296 
  41   2.0000      -0.468053       -12.7364 
  42   2.0000      -0.455198       -12.3866 
  43   2.0000      -0.442089       -12.0298 
  44   2.0000      -0.439400       -11.9567 
  45   2.0000      -0.427101       -11.6220 
  46   2.0000      -0.423708       -11.5297 
  47   2.0000      -0.410509       -11.1705 
  48   2.0000      -0.403453       -10.9785 
  49   2.0000      -0.398865       -10.8537 
  50   2.0000      -0.397712       -10.8223 
  51   2.0000      -0.390902       -10.6370 
  52   2.0000      -0.382530       -10.4092 
  53   2.0000      -0.370590       -10.0843 
  54   2.0000      -0.368349       -10.0233 
  55   2.0000      -0.359974        -9.7954 
  56   2.0000      -0.348378        -9.4798 
  57   2.0000      -0.340850        -9.2750 
  58   2.0000      -0.333872        -9.0851 
  59   2.0000      -0.328322        -8.9341 
  60   2.0000      -0.321429        -8.7465 
  61   2.0000      -0.317480        -8.6391 
  62   2.0000      -0.286286        -7.7902 
  63   2.0000      -0.258630        -7.0377 
  64   2.0000      -0.255220        -6.9449 
  65   2.0000      -0.246108        -6.6970 
  66   2.0000      -0.245473        -6.6797 
  67   2.0000      -0.229329        -6.2403 
  68   2.0000      -0.216785        -5.8990 
  69   2.0000      -0.191187        -5.2025 
  70   0.0000      -0.123620        -3.3639 
  71   0.0000      -0.074270        -2.0210 
  72   0.0000      -0.044121        -1.2006 
  73   0.0000      -0.023119        -0.6291 
  74   0.0000       0.028346         0.7713 
  75   0.0000       0.039193         1.0665 
  76   0.0000       0.047182         1.2839 
  77   0.0000       0.074518         2.0277 
  78   0.0000       0.084961         2.3119 
  79   0.0000       0.089546         2.4367 
  80   0.0000       0.097157         2.6438 
*Only the first 10 virtual orbitals were printed.

                    ********************************
                    * MULLIKEN POPULATION ANALYSIS *
                    ********************************

-----------------------
MULLIKEN ATOMIC CHARGES
-----------------------
   0 C :   -0.133098
   1 C :   -0.129079
   2 C :   -0.230605
   3 C :    0.188266
   4 C :    0.140557
   5 C :   -0.217517
   6 C :    0.029448
   7 O :   -0.356382
   8 C :    0.193702
   9 C :   -0.249917
  10 C :   -0.173887
  11 C :   -0.291579
  12 C :    0.324453
  13 C :   -0.149265
  14 C :    0.014565
  15 O :   -0.441475
  16 N :    0.004979
  17 C :   -0.391097
  18 C :   -0.063108
  19 O :   -0.405818
  20 H :    0.148401
  21 H :    0.148007
  22 H :    0.182061
  23 H :    0.181852
  24 H :    0.184392
  25 H :    0.146827
  26 H :    0.164407
  27 H :    0.306089
  28 H :    0.158379
  29 H :    0.170557
  30 H :    0.124995
  31 H :    0.124827
  32 H :    0.296060
Sum of atomic charges:    0.0000000

--------------------------------
MULLIKEN REDUCED ORBITAL CHARGES
--------------------------------
  0 C s       :     3.199738  s :     3.199738
      pz      :     0.970155  p :     2.895752
      px      :     1.022254
      py      :     0.903343
      dz2     :     0.003274  d :     0.037607
      dxz     :     0.002624
      dyz     :     0.006457
      dx2y2   :     0.013529
      dxy     :     0.011724

  1 C s       :     3.198253  s :     3.198253
      pz      :     0.963977  p :     2.893127
      px      :     0.945493
      py      :     0.983657
      dz2     :     0.003415  d :     0.037699
      dxz     :     0.005461
      dyz     :     0.003632
      dx2y2   :     0.011930
      dxy     :     0.013261

  2 C s       :     3.236488  s :     3.236488
      pz      :     0.944241  p :     2.957234
      px      :     0.967434
      py      :     1.045560
      dz2     :     0.003293  d :     0.036883
      dxz     :     0.005607
      dyz     :     0.003417
      dx2y2   :     0.011319
      dxy     :     0.013246

  3 C s       :     3.196736  s :     3.196736
      pz      :     0.984448  p :     2.569722
      px      :     0.727348
      py      :     0.857927
      dz2     :     0.003869  d :     0.045275
      dxz     :     0.004594
      dyz     :     0.007034
      dx2y2   :     0.016038
      dxy     :     0.013740

  4 C s       :     3.240502  s :     3.240502
      pz      :     0.979804  p :     2.573606
      px      :     0.847290
      py      :     0.746512
      dz2     :     0.004014  d :     0.045335
      dxz     :     0.006071
      dyz     :     0.005068
      dx2y2   :     0.014223
      dxy     :     0.015959

  5 C s       :     3.236421  s :     3.236421
      pz      :     0.936359  p :     2.944082
      px      :     0.974209
      py      :     1.033513
      dz2     :     0.003277  d :     0.037015
      dxz     :     0.005401
      dyz     :     0.003726
      dx2y2   :     0.012682
      dxy     :     0.011929

  6 C s       :     3.376576  s :     3.376576
      pz      :     0.787668  p :     2.501732
      px      :     0.906931
      py      :     0.807132
      dz2     :     0.005153  d :     0.092244
      dxz     :     0.008880
      dyz     :     0.014355
      dx2y2   :     0.036142
      dxy     :     0.027714

  7 O s       :     3.861877  s :     3.861877
      pz      :     1.369320  p :     4.470055
      px      :     1.712541
      py      :     1.388193
      dz2     :     0.005495  d :     0.024450
      dxz     :     0.004666
      dyz     :     0.008584
      dx2y2   :     0.001627
      dxy     :     0.004078

  8 C s       :     3.212032  s :     3.212032
      pz      :     0.987992  p :     2.548354
      px      :     0.693840
      py      :     0.866521
      dz2     :     0.003987  d :     0.045912
      dxz     :     0.004088
      dyz     :     0.008638
      dx2y2   :     0.015838
      dxy     :     0.013360

  9 C s       :     3.223544  s :     3.223544
      pz      :     0.966234  p :     2.989667
      px      :     0.975568
      py      :     1.047865
      dz2     :     0.003269  d :     0.036706
      dxz     :     0.005426
      dyz     :     0.003517
      dx2y2   :     0.011537
      dxy     :     0.012956

 10 C s       :     3.234238  s :     3.234238
      pz      :     0.964015  p :     2.900564
      px      :     0.952990
      py      :     0.983559
      dz2     :     0.003513  d :     0.039085
      dxz     :     0.006252
      dyz     :     0.003990
      dx2y2   :     0.012138
      dxy     :     0.013192

 11 C s       :     3.252438  s :     3.252438
      pz      :     1.023354  p :     3.003697
      px      :     1.065044
      py      :     0.915299
      dz2     :     0.003456  d :     0.035444
      dxz     :     0.002546
      dyz     :     0.005819
      dx2y2   :     0.012475
      dxy     :     0.011148

 12 C s       :     3.060368  s :     3.060368
      pz      :     0.902662  p :     2.549299
      px      :     0.795343
      py      :     0.851293
      dz2     :     0.005731  d :     0.065880
      dxz     :     0.008713
      dyz     :     0.013836
      dx2y2   :     0.018131
      dxy     :     0.019469

 13 C s       :     3.456898  s :     3.456898
      pz      :     1.082385  p :     2.649988
      px      :     0.821830
      py      :     0.745773
      dz2     :     0.004051  d :     0.042378
      dxz     :     0.005228
      dyz     :     0.004989
      dx2y2   :     0.014450
      dxy     :     0.013660

 14 C s       :     3.433525  s :     3.433525
      pz      :     0.796000  p :     2.461074
      px      :     0.861865
      py      :     0.803209
      dz2     :     0.005222  d :     0.090836
      dxz     :     0.008034
      dyz     :     0.016742
      dx2y2   :     0.034007
      dxy     :     0.026831

 15 O s       :     3.848319  s :     3.848319
      pz      :     1.447115  p :     4.560495
      px      :     1.737964
      py      :     1.375415
      dz2     :     0.006345  d :     0.032662
      dxz     :     0.004469
      dyz     :     0.008394
      dx2y2   :     0.010298
      dxy     :     0.003156

 16 N s       :     3.283641  s :     3.283641
      pz      :     1.588054  p :     3.622852
      px      :     0.966349
      py      :     1.068449
      dz2     :     0.009142  d :     0.088528
      dxz     :     0.014170
      dyz     :     0.014589
      dx2y2   :     0.028122
      dxy     :     0.022506

 17 C s       :     3.371246  s :     3.371246
      pz      :     0.992889  p :     2.971914
      px      :     0.847000
      py      :     1.132026
      dz2     :     0.007339  d :     0.047936
      dxz     :     0.014355
      dyz     :     0.007258
      dx2y2   :     0.012664
      dxy     :     0.006320

 18 C s       :     3.238171  s :     3.238171
      pz      :     0.919765  p :     2.766578
      px      :     1.042818
      py      :     0.803996
      dz2     :     0.009959  d :     0.058358
      dxz     :     0.008350
      dyz     :     0.015089
      dx2y2   :     0.010872
      dxy     :     0.014089

 19 O s       :     3.764519  s :     3.764519
      pz      :     1.365333  p :     4.629599
      px      :     1.820763
      py      :     1.443503
      dz2     :     0.002396  d :     0.011699
      dxz     :     0.000886
      dyz     :     0.001517
      dx2y2   :     0.005232
      dxy     :     0.001668

 20 H s       :     0.832082  s :     0.832082
      pz      :     0.004128  p :     0.019517
      px      :     0.012259
      py      :     0.003130

 21 H s       :     0.832501  s :     0.832501
      pz      :     0.003957  p :     0.019492
      px      :     0.005542
      py      :     0.009993

 22 H s       :     0.797912  s :     0.797912
      pz      :     0.003903  p :     0.020027
      px      :     0.006219
      py      :     0.009904

 23 H s       :     0.798200  s :     0.798200
      pz      :     0.003826  p :     0.019948
      px      :     0.004799
      py      :     0.011323

 24 H s       :     0.795400  s :     0.795400
      pz      :     0.004155  p :     0.020208
      px      :     0.006445
      py      :     0.009607

 25 H s       :     0.833720  s :     0.833720
      pz      :     0.003896  p :     0.019453
      px      :     0.005405
      py      :     0.010152

 26 H s       :     0.814851  s :     0.814851
      pz      :     0.004371  p :     0.020742
      px      :     0.013143
      py      :     0.003228

 27 H s       :     0.656581  s :     0.656581
      pz      :     0.008745  p :     0.037330
      px      :     0.013343
      py      :     0.015242

 28 H s       :     0.823971  s :     0.823971
      pz      :     0.006123  p :     0.017649
      px      :     0.002850
      py      :     0.008677

 29 H s       :     0.811537  s :     0.811537
      pz      :     0.005398  p :     0.017905
      px      :     0.004051
      py      :     0.008456

 30 H s       :     0.857725  s :     0.857725
      pz      :     0.005548  p :     0.017280
      px      :     0.005455
      py      :     0.006278

 31 H s       :     0.858041  s :     0.858041
      pz      :     0.003448  p :     0.017132
      px      :     0.009898
      py      :     0.003786

 32 H s       :     0.660576  s :     0.660576
      pz      :     0.020240  p :     0.043364
      px      :     0.014667
      py      :     0.008457


------------------------
MULLIKEN OVERLAP CHARGES
------------------------
B(  0-C ,  1-C ) :   0.5530 B(  0-C ,  2-C ) :   0.0872 B(  0-C ,  3-C ) :  -0.2809 
B(  0-C ,  4-C ) :   0.0699 B(  0-C ,  5-C ) :   0.4530 B(  0-C , 20-H ) :   0.8117 
B(  0-C , 21-H ) :  -0.0630 B(  0-C , 23-H ) :  -0.1164 B(  1-C ,  2-C ) :   0.3714 
B(  1-C ,  3-C ) :   0.1115 B(  1-C ,  4-C ) :  -0.2678 B(  1-C ,  5-C ) :   0.0612 
B(  1-C , 20-H ) :  -0.0641 B(  1-C , 21-H ) :   0.8113 B(  1-C , 22-H ) :  -0.1172 
B(  2-C ,  3-C ) :   0.7158 B(  2-C ,  4-C ) :  -0.3500 B(  2-C ,  5-C ) :  -0.3138 
B(  2-C ,  6-C ) :   0.1379 B(  2-C , 13-C ) :   0.1627 B(  2-C , 14-C ) :  -0.4365 
B(  2-C , 15-O ) :   0.1236 B(  2-C , 21-H ) :  -0.0598 B(  2-C , 22-H ) :   0.8412 
B(  3-C ,  4-C ) :  -2.6934 B(  3-C ,  5-C ) :  -0.3367 B(  3-C ,  6-C ) :   1.6964 
B(  3-C ,  7-O ) :  -0.0644 B(  3-C ,  8-C ) :  -2.0437 B(  3-C ,  9-C ) :  -0.0550 
B(  3-C , 12-C ) :   0.2553 B(  3-C , 13-C ) :   1.8537 B(  3-C , 14-C ) :  -2.0919 
B(  3-C , 15-O ) :  -0.4414 B(  4-C ,  5-C ) :   0.8235 B(  4-C ,  6-C ) :  -2.3722 
B(  4-C ,  7-O ) :  -0.4134 B(  4-C ,  8-C ) :   1.7970 B(  4-C ,  9-C ) :   0.1976 
B(  4-C , 12-C ) :  -0.0610 B(  4-C , 13-C ) :  -2.3650 B(  4-C , 14-C ) :   1.7767 
B(  5-C ,  6-C ) :  -0.5970 B(  5-C ,  7-O ) :   0.1300 B(  5-C ,  8-C ) :   0.2047 
B(  5-C , 14-C ) :   0.1708 B(  5-C , 20-H ) :  -0.0590 B(  5-C , 23-H ) :   0.8472 
B(  6-C ,  7-O ) :   1.3797 B(  6-C ,  8-C ) :  -2.1481 B(  6-C ,  9-C ) :  -0.6136 
B(  6-C , 10-C ) :   0.1060 B(  6-C , 11-C ) :  -0.0601 B(  6-C , 12-C ) :   0.2395 
B(  6-C , 13-C ) :   1.6414 B(  6-C , 14-C ) :  -1.5204 B(  7-O ,  8-C ) :  -0.4189 
B(  7-O ,  9-C ) :   0.1176 B(  7-O , 13-C ) :  -0.0739 B(  8-C ,  9-C ) :   0.5518 
B(  8-C , 10-C ) :   0.3390 B(  8-C , 11-C ) :  -0.6470 B(  8-C , 12-C ) :   0.2400 
B(  8-C , 13-C ) :  -3.3864 B(  8-C , 14-C ) :   1.1955 B(  9-C , 10-C ) :  -0.1503 
B(  9-C , 11-C ) :   0.4650 B(  9-C , 12-C ) :  -0.8825 B(  9-C , 13-C ) :   0.1250 
B(  9-C , 14-C ) :   0.2638 B(  9-C , 24-H ) :   0.8695 B(  9-C , 25-H ) :  -0.0795 
B( 10-C , 12-C ) :   0.6197 B( 10-C , 13-C ) :  -0.6856 B( 10-C , 14-C ) :  -0.0513 
B( 10-C , 24-H ) :  -0.1293 B( 10-C , 25-H ) :   0.8358 B( 11-C , 12-C ) :  -0.5182 
B( 11-C , 13-C ) :   0.3864 B( 11-C , 14-C ) :   0.1254 B( 11-C , 16-N ) :  -0.2025 
B( 11-C , 17-C ) :  -0.1787 B( 11-C , 19-O ) :   0.1112 B( 11-C , 25-H ) :  -0.0742 
B( 11-C , 26-H ) :   0.7647 B( 12-C , 13-C ) :  -1.4884 B( 12-C , 14-C ) :  -1.2481 
B( 12-C , 15-O ) :   0.1739 B( 12-C , 16-N ) :   0.6337 B( 12-C , 17-C ) :  -0.0928 
B( 12-C , 19-O ) :  -0.0797 B( 12-C , 26-H ) :  -0.0621 B( 13-C , 14-C ) :  -1.9727 
B( 13-C , 15-O ) :  -0.3479 B( 13-C , 17-C ) :   0.0745 B( 13-C , 27-H ) :  -0.1131 
B( 14-C , 15-O ) :   1.1767 B( 15-O , 16-N ) :  -0.2144 B( 15-O , 27-H ) :   0.0921 
B( 16-N , 17-C ) :   0.1843 B( 16-N , 18-C ) :  -0.1187 B( 16-N , 27-H ) :   0.6917 
B( 16-N , 28-H ) :  -0.0894 B( 16-N , 29-H ) :  -0.0518 B( 17-C , 18-C ) :   0.4007 
B( 17-C , 19-O ) :  -0.2309 B( 17-C , 27-H ) :  -0.0981 B( 17-C , 28-H ) :   0.8214 
B( 17-C , 29-H ) :   0.8228 B( 17-C , 31-H ) :  -0.1248 B( 18-C , 19-O ) :   0.4729 
B( 18-C , 28-H ) :  -0.0608 B( 18-C , 29-H ) :  -0.0908 B( 18-C , 30-H ) :   0.8337 
B( 18-C , 31-H ) :   0.8427 B( 18-C , 32-H ) :  -0.0977 B( 19-O , 30-H ) :  -0.1017 
B( 19-O , 31-H ) :  -0.0993 B( 19-O , 32-H ) :   0.5899 B( 30-H , 31-H ) :  -0.0877 



                     *******************************
                     * LOEWDIN POPULATION ANALYSIS *
                     *******************************

----------------------
LOEWDIN ATOMIC CHARGES
----------------------
   0 C :   -0.145062
   1 C :   -0.142148
   2 C :   -0.103489
   3 C :   -0.025349
   4 C :   -0.035268
   5 C :   -0.098125
   6 C :    0.268532
   7 O :   -0.483699
   8 C :   -0.027037
   9 C :   -0.122337
  10 C :   -0.130247
  11 C :   -0.123500
  12 C :    0.205799
  13 C :   -0.036715
  14 C :    0.269113
  15 O :   -0.544429
  16 N :   -0.668871
  17 C :   -0.014053
  18 C :    0.030197
  19 O :   -0.616929
  20 H :    0.170061
  21 H :    0.169878
  22 H :    0.192473
  23 H :    0.191588
  24 H :    0.192957
  25 H :    0.171385
  26 H :    0.186591
  27 H :    0.295320
  28 H :    0.190633
  29 H :    0.189042
  30 H :    0.164661
  31 H :    0.158906
  32 H :    0.270122

-------------------------------
LOEWDIN REDUCED ORBITAL CHARGES
-------------------------------
  0 C s       :     2.904581  s :     2.904581
      pz      :     0.958187  p :     3.158275
      px      :     1.101292
      py      :     1.098797
      dz2     :     0.005615  d :     0.082205
      dxz     :     0.004063
      dyz     :     0.012053
      dx2y2   :     0.032837
      dxy     :     0.027637

  1 C s       :     2.904864  s :     2.904864
      pz      :     0.954134  p :     3.154950
      px      :     1.099598
      py      :     1.101218
      dz2     :     0.005889  d :     0.082334
      dxz     :     0.009997
      dyz     :     0.006171
      dx2y2   :     0.028286
      dxy     :     0.031992

  2 C s       :     2.895027  s :     2.895027
      pz      :     0.941043  p :     3.128032
      px      :     1.086202
      py      :     1.100787
      dz2     :     0.005558  d :     0.080430
      dxz     :     0.010110
      dyz     :     0.005938
      dx2y2   :     0.027299
      dxy     :     0.031526

  3 C s       :     2.847598  s :     2.847598
      pz      :     0.964284  p :     3.082215
      px      :     1.033095
      py      :     1.084836
      dz2     :     0.007449  d :     0.095536
      dxz     :     0.007678
      dyz     :     0.012819
      dx2y2   :     0.035882
      dxy     :     0.031710

  4 C s       :     2.848156  s :     2.848156
      pz      :     0.971239  p :     3.090908
      px      :     1.080553
      py      :     1.039116
      dz2     :     0.007817  d :     0.096204
      dxz     :     0.010978
      dyz     :     0.008805
      dx2y2   :     0.032554
      dxy     :     0.036050

  5 C s       :     2.895769  s :     2.895769
      pz      :     0.933314  p :     3.121773
      px      :     1.079542
      py      :     1.108917
      dz2     :     0.005552  d :     0.080583
      dxz     :     0.009999
      dyz     :     0.006214
      dx2y2   :     0.029883
      dxy     :     0.028936

  6 C s       :     2.782886  s :     2.782886
      pz      :     0.752477  p :     2.748673
      px      :     0.999472
      py      :     0.996723
      dz2     :     0.012751  d :     0.199909
      dxz     :     0.015570
      dyz     :     0.025743
      dx2y2   :     0.082023
      dxy     :     0.063822

  7 O s       :     3.560913  s :     3.560913
      pz      :     1.372668  p :     4.667744
      px      :     1.726879
      py      :     1.568197
      dz2     :     0.030343  d :     0.255042
      dxz     :     0.019522
      dyz     :     0.038103
      dx2y2   :     0.084183
      dxy     :     0.082891

  8 C s       :     2.847574  s :     2.847574
      pz      :     0.966804  p :     3.082685
      px      :     1.034842
      py      :     1.081039
      dz2     :     0.007626  d :     0.096777
      dxz     :     0.006918
      dyz     :     0.015946
      dx2y2   :     0.035442
      dxy     :     0.030846

  9 C s       :     2.892161  s :     2.892161
      pz      :     0.968564  p :     3.149888
      px      :     1.080693
      py      :     1.100631
      dz2     :     0.005551  d :     0.080288
      dxz     :     0.009739
      dyz     :     0.006142
      dx2y2   :     0.027728
      dxy     :     0.031129

 10 C s       :     2.900780  s :     2.900780
      pz      :     0.943109  p :     3.144197
      px      :     1.099044
      py      :     1.102044
      dz2     :     0.006069  d :     0.085270
      dxz     :     0.011626
      dyz     :     0.006931
      dx2y2   :     0.028803
      dxy     :     0.031841

 11 C s       :     2.888961  s :     2.888961
      pz      :     1.001841  p :     3.157720
      px      :     1.105224
      py      :     1.050654
      dz2     :     0.005759  d :     0.076819
      dxz     :     0.004032
      dyz     :     0.010443
      dx2y2   :     0.030209
      dxy     :     0.026376

 12 C s       :     2.770164  s :     2.770164
      pz      :     0.860248  p :     2.883953
      px      :     1.020697
      py      :     1.003008
      dz2     :     0.011266  d :     0.140084
      dxz     :     0.016560
      dyz     :     0.026013
      dx2y2   :     0.042784
      dxy     :     0.043462

 13 C s       :     2.833696  s :     2.833696
      pz      :     1.061111  p :     3.114389
      px      :     1.021459
      py      :     1.031820
      dz2     :     0.007423  d :     0.088630
      dxz     :     0.009081
      dyz     :     0.008710
      dx2y2   :     0.031964
      dxy     :     0.031451

 14 C s       :     2.779029  s :     2.779029
      pz      :     0.770520  p :     2.754699
      px      :     0.989564
      py      :     0.994615
      dz2     :     0.012717  d :     0.197159
      dxz     :     0.014185
      dyz     :     0.030729
      dx2y2   :     0.077862
      dxy     :     0.061664

 15 O s       :     3.561132  s :     3.561132
      pz      :     1.439592  p :     4.700604
      px      :     1.707352
      py      :     1.553661
      dz2     :     0.035732  d :     0.282692
      dxz     :     0.021370
      dyz     :     0.041038
      dx2y2   :     0.096140
      dxy     :     0.088412

 16 N s       :     3.094965  s :     3.094965
      pz      :     1.549606  p :     4.009058
      px      :     1.207607
      py      :     1.251844
      dz2     :     0.055415  d :     0.564848
      dxz     :     0.096870
      dyz     :     0.065723
      dx2y2   :     0.158785
      dxy     :     0.188055

 17 C s       :     2.849273  s :     2.849273
      pz      :     1.032353  p :     3.056885
      px      :     0.935423
      py      :     1.089108
      dz2     :     0.014482  d :     0.107896
      dxz     :     0.031493
      dyz     :     0.017266
      dx2y2   :     0.029176
      dxy     :     0.015479

 18 C s       :     2.878548  s :     2.878548
      pz      :     0.996433  p :     2.961355
      px      :     1.061352
      py      :     0.903571
      dz2     :     0.022014  d :     0.129900
      dxz     :     0.017884
      dyz     :     0.033107
      dx2y2   :     0.025104
      dxy     :     0.031790

 19 O s       :     3.518400  s :     3.518400
      pz      :     1.457800  p :     4.819025
      px      :     1.806562
      py      :     1.554663
      dz2     :     0.063478  d :     0.279504
      dxz     :     0.035417
      dyz     :     0.067640
      dx2y2   :     0.052451
      dxy     :     0.060518

 20 H s       :     0.785084  s :     0.785084
      pz      :     0.008991  p :     0.044855
      px      :     0.028761
      py      :     0.007103

 21 H s       :     0.785335  s :     0.785335
      pz      :     0.008570  p :     0.044787
      px      :     0.012757
      py      :     0.023460

 22 H s       :     0.760518  s :     0.760518
      pz      :     0.008675  p :     0.047009
      px      :     0.014701
      py      :     0.023633

 23 H s       :     0.761668  s :     0.761668
      pz      :     0.008457  p :     0.046744
      px      :     0.010976
      py      :     0.027311

 24 H s       :     0.759375  s :     0.759375
      pz      :     0.009396  p :     0.047668
      px      :     0.015419
      py      :     0.022853

 25 H s       :     0.784137  s :     0.784137
      pz      :     0.008401  p :     0.044477
      px      :     0.012522
      py      :     0.023554

 26 H s       :     0.765688  s :     0.765688
      pz      :     0.009963  p :     0.047721
      px      :     0.030860
      py      :     0.006898

 27 H s       :     0.598001  s :     0.598001
      pz      :     0.022005  p :     0.106679
      px      :     0.039592
      py      :     0.045083

 28 H s       :     0.768937  s :     0.768937
      pz      :     0.014033  p :     0.040431
      px      :     0.005905
      py      :     0.020492

 29 H s       :     0.769687  s :     0.769687
      pz      :     0.012191  p :     0.041271
      px      :     0.008385
      py      :     0.020695

 30 H s       :     0.795019  s :     0.795019
      pz      :     0.013547  p :     0.040319
      px      :     0.012798
      py      :     0.013974

 31 H s       :     0.800253  s :     0.800253
      pz      :     0.008222  p :     0.040841
      px      :     0.024207
      py      :     0.008412

 32 H s       :     0.606754  s :     0.606754
      pz      :     0.060057  p :     0.123124
      px      :     0.039724
      py      :     0.023343


---------------------------------
LOEWDIN BOND ORDERS (THRESH 0.050000)
---------------------------------
B(  0-C ,  1-C ) :   1.4743 B(  0-C ,  2-C ) :   0.0900 B(  0-C ,  3-C ) :   0.1101 
B(  0-C ,  4-C ) :   0.0904 B(  0-C ,  5-C ) :   1.5236 B(  0-C , 20-H ) :   0.8726 
B(  0-C , 21-H ) :   0.0534 B(  0-C , 23-H ) :   0.0523 B(  1-C ,  2-C ) :   1.5214 
B(  1-C ,  3-C ) :   0.0902 B(  1-C ,  4-C ) :   0.1104 B(  1-C ,  5-C ) :   0.0906 
B(  1-C , 20-H ) :   0.0534 B(  1-C , 21-H ) :   0.8726 B(  1-C , 22-H ) :   0.0524 
B(  2-C ,  3-C ) :   1.3917 B(  2-C ,  4-C ) :   0.0845 B(  2-C ,  5-C ) :   0.1192 
B(  2-C , 14-C ) :   0.0864 B(  2-C , 15-O ) :   0.0812 B(  2-C , 21-H ) :   0.0554 
B(  2-C , 22-H ) :   0.8459 B(  3-C ,  4-C ) :   1.3244 B(  3-C ,  5-C ) :   0.0846 
B(  3-C ,  6-C ) :   0.0813 B(  3-C , 13-C ) :   0.0816 B(  3-C , 14-C ) :   0.9742 
B(  3-C , 15-O ) :   0.2034 B(  3-C , 22-H ) :   0.0513 B(  4-C ,  5-C ) :   1.3906 
B(  4-C ,  6-C ) :   0.9859 B(  4-C ,  7-O ) :   0.2034 B(  4-C ,  8-C ) :   0.0822 
B(  4-C , 14-C ) :   0.0767 B(  4-C , 23-H ) :   0.0518 B(  5-C ,  6-C ) :   0.0890 
B(  5-C ,  7-O ) :   0.0810 B(  5-C , 20-H ) :   0.0554 B(  5-C , 23-H ) :   0.8489 
B(  6-C ,  7-O ) :   2.2283 B(  6-C ,  8-C ) :   0.9825 B(  6-C ,  9-C ) :   0.1007 
B(  6-C , 13-C ) :   0.0739 B(  7-O ,  8-C ) :   0.2028 B(  7-O ,  9-C ) :   0.1058 
B(  8-C ,  9-C ) :   1.4385 B(  8-C , 10-C ) :   0.0905 B(  8-C , 11-C ) :   0.1096 
B(  8-C , 12-C ) :   0.0811 B(  8-C , 13-C ) :   1.2687 B(  8-C , 14-C ) :   0.0827 
B(  8-C , 24-H ) :   0.0523 B(  9-C , 10-C ) :   1.4278 B(  9-C , 11-C ) :   0.0930 
B(  9-C , 12-C ) :   0.0701 B(  9-C , 13-C ) :   0.0929 B(  9-C , 24-H ) :   0.8444 
B(  9-C , 25-H ) :   0.0533 B( 10-C , 11-C ) :   1.5724 B( 10-C , 12-C ) :   0.0903 
B( 10-C , 13-C ) :   0.0813 B( 10-C , 24-H ) :   0.0510 B( 10-C , 25-H ) :   0.8687 
B( 10-C , 26-H ) :   0.0550 B( 11-C , 12-C ) :   1.2057 B( 11-C , 13-C ) :   0.0829 
B( 11-C , 16-N ) :   0.2098 B( 11-C , 25-H ) :   0.0572 B( 11-C , 26-H ) :   0.8437 
B( 12-C , 13-C ) :   1.1400 B( 12-C , 14-C ) :   0.0783 B( 12-C , 15-O ) :   0.0524 
B( 12-C , 16-N ) :   1.5681 B( 12-C , 17-C ) :   0.0773 B( 13-C , 14-C ) :   1.0697 
B( 13-C , 15-O ) :   0.2090 B( 13-C , 16-N ) :   0.2120 B( 14-C , 15-O ) :   2.1019 
B( 14-C , 16-N ) :   0.0590 B( 15-O , 16-N ) :   0.2030 B( 15-O , 27-H ) :   0.0989 
B( 16-N , 17-C ) :   1.3325 B( 16-N , 18-C ) :   0.1474 B( 16-N , 27-H ) :   0.7930 
B( 16-N , 28-H ) :   0.1009 B( 16-N , 29-H ) :   0.0915 B( 17-C , 18-C ) :   0.9711 
B( 17-C , 19-O ) :   0.1578 B( 17-C , 28-H ) :   0.8142 B( 17-C , 29-H ) :   0.8114 
B( 18-C , 19-O ) :   1.4236 B( 18-C , 30-H ) :   0.8328 B( 18-C , 31-H ) :   0.8308 
B( 19-O , 30-H ) :   0.1027 B( 19-O , 31-H ) :   0.1069 B( 19-O , 32-H ) :   0.9712 


------------------------------------------
LOEWDIN REDUCED ORBITAL POPULATIONS PER MO
-------------------------------------------
THRESHOLD FOR PRINTING IS 0.1%%
                      0         1         2         3         4         5   
                 -18.96790 -18.93710 -18.93163 -14.18534 -10.11925 -10.11604
                   2.00000   2.00000   2.00000   2.00000   2.00000   2.00000
                  --------  --------  --------  --------  --------  --------
 6 C  s               0.0       0.0       0.0       0.0       0.0      99.2
 7 O  s               0.0       0.0      99.9       0.0       0.0       0.0
 7 O  py              0.0       0.0       0.0       0.0       0.0       0.2
 7 O  dxy             0.0       0.0       0.0       0.0       0.0       0.2
14 C  s               0.0       0.0       0.0       0.0      99.2       0.0
15 O  s               0.0      99.9       0.0       0.0       0.0       0.0
15 O  py              0.0       0.0       0.0       0.0       0.2       0.0
15 O  dxy             0.0       0.0       0.0       0.0       0.2       0.0
16 N  s               0.0       0.0       0.0      99.8       0.0       0.0
19 O  s              99.9       0.0       0.0       0.0       0.0       0.0

                      6         7         8         9        10        11   
                 -10.09794 -10.09623 -10.08515 -10.05475 -10.05233 -10.05190
                   2.00000   2.00000   2.00000   2.00000   2.00000   2.00000
                  --------  --------  --------  --------  --------  --------
 3 C  s               0.0       0.0       0.0      98.8       0.7       0.0
 4 C  s               0.0       0.0       0.0       0.7      98.7       0.0
 5 C  s               0.0       0.0       0.0       0.0       0.1       0.0
 5 C  px              0.0       0.0       0.0       0.0       0.1       0.0
 8 C  s               0.0       0.0       0.0       0.0       0.0      96.9
 9 C  py              0.0       0.0       0.0       0.0       0.0       0.1
12 C  s              99.2       0.0       0.0       0.0       0.0       0.0
13 C  s               0.0       0.0       0.0       0.0       0.0       2.6
13 C  px              0.1       0.0       0.0       0.0       0.0       0.0
16 N  px              0.0       0.0       0.1       0.0       0.0       0.0
16 N  py              0.1       0.0       0.0       0.0       0.0       0.0
16 N  dx2y2           0.1       0.0       0.2       0.0       0.0       0.0
16 N  dxy             0.2       0.0       0.0       0.0       0.0       0.0
17 C  s               0.0       0.0      99.4       0.0       0.0       0.0
18 C  s               0.0      99.4       0.0       0.0       0.0       0.0
19 O  dyz             0.0       0.1       0.0       0.0       0.0       0.0
19 O  dx2y2           0.0       0.1       0.0       0.0       0.0       0.0

                     12        13        14        15        16        17   
                 -10.05079 -10.05000 -10.04901 -10.04740 -10.04607 -10.04548
                   2.00000   2.00000   2.00000   2.00000   2.00000   2.00000
                  --------  --------  --------  --------  --------  --------
 0 C  s               0.0       5.3      93.6       0.0       0.7       0.0
 1 C  s               0.0      94.0       5.3       0.0       0.0       0.3
 1 C  px              0.0       0.0       0.0       0.0       0.0       0.1
 2 C  s               0.0       0.3       0.0       0.0       0.0      99.2
 2 C  px              0.0       0.1       0.0       0.0       0.0       0.0
 4 C  s               0.0       0.0       0.0       0.0       0.1       0.0
 4 C  px              0.0       0.0       0.0       0.0       0.1       0.0
 5 C  s               0.0       0.0       0.6       0.0      98.8       0.0
 8 C  s               2.6       0.0       0.0       0.0       0.0       0.0
 9 C  px              0.0       0.0       0.0       0.1       0.0       0.0
10 C  s               0.0       0.0       0.0      99.3       0.0       0.0
11 C  s               0.0       0.0       0.0       0.2       0.0       0.0
11 C  py              0.0       0.0       0.0       0.1       0.0       0.0
12 C  px              0.1       0.0       0.0       0.0       0.0       0.0
13 C  s              97.0       0.0       0.0       0.0       0.0       0.0

                     18        19        20        21        22        23   
                 -10.04169 -10.03483  -1.00549  -1.00109  -0.99577  -0.92487
                   2.00000   2.00000   2.00000   2.00000   2.00000   2.00000
                  --------  --------  --------  --------  --------  --------
 2 C  s               0.0       0.0       0.0       0.3       0.0       0.0
 2 C  px              0.0       0.0       0.0       0.4       0.0       0.0
 3 C  s               0.0       0.0       0.0       1.5       0.0       0.0
 3 C  px              0.0       0.0       0.1       1.7       0.2       0.0
 3 C  py              0.0       0.0       0.0       0.1       0.3       0.0
 4 C  s               0.0       0.0       0.0       0.4       1.2       0.0
 4 C  px              0.0       0.0       0.0       0.2       0.1       0.0
 4 C  py              0.0       0.0       0.0       0.0       2.1       0.0
 5 C  s               0.0       0.0       0.0       0.1       0.2       0.0
 5 C  px              0.0       0.0       0.0       0.1       0.3       0.0
 5 C  py              0.0       0.0       0.0       0.0       0.2       0.0
 6 C  s               0.0       0.0       0.0       1.2      16.4       0.0
 6 C  pz              0.0       0.0       0.0       0.0       0.2       0.0
 6 C  px              0.0       0.0       0.0       0.1       2.6       0.1
 6 C  py              0.0       0.0       0.0       0.3       8.8       0.0
 6 C  dz2             0.0       0.0       0.0       0.0       0.5       0.0
 6 C  dx2y2           0.0       0.0       0.0       0.0       0.3       0.0
 6 C  dxy             0.0       0.0       0.0       0.0       0.7       0.0
 7 O  s               0.0       0.0       0.0       2.7      49.4       0.0
 7 O  px              0.0       0.0       0.0       0.1       1.3       0.0
 7 O  py              0.0       0.0       0.0       0.3       4.4       0.0
 7 O  dz2             0.0       0.0       0.0       0.0       0.2       0.0
 7 O  dx2y2           0.0       0.0       0.0       0.0       0.1       0.0
 7 O  dxy             0.0       0.0       0.0       0.0       0.3       0.0
 8 C  s               0.0       0.0       0.0       0.4       1.2       0.3
 8 C  px              0.0       0.0       0.0       0.0       1.9       0.2
 8 C  py              0.0       0.1       0.0       0.1       0.3       0.1
 9 C  s               0.0      99.5       0.0       0.1       0.2       0.2
 9 C  px              0.0       0.0       0.0       0.0       0.5       0.1
10 C  s               0.2       0.1       0.0       0.0       0.0       0.4
10 C  px              0.0       0.1       0.0       0.0       0.0       0.0
10 C  py              0.1       0.0       0.0       0.0       0.0       0.3
11 C  s              99.4       0.0       0.1       0.1       0.0       2.2
11 C  px              0.0       0.0       0.0       0.0       0.0       0.2
11 C  py              0.0       0.0       0.1       0.0       0.0       1.7
12 C  s               0.0       0.0       0.2       0.6       0.0      13.8
12 C  pz              0.0       0.0       0.0       0.0       0.0       0.2
12 C  px              0.0       0.0       0.1       0.2       0.0       1.9
12 C  py              0.1       0.0       0.1       0.3       0.0       3.8
12 C  dz2             0.0       0.0       0.0       0.0       0.0       0.2
12 C  dxy             0.0       0.0       0.0       0.0       0.0       0.2
13 C  s               0.0       0.0       0.1       1.7       0.0       1.6
13 C  px              0.0       0.0       0.0       0.1       0.1       2.1
13 C  py              0.0       0.0       0.1       1.6       0.4       0.0
14 C  s               0.0       0.0       0.5      15.7       0.7       0.2
14 C  pz              0.0       0.0       0.0       0.2       0.0       0.0
14 C  px              0.0       0.0       0.1       2.0       0.2       0.3
14 C  py              0.0       0.0       0.2       7.9       0.8       1.1
14 C  dz2             0.0       0.0       0.0       0.4       0.0       0.0
[...]
19 O  py              0.5       0.0       0.0       0.0       0.0       0.0
19 O  dz2            18.7       0.0       0.0       0.0       0.0       0.0
19 O  dxz            13.3       0.0       0.0       0.0       0.0       0.0
19 O  dyz             4.0       0.0       0.0       0.0       0.0       0.0
19 O  dx2y2           2.9       0.0       0.0       0.0       0.0       0.0
19 O  dxy             0.4       0.0       0.0       0.0       0.0       0.0
32 H  s              14.2       0.0       0.0       0.0       0.0       0.0
32 H  pz             12.7       0.0       0.0       0.0       0.0       0.0
32 H  px              2.7       0.0       0.0       0.0       0.0       0.0
32 H  py              0.2       0.0       0.0       0.0       0.0       0.0

                    450       451       452       453       454       455   
                  22.01620  22.07280  22.13943  22.15687  22.18230  22.21107
                   0.00000   0.00000   0.00000   0.00000   0.00000   0.00000
                  --------  --------  --------  --------  --------  --------
 0 C  s               0.3       1.5       5.9       0.1      35.4       1.5
 1 C  s               4.5       1.1       4.6       0.0      32.4       5.3
 2 C  s               4.5       3.3       6.8       0.3       0.2      17.1
 3 C  s               1.7       1.7       0.1       0.2      15.7       6.9
 4 C  s               5.5       2.3       0.1       1.6      12.6       8.8
 5 C  s               7.4       2.0       7.6       0.0       0.0      15.4
 6 C  s               0.0       2.1      22.8       3.9       1.5       9.4
 8 C  s               7.2       8.5       1.1       1.5       0.8       5.7
 9 C  s               1.5      14.9       7.3       1.9       0.0       1.0
10 C  s               1.5       0.0       5.7       0.5       0.0       4.6
11 C  s               5.6       3.9       6.5       0.1       0.0       5.2
12 C  s               0.5       6.0       8.0       0.6       0.0       0.1
13 C  s               0.0      14.6       5.7       8.0       0.3       2.1
14 C  s               0.2       0.4      16.1       0.4       0.5      16.2
16 N  s               0.0       0.0       0.0       0.1       0.0       0.0
17 C  s               4.3       7.6       0.7      79.2       0.1       0.1
18 C  s              54.5      29.4       0.3       0.9       0.0       0.1

                    456       457       458       459       460       461   
                  22.22349  22.26562  22.36641  22.37523  22.39783  32.08136
                   0.00000   0.00000   0.00000   0.00000   0.00000   0.00000
                  --------  --------  --------  --------  --------  --------
 0 C  s               1.8       0.4       0.6       6.7       1.3       0.0
 1 C  s               0.9       0.4       0.5       6.6       1.7       0.0
 2 C  s               5.1       1.7       0.6      17.5       5.9       0.0
 3 C  s               1.9       0.7       8.0       8.5       3.2       0.0
 4 C  s               2.5       0.2       9.3       9.5       1.6       0.0
 4 C  px              0.0       0.0       0.0       0.1       0.0       0.0
 5 C  s               6.9       0.9       0.8      19.5       3.9       0.0
 6 C  s               1.0       4.6      27.0       1.6       6.7       0.0
 8 C  s              11.1      11.1       5.6       3.9       7.1       0.0
 8 C  px              0.0       0.0       0.1       0.0       0.1       0.0
 9 C  s               5.6      18.5       0.2       5.0      14.9       0.0
10 C  s              21.9      14.0       0.0       3.2       6.7       0.0
11 C  s              35.6       0.3       0.7       3.3       5.6       0.0
12 C  s               0.1      37.2       0.1       7.2      30.8       0.0
13 C  s               2.9       3.7       8.1       3.5       4.6       0.0
13 C  px              0.0       0.0       0.1       0.0       0.1       0.0
14 C  s               0.1       4.9      37.0       3.3       5.0       0.0
16 N  s               0.0       0.1       0.0       0.0       0.0      99.7
17 C  s               1.9       0.6       0.7       0.1       0.1       0.0
18 C  s               0.0       0.0       0.0       0.0       0.1       0.0

                    462       463       464   
                  43.61928  43.73437  43.86106
                   0.00000   0.00000   0.00000
                  --------  --------  --------
 7 O  s               0.0      78.9      20.9
15 O  s               0.1      20.9      78.8
19 O  s              99.8       0.0       0.1


                      *****************************
                      * MAYER POPULATION ANALYSIS *
                      *****************************

  NA   - Mulliken gross atomic population
  ZA   - Total nuclear charge
  QA   - Mulliken gross atomic charge
  VA   - Mayer's total valence
  BVA  - Mayer's bonded valence
  FA   - Mayer's free valence

  ATOM       NA         ZA         QA         VA         BVA        FA
  0 C      6.1331     6.0000    -0.1331     3.6939     3.6939     0.0000
  1 C      6.1291     6.0000    -0.1291     3.6845     3.6845     0.0000
  2 C      6.2306     6.0000    -0.2306     3.8129     3.8129     0.0000
  3 C      5.8117     6.0000     0.1883     3.6020     3.6020    -0.0000
  4 C      5.8594     6.0000     0.1406     3.5000     3.5000    -0.0000
  5 C      6.2175     6.0000    -0.2175     3.8050     3.8050     0.0000
  6 C      5.9706     6.0000     0.0294     3.5974     3.5974     0.0000
  7 O      8.3564     8.0000    -0.3564     2.0346     2.0346    -0.0000
  8 C      5.8063     6.0000     0.1937     3.2553     3.2553     0.0000
  9 C      6.2499     6.0000    -0.2499     3.8239     3.8239     0.0000
 10 C      6.1739     6.0000    -0.1739     3.7056     3.7056     0.0000
 11 C      6.2916     6.0000    -0.2916     3.6872     3.6872     0.0000
 12 C      5.6755     6.0000     0.3245     3.5635     3.5635     0.0000
 13 C      6.1493     6.0000    -0.1493     3.4593     3.4593     0.0000
 14 C      5.9854     6.0000     0.0146     3.5549     3.5549    -0.0000
 15 O      8.4415     8.0000    -0.4415     1.9681     1.9681    -0.0000
 16 N      6.9950     7.0000     0.0050     3.0582     3.0582    -0.0000
 17 C      6.3911     6.0000    -0.3911     3.7757     3.7757     0.0000
 18 C      6.0631     6.0000    -0.0631     3.7449     3.7449    -0.0000
 19 O      8.4058     8.0000    -0.4058     1.8370     1.8370    -0.0000
 20 H      0.8516     1.0000     0.1484     0.9686     0.9686    -0.0000
 21 H      0.8520     1.0000     0.1480     0.9684     0.9684     0.0000
 22 H      0.8179     1.0000     0.1821     0.9546     0.9546    -0.0000
 23 H      0.8181     1.0000     0.1819     0.9549     0.9549     0.0000
 24 H      0.8156     1.0000     0.1844     0.9536     0.9536     0.0000
 25 H      0.8532     1.0000     0.1468     0.9692     0.9692    -0.0000
 26 H      0.8356     1.0000     0.1644     0.9630     0.9630    -0.0000
 27 H      0.6939     1.0000     0.3061     0.9204     0.9204     0.0000
 28 H      0.8416     1.0000     0.1584     0.9580     0.9580    -0.0000
 29 H      0.8294     1.0000     0.1706     0.9496     0.9496     0.0000
 30 H      0.8750     1.0000     0.1250     0.9579     0.9579    -0.0000
 31 H      0.8752     1.0000     0.1248     0.9537     0.9537     0.0000
 32 H      0.7039     1.0000     0.2961     0.9115     0.9115    -0.0000

  Mayer bond orders larger than 0.100000
B(  0-C ,  1-C ) :   1.3217 B(  0-C ,  5-C ) :   1.3577 B(  0-C , 20-H ) :   0.9557 
B(  1-C ,  2-C ) :   1.3508 B(  1-C , 21-H ) :   0.9555 B(  2-C ,  3-C ) :   1.3544 
B(  2-C , 15-O ) :   0.1035 B(  2-C , 22-H ) :   0.9595 B(  3-C ,  4-C ) :   1.5248 
B(  3-C , 14-C ) :   0.9192 B(  3-C , 15-O ) :  -0.2056 B(  4-C ,  5-C ) :   1.3489 
B(  4-C ,  6-C ) :   0.8520 B(  4-C ,  7-O ) :  -0.2257 B(  5-C ,  7-O ) :   0.1091 
B(  5-C , 23-H ) :   0.9633 B(  6-C ,  7-O ) :   2.0999 B(  6-C ,  8-C ) :   0.8656 
B(  7-O ,  8-C ) :  -0.2181 B(  7-O ,  9-C ) :   0.1248 B(  8-C ,  9-C ) :   1.4091 
B(  8-C , 13-C ) :   1.2713 B(  9-C , 10-C ) :   1.2325 B(  9-C , 24-H ) :   0.9655 
B( 10-C , 11-C ) :   1.4142 B( 10-C , 25-H ) :   0.9690 B( 11-C , 12-C ) :   1.1294 
B( 11-C , 26-H ) :   0.9355 B( 12-C , 13-C ) :   1.2150 B( 12-C , 14-C ) :  -0.1095 
B( 12-C , 16-N ) :   1.2970 B( 13-C , 14-C ) :   0.9411 B( 13-C , 15-O ) :  -0.1318 
B( 14-C , 15-O ) :   1.8906 B( 16-N , 17-C ) :   0.8343 B( 16-N , 27-H ) :   0.8308 
B( 17-C , 18-C ) :   0.9366 B( 17-C , 28-H ) :   0.9667 B( 17-C , 29-H ) :   0.9683 
B( 18-C , 19-O ) :   0.9444 B( 18-C , 30-H ) :   0.9617 B( 18-C , 31-H ) :   0.9637 
B( 19-O , 32-H ) :   0.8996 

-------
TIMINGS
-------

Total SCF time: 0 days 0 hours 2 min 1 sec 

Total time                  ....     121.561 sec
Sum of individual times     ....     120.831 sec  ( 99.4%)

SCF preparation             ....       0.370 sec  (  0.3%)
Fock matrix formation       ....     117.594 sec  ( 96.7%)
  Startup                   ....       0.106 sec  (  0.1% of F)
  Split-RI-J                ....      37.672 sec  ( 32.0% of F)
  XC integration            ....      78.846 sec  ( 67.0% of F)
    XC Preparation          ....       0.000 sec  (  0.0% of XC)
    Basis function eval.    ....      15.104 sec  ( 19.2% of XC)
    Density eval.           ....      30.563 sec  ( 38.8% of XC)
    XC-Functional eval.     ....       5.458 sec  (  6.9% of XC)
    XC-Potential eval.      ....      25.789 sec  ( 32.7% of XC)
Diagonalization             ....       0.000 sec  (  0.0%)
Density matrix formation    ....       0.430 sec  (  0.4%)
Total Energy calculation    ....       0.069 sec  (  0.1%)
Population analysis         ....       0.420 sec  (  0.3%)
Orbital Transformation      ....       0.214 sec  (  0.2%)
Orbital Orthonormalization  ....       0.000 sec  (  0.0%)
DIIS solution               ....       1.361 sec  (  1.1%)
  MO trafo                  ....       0.000 sec  (  0.0 % of DIIS)
  Orb grad                  ....       0.000 sec  (  0.0 % of DIIS)
  Energy W gradient         ....       0.000 sec  (  0.0 % of DIIS)
  DIIS error                ....       0.100 sec  (  7.3 % of DIIS)
  DIIS work                 ....       1.112 sec  ( 81.7 % of DIIS)
  Form Q                    ....       0.000 sec  (  0.0 % of DIIS)
  Form QpQm                 ....       0.000 sec  (  0.0 % of DIIS)
  Exp/Cayley                ....       0.000 sec  (  0.0 % of DIIS)
  Orb update                ....       0.000 sec  (  0.0 % of DIIS)
  Wake-sleep                ....       0.029 sec  (  2.1 % of DIIS)
SOSCF solution              ....       0.372 sec  (  0.3%)
  MO trafo                  ....       0.152 sec  ( 40.8 % of SOSCF)
  Orb grad                  ....       0.003 sec  (  0.7 % of SOSCF)
  Rot update                ....       0.073 sec  ( 19.6 % of SOSCF)
  Step                      ....       0.144 sec  ( 38.8 % of SOSCF)
Finished LeanSCF after 121.7 sec

Maximum memory used throughout the entire LEANSCF-calculation: 60.8 MB


-------------------------------------------------------------------------------
                          DFT DISPERSION CORRECTION                            
                                                                               
                                DFTD4 V3.4.0                                   
-------------------------------------------------------------------------------
The R2SCAN3C composite method is recognized
Using three-body term ABC
Active option DFTDOPT                   ...         5   

-------------------------   ----------------
Dispersion correction           -0.015748204
-------------------------   ----------------

------------------   -----------------
gCP correction             0.016373098
------------------   -----------------

-------------------------   --------------------
FINAL SINGLE POINT ENERGY      -897.784341744621
-------------------------   --------------------


------------------------------------------------------------------------------
                              ORCA PROPERTY CALCULATIONS
------------------------------------------------------------------------------

GBWName                                 ... sp_gas.gbw
Number of atoms                         ...     33
Number of basis functions               ...    465
Max core memory                         ...   1024 MB

Electric properties:
Dipole moment                           ... YES
Quadrupole moment                       ...  NO
Static polarizability (Dipole/Dipole)   ...  NO
Static polarizability (Dipole/Quad.)    ...  NO
Static polarizability (Quad./Quad.)     ...  NO
Static polarizability (Velocity)        ...  NO

Atomic electric properties:
Dipole moment                           ...  NO
Quadrupole moment                       ...  NO
Static polarizability                   ...  NO

Choice of electric origin               ... Center of mass
Position of electric origin             ...     0.000008    -0.000007     0.000004

General magnetic properties:
Magnetizability                         ...  NO

EPR properties:
g-Tensor (aka g-matrix)                 ...  NO
Zero-Field splitting spin-orbit         ...  NO
Zero-field splitting spin-spin          ...  NO
Hyperfine couplings                     ...  NO (   0 nuclei)
Quadrupole couplings                    ...  NO (   0 nuclei)
Contact density                         ...  NO (   0 nuclei)

NMR properties:
Chemical shifts                         ...  NO (   0 nuclei)
Spin-rotation constants                 ...  NO (   0 nuclei)
Spin-spin couplings                     ...  NO (   0 nuclei,    0 pairs)

Choice of magnetic origin               ... GIAO
Position of magnetic origin             ...     0.000000     0.000000     0.000000

Properties with geometric perturbations:
SCF Hessian                             ...  NO
IR spectrum                             ...  NO
VCD spectrum                            ...  NO
X-ray spectroscopy properties:
SCF XES/XAS/RIXS spectra                ...  NO


-------------
DIPOLE MOMENT
-------------

Method             : SCF
Type of density    : Electron Density
Multiplicity       :   1
Irrep              :   0
Energy             :  -897.7849666390118273 Eh
Relativity type    : 
Basis              : AO
                                X                 Y                 Z
Electronic contribution:    -11.322365349       3.683494172       0.403889573
Nuclear contribution   :     12.794000053      -4.685979240      -0.634419435
                        -----------------------------------------
Total Dipole Moment    :      1.471634704      -1.002485069      -0.230529862
                        -----------------------------------------
Magnitude (a.u.)       :      1.795502446
Magnitude (Debye)      :      4.563804525



--------------------
Rotational spectrum 
--------------------
 
Rotational constants in cm-1:             0.022754             0.007531             0.005897 
Rotational constants in MHz :           682.139062           225.765051           176.789282 

Dipole components along the rotational axes: 
x,y,z [a.u.] :     1.427420    -1.047933    -0.296878 
x,y,z [Debye]:     3.628214    -2.663634    -0.754604 

 

Dipole moment calculation done in   0.1 sec 

Maximum memory used throughout the entire PROP-calculation: 41.7 MB

--------------------------------
SUGGESTED CITATIONS FOR THIS RUN
--------------------------------

Below you find a list of papers that are relevant to this ORCA run
We neither can nor want to force you to cite these papers, but we appreciate if you do
You receive ORCA, which is the product of decades of hard work by many enthusiastic individuals, for free
The only thing we kindly ask in return is that you cite our papers,
We deeply appreciate it, if you show your appreciation for ORCA by not just citing the generic ORCA reference.

Please note that relegating all ORCA citations to the supporting information does *not* help us.
SI sections are not indexed - citations you put there will not count into any citation statistics
But we need these citations in order to attract the funding resources that allow us to do what we are doing

Therefore, if you are a happy ORCA user, please consider citing a few of the papers listed below in the main body of your paper

In addition to the list printed below, the program has created the file sp_gas.bibtex that contains the list in bibtex format
You can import this file easily into all common literature databanks and citation aid programs


List of essential papers. We consider these as the minimum necessary citations

  1. Neese,F.
     Software update: the ORCA program system, version 5.0
     WIRES Comput. Molec. Sci., 2022 12(1)e1606
     doi.org/10.1002/wcms.1606
  2. Grimme,S.; Hansen,A.; Ehlert,S.; Mewes,J.
     r2SCAN-3c: A 'Swiss army knife' composite electronic-structure method
     J. Chem. Phys., 2021 154 064103
     doi.org/10.1063/5.0040021

List of papers to cite with high priority. The work reported in these papers was absolutely
necessary for this run to complete.
Our perspective: the developers of density functionals and basis sets usually get cited in chemistry papers
Good! But without the algorithms to do something with them, the functionals or basis sets would not do anything.
Hence, in our opinion, the algorithm design and method developments papers are equally worthy of getting cited

  1. Neese,F.
     An improvement of the resolution of the identity approximation for the formation of the Coulomb matrix
     J. Comp. Chem., 2003 24(14)1740-1747
     doi.org/10.1002/jcc.10318
  2. Neese,F.
     The SHARK Integral Generation and Digestion System
     J. Comp. Chem., 2022  1-16
     doi.org/10.1002/jcc.26942
  3. Lehtola,S.; Steigemann,C.; Oliveira,M.; Marques,M.
     Recent developments in Libxc - A comprehensive library of functionals for density functional theory
     Software X, 2018 7 
     doi.org/10.1016/j.softx.2017.11.002
  4. Caldeweyher,E.; Bannwarth,C.; Grimme,S.
     Extension of the D3 dispersion coefficient model
     J. Chem. Phys., 2017 147 034112-XXXX
     doi.org/10.1063/1.4993215
  5. Caldeweyher,E.; Ehlert,S.; Hansen,A.; Neugebauer,H.; Spicher,S.; Bannwarth,C.; Grimme,S.
     A generally applicable atomic-charge dependent London dispersion correction
     J. Chem. Phys., 2019 150 154122-XXXX
     doi.org/10.1063/1.5090222
  6. Caldeweyher,E.; Mewes,J.; Ehlert,S.; Grimme,S.
     Extension and evaluation of the D4 London-dispersion model for periodic systems
     Phys. Chem. Chem. Phys., 2020 22(16)8499-8512
     doi.org/10.1039/D0CP00502A

List of suggested additional citations. These are papers that are important in the 'surrounding' of 
of this run, or papers that preceded the highly important papers. If you like your results we are grateful for a citation.

  1. Neese,F.
     The ORCA program system
     WIRES Comput. Molec. Sci., 2012 2(1)73-78
     doi.org/10.1002/wcms.81
  2. Neese,F.
     Software update: the ORCA program system, version 4.0
     WIRES Comput. Molec. Sci., 2018 8(1)1-6
     doi.org/10.1002/wcms.1327
  3. Neese,F.; Wennmohs,F.; Becker,U.; Riplinger,C.
     The ORCA quantum chemistry program package
     J. Chem. Phys., 2020 152 Art. No. L224108
     doi.org/10.1063/5.0004608

List of optional additional citations

  1. Neese,F.
     Approximate second-order SCF convergence for spin unrestricted wavefunctions
     Chem. Phys. Lett., 2000 325(1-3)93-98
     doi.org/10.1016/s0009-2614(00)00662-x

Timings for individual modules:

Sum of individual times          ...      126.516 sec (=   2.109 min)
Startup calculation              ...        3.863 sec (=   0.064 min)   3.1 %
SCF iterations                   ...      122.431 sec (=   2.041 min)  96.8 %
Property calculations            ...        0.221 sec (=   0.004 min)   0.2 %
                             ****ORCA TERMINATED NORMALLY****
TOTAL RUN TIME: 0 days 0 hours 2 minutes 7 seconds 362 msec
