      -----------------------------------------------------------      
     |                   =====================                   |     
     |                           x T B                           |     
     |                   =====================                   |     
     |                         S. Grimme                         |     
     |          Mulliken Center for Theoretical Chemistry        |     
     |                    University of Bonn                     |     
      -----------------------------------------------------------      

   * xtb version 6.7.1 (edcfbbe) compiled by 'albert@albert-system' on 2024-07-22

   xtb is free software: you can redistribute it and/or modify it under
   the terms of the GNU Lesser General Public License as published by
   the Free Software Foundation, either version 3 of the License, or
   (at your option) any later version.
   
   xtb is distributed in the hope that it will be useful,
   but WITHOUT ANY WARRANTY; without even the implied warranty of
   MERCHANTABILITY or FITNESS FOR A PARTICULAR PURPOSE.  See the
   GNU Lesser General Public License for more details.
   
   Cite this work as:
   * C. Bannwarth, E. Caldeweyher, S. Ehlert, A. Hansen, P. Pracht,
     J. Seibert, S. Spicher, S. Grimme, WIREs Comput. Mol. Sci., 2020, 11,
     e01493. DOI: 10.1002/wcms.1493
   
   for GFN2-xTB:
   * C. Bannwarth, S. Ehlert and S. Grimme., J. Chem. Theory Comput., 2019,
     15, 1652-1671. DOI: 10.1021/acs.jctc.8b01176
   for GFN1-xTB:
   * S. Grimme, C. Bannwarth, P. Shushkov, J. Chem. Theory Comput., 2017,
     13, 1989-2009. DOI: 10.1021/acs.jctc.7b00118
   for GFN0-xTB:
   * P. Pracht, E. Caldeweyher, S. Ehlert, S. Grimme, ChemRxiv, 2019, preprint.
     DOI: 10.26434/chemrxiv.8326202.v1
   for GFN-FF:
   * S. Spicher and S. Grimme, Angew. Chem. Int. Ed., 2020, 59, 15665-15673.
     DOI: 10.1002/anie.202004239
   
   for ALPB and GBSA implicit solvation:
   * S. Ehlert, M. Stahn, S. Spicher, S. Grimme, J. Chem. Theory Comput.,
     2021, 17, 4250-4261. DOI: 10.1021/acs.jctc.1c00471
   
   for ddCOSMO and CPCM-X implicit solvation:
   * M. Stahn, S. Ehlert, S. Grimme, J. Phys. Chem. A,
     2023, XX, XXXX-XXXX. DOI: 10.1021/acs.jpca.3c04382
   
   for DFT-D4:
   * E. Caldeweyher, C. Bannwarth and S. Grimme, J. Chem. Phys., 2017,
     147, 034112. DOI: 10.1063/1.4993215
   * E. Caldeweyher, S. Ehlert, A. Hansen, H. Neugebauer, S. Spicher,
     C. Bannwarth and S. Grimme, J. Chem. Phys., 2019, 150, 154122.
     DOI: 10.1063/1.5090222
   * E. Caldeweyher, J.-M. Mewes, S. Ehlert and S. Grimme, Phys. Chem. Chem. Phys.
     2020, 22, 8499-8512. DOI: 10.1039/D0CP00502A
   
   for sTDA-xTB:
   * S. Grimme and C. Bannwarth, J. Chem. Phys., 2016, 145, 054103.
     DOI: 10.1063/1.4959605
   
   in the mass-spec context:
   * V. Asgeirsson, C. Bauer and S. Grimme, Chem. Sci., 2017, 8, 4879.
     DOI: 10.1039/c7sc00601b
   * J. Koopman and S. Grimme, ACS Omega 2019, 4, 12, 15120-15133.
     DOI: 10.1021/acsomega.9b02011
   
   for metadynamics refer to:
   * S. Grimme, J. Chem. Theory Comput., 2019, 155, 2847-2862
     DOI: 10.1021/acs.jctc.9b00143
   
   for SPH calculations refer to:
   * S. Spicher and S. Grimme, J. Chem. Theory Comput., 2021, 17, 1701-1714
     DOI: 10.1021/acs.jctc.0c01306
   
   for ONIOM refer to:
   * C. Plett, A. Katbashev, S. Ehlert, S. Grimme, M. Bursch,
     Phys. Chem. Chem. Phys., 2023, 25, 17860-17868. DOI: 10.1039/D3CP02178E
   
   for DIPRO refer to:
   * J. Kohn, N. Gildemeister, S. Grimme, D. Fazzi, A. Hansen,
     J. Chem. Phys., 2023, just accepted.
   
   for PTB refer to:
   * S. Grimme, M. Mueller, A. Hansen, J. Chem. Phys., 2023, 158, 124111.
     DOI: 10.1063/5.0137838
   
   with help from (in alphabetical order)
   P. Atkinson, C. Bannwarth, F. Bohle, G. Brandenburg, E. Caldeweyher
   M. Checinski, S. Dohm, S. Ehlert, S. Ehrlich, I. Gerasimov, C. Hölzer
   A. Katbashev, J. Kohn, J. Koopman, C. Lavigne, S. Lehtola, F. März, M. Müller,
   F. Musil, H. Neugebauer, J. Pisarek, C. Plett, P. Pracht, F. Pultar,
   J. Seibert, P. Shushkov, S. Spicher, M. Stahn, M. Steiner, T. Strunk,
   J. Stückrath, T. Rose, and J. Unsleber
   
 * started run on 2025/04/11 at 16:31:39.540     
   ID    Z sym.   atoms
    1    6 C      1-4, 7, 8
    2    8 O      5, 6
    3    1 H      9-20

           -------------------------------------------------
          |                Calculation Setup                |
           -------------------------------------------------

          program call               : /srv/scratch/z5358697/.xtb/bin/xtb xtb_opt.coord --opt normal --orca -I xtb_opt-xcontrol-inp
          hostname                   : k061
          coordinate file            : xtb_opt.coord
          omp threads                :                    16

           -------------------------------------------------
          |                   Orca driver                   |
           -------------------------------------------------
orca executable           : /apps/z_install_tree/linux-rocky8-ivybridge/gcc-12.2.0/orca-6.0.0-srtngmq3qlimg2qxbl6avaaiffipurdx/bin/orca
orca input file           : xtb_opt.inp
orca input line           : 
orca parallel             : true
orca number of threads    : 16
                         * ORCA takes the control...
  ------------------------------------------------------------------------

                                 *****************
                                 * O   R   C   A *
                                 *****************

                                            #,                                       
                                            ###                                      
                                            ####                                     
                                            #####                                    
                                            ######                                   
                                           ########,                                 
                                     ,,################,,,,,                         
                               ,,#################################,,                 
                          ,,##########################################,,             
                       ,#########################################, ''#####,          
                    ,#############################################,,   '####,        
                  ,##################################################,,,,####,       
                ,###########''''           ''''###############################       
              ,#####''   ,,,,##########,,,,          '''####'''          '####       
            ,##' ,,,,###########################,,,                        '##       
           ' ,,###''''                  '''############,,,                           
         ,,##''                                '''############,,,,        ,,,,,,###''
      ,#''                                            '''#######################'''  
     '                                                          ''''####''''         
             ,#######,   #######,   ,#######,      ##                                
            ,#'     '#,  ##    ##  ,#'     '#,    #''#        ,####,   ,####,        
            ##       ##  ##   ,#'  ##            #'  '#       #'       #'  '#        
            ##       ##  #######   ##           ,######,      #####,   #    #        
            '#,     ,#'  ##    ##  '#,     ,#' ,#      #,     #,   #   #,  ,#        
             '#######'   ##     ##  '#######'  #'      '#     '####' # '####'        



                #########################################################
                #                        -***-                          #
                #          Department of theory and spectroscopy        #
                #                                                       #
                #                      Frank Neese                      #
                #                                                       #
                #     Directorship, Architecture, Infrastructure        #
                #                    SHARK, DRIVERS                     #
                #        Core code/Algorithms in most modules           #
                #                                                       #
                #        Max Planck Institute fuer Kohlenforschung      #
                #                Kaiser Wilhelm Platz 1                 #
                #                 D-45470 Muelheim/Ruhr                 #
                #                      Germany                          #
                #                                                       #
                #                  All rights reserved                  #
                #                        -***-                          #
                #########################################################


                         Program Version 6.0.0  -   RELEASE  -


 With contributions from (in alphabetic order):
   Daniel Aravena         : Magnetic Suceptibility
   Michael Atanasov       : Ab Initio Ligand Field Theory (pilot matlab implementation)
   Alexander A. Auer      : GIAO ZORA, VPT2 properties, NMR spectrum
   Ute Becker             : All parallelization in ORCA, NUMFREQ, NUMCALC
   Giovanni Bistoni       : ED, misc. LED, open-shell LED, HFLD
   Martin Brehm           : Molecular dynamics
   Dmytro Bykov           : pre 5.0 version of the SCF Hessian
   Marcos Casanova-Páez   : Triplet and SCS-CIS(D). UHF-(DLPNO)-IP/EA/STEOM-CCSD. UHF-CVS-IP/STEOM-CCSD
   Vijay G. Chilkuri      : MRCI spin determinant printing, contributions to CSF-ICE
   Pauline Colinet        : FMM embedding
   Dipayan Datta          : RHF DLPNO-CCSD density
   Achintya Kumar Dutta   : EOM-CC, STEOM-CC
   Nicolas Foglia         : Exact transition moments, OPA infrastructure, MCD improvements
   Dmitry Ganyushin       : Spin-Orbit,Spin-Spin,Magnetic field MRCI
   Miquel Garcia          : C-PCM and meta-GGA Hessian, CCSD/C-PCM, Gaussian charge scheme
   Tiago L. C. Gouveia    : GS-ROHF, GS-ROCIS
   Yang Guo               : DLPNO-NEVPT2, F12-NEVPT2, CIM, IAO-localization
   Andreas Hansen         : Spin unrestricted coupled pair/coupled cluster methods
   Ingolf Harden          : AUTO-CI MPn and infrastructure 
   Benjamin Helmich-Paris : MC-RPA, TRAH-(SCF,CASSCF), AVAS, COSX integrals, SCF dyn. polar.
   Lee Huntington         : MR-EOM, pCC
   Robert Izsak           : Overlap fitted RIJCOSX, COSX-SCS-MP3, EOM
   Riya Kayal             : Wick's Theorem for AUTO-CI, AUTO-CI UHF-CCSDT
   Emily Kempfer          : AUTO-CI, RHF CISDT and CCSDT
   Christian Kollmar      : KDIIS, OOCD, Brueckner-CCSD(T), CCSD density, CASPT2, CASPT2-K, improved NEVPT2
   Axel Koslowski         : Symmetry handling
   Simone Kossmann        : Meta GGA functionals, TD-DFT gradient, OOMP2, (MP2 Hessian; deprecated post 5.0)
   Lucas Lang             : DCDCAS
   Marvin Lechner         : AUTO-CI (C++ implementation), FIC-MRCC
   Spencer Leger          : CASSCF response
   Dagmar Lenk            : GEPOL surface, SMD, ORCA-2-JSON
   Dimitrios Liakos       : Extrapolation schemes; Compound Job, initial MDCI parallelization
   Dimitrios Manganas     : Further ROCIS development; embedding schemes. LFT, Crystal Embedding
   Dimitrios Pantazis     : SARC Basis sets
   Anastasios Papadopoulos: AUTO-CI, single reference methods and gradients
   Taras Petrenko         : pre 6.0 DFT Hessian and TD-DFT gradient, (ASA, deprecated), ECA, 1-Electron XAS/XES, NRVS
   Peter Pinski           : DLPNO-MP2, DLPNO-MP2 Gradient
   Christoph Reimann      : Effective Core Potentials
   Marius Retegan         : Local ZFS, SOC
   Christoph Riplinger    : Optimizer, TS searches, QM/MM, DLPNO-CCSD(T), (RO)-DLPNO pert. Triples
   Michael Roemelt        : Original ROCIS implementation
   Masaaki Saitow         : Open-shell DLPNO-CCSD energy and density
   Barbara Sandhoefer     : DKH picture change effects
   Kantharuban Sivalingam : CASSCF convergence/infrastructure, NEVPT2 and variants, FIC-MRCI
   Bernardo de Souza      : ESD, SOC TD-DFT
   Georgi Stoychev        : AutoAux, RI-MP2 NMR, DLPNO-MP2 response, X2C
   Van Anh Tran           : RI-MP2 g-tensors
   Willem Van den Heuvel  : Paramagnetic NMR
   Zikuan Wang            : NOTCH, Electric field optimization 
   Frank Wennmohs         : Technical directorship and infrastructure
   Hang Xu                : AUTO-CI-Response properties 


 We gratefully acknowledge several colleagues who have allowed us to
 interface, adapt or use parts of their codes:
   Stefan Grimme, W. Hujo, H. Kruse, P. Pracht,  : VdW corrections, initial TS optimization,
                  C. Bannwarth, S. Ehlert,         DFT functionals, gCP, sTDA/sTD-DF
                  L. Wittmann, M. Mueller
   Ed Valeev, F. Pavosevic, A. Kumar             : LibInt (2-el integral package), F12 methods
   Garnet Chan, S. Sharma, J. Yang, R. Olivares  : DMRG
   Ulf Ekstrom                                   : XCFun DFT Library
   Mihaly Kallay                                 : mrcc  (arbitrary order and MRCC methods)
   Frank Weinhold                                : gennbo (NPA and NBO analysis)
   Simon Mueller                                 : openCOSMO-RS
   Christopher J. Cramer and Donald G. Truhlar   : smd solvation model
   Lars Goerigk                                  : TD-DFT with DH, B97 family of functionals
   V. Asgeirsson, H. Jonsson                     : NEB implementation
   FAccTs GmbH                                   : IRC, NEB, NEB-TS, DLPNO-Multilevel, CI-OPT
                                                   MM, QMMM, 2- and 3-layer-ONIOM, Crystal-QMMM,
                                                   LR-CPCM, SF, NACMEs, symmetry and pop. for TD-DFT,
                                                   nearIR, NL-DFT gradient (VV10), updates on ESD,
                                                   ML-optimized integration grids, MBIS, APM,
                                                   GOAT, DOCKER, SOLVATOR, interface openCOSMO-RS
   S Lehtola, MJT Oliveira, MAL Marques          : LibXC Library
   Liviu Ungur et al                             : ANISO software


 Your calculation uses the libint2 library for the computation of 2-el integrals
 For citations please refer to: http://libint.valeyev.net

 Your ORCA version has been built with support for libXC version: 6.2.2
 For citations please refer to: https://libxc.gitlab.io

 This ORCA versions uses:
   CBLAS   interface :  Fast vector & matrix operations
   LAPACKE interface :  Fast linear algebra routines
   SCALAPACK package :  Parallel linear algebra routines
   Shared memory     :  Shared parallel matrices
   BLAS/LAPACK       :  OpenBLAS 0.3.27  USE64BITINT DYNAMIC_ARCH NO_AFFINITY SkylakeX SINGLE_THREADED
        Core in use  :  SkylakeX
   Copyright (c) 2011-2014, The OpenBLAS Project




***************************************
The coordinates will be read from file: xtb_opt.xyz
***************************************


Your calculation utilizes the geometrical counterpoise correction gCP
Please cite in your paper:
H.Kruse, S. Grimme J.Chem.Phys., 136, (2012), 154101 
   

Your calculation utilizes the atom-pairwise dispersion correction
based on EEQ partial charges (D4)


Your calculation utilizes the SMD solvation module
Please cite in your paper:
A.V. Marenich, C.J. Cramer, D.G. Truhlar J. Phys. Chem. B, 113, (2009), 6378 

================================================================================

----- Orbital basis set information -----
Your calculation utilizes the basis: def2-mTZVPP
   Stefan Grimme, Andreas Hansen, Sebastian Ehlert, and Jan-Michael Mewes 
   J. Chem. Phys. 154, 064103 (2021). DOI: 10.1063/5.0040021

----- AuxJ basis set information -----
Your calculation utilizes the auxiliary basis: def2/J
   F. Weigend, Phys. Chem. Chem. Phys. 8, 1057 (2006).

================================================================================
                                        WARNINGS
                       Please study these warnings very carefully!
================================================================================

Using LibXC functional ID 497 : Re-regularized SCAN exchange by Furness et al
[ 1]  J. W. Furness, A. D. Kaplan, J. Ning, J. P. Perdew, and J. Sun.,  J. Phys. Chem. Lett. 11, 8208-8215 (2020)
[ 2]  J. W. Furness, A. D. Kaplan, J. Ning, J. P. Perdew, and J. Sun.,  J. Phys. Chem. Lett. 11, 9248-9248 (2020)
Using LibXC functional ID 498 : Re-regularized SCAN correlation by Furness et al
[ 1]  J. W. Furness, A. D. Kaplan, J. Ning, J. P. Perdew, and J. Sun.,  J. Phys. Chem. Lett. 11, 8208-8215 (2020)
[ 2]  J. W. Furness, A. D. Kaplan, J. Ning, J. P. Perdew, and J. Sun.,  J. Phys. Chem. Lett. 11, 9248-9248 (2020)
Using LibXC functional ID 497 : Re-regularized SCAN exchange by Furness et al
[ 1]  J. W. Furness, A. D. Kaplan, J. Ning, J. P. Perdew, and J. Sun.,  J. Phys. Chem. Lett. 11, 8208-8215 (2020)
[ 2]  J. W. Furness, A. D. Kaplan, J. Ning, J. P. Perdew, and J. Sun.,  J. Phys. Chem. Lett. 11, 9248-9248 (2020)
Using LibXC functional ID 498 : Re-regularized SCAN correlation by Furness et al
[ 1]  J. W. Furness, A. D. Kaplan, J. Ning, J. P. Perdew, and J. Sun.,  J. Phys. Chem. Lett. 11, 8208-8215 (2020)
[ 2]  J. W. Furness, A. D. Kaplan, J. Ning, J. P. Perdew, and J. Sun.,  J. Phys. Chem. Lett. 11, 9248-9248 (2020)

================================================================================
                                       INPUT FILE
================================================================================
NAME = xtb_opt.inp
|  1> ! r2scan-3c def2/J RI DEFGRID2 scfconv7 ENGRAD tightSCF miniprint
|  2> %cpcm
|  3>     smd true
|  4>     smdsolvent "water"
|  5> end
|  6> * xyzfile 0 1 xtb_opt.xyz
|  7> 
|  8>                          ****END OF INPUT****
================================================================================

                     *******************************
                     * Energy+Gradient Calculation *
                     *******************************

---------------------------------
CARTESIAN COORDINATES (ANGSTROEM)
---------------------------------
  C     -3.510173   -0.709098    0.463081
  C     -2.151829   -0.031767    0.591152
  C     -1.234682   -0.402513   -0.583909
  C      0.091520    0.289108   -0.418785
  O      0.398496    1.336665   -0.949803
  O      0.877214   -0.366869    0.425301
  C      2.172304    0.178824    0.726529
  C      3.214945   -0.310013   -0.267199
  H     -4.002174   -0.405682   -0.457385
  H     -3.396648   -1.789935    0.454438
  H     -4.145393   -0.434463    1.300675
  H     -1.672885   -0.336467    1.523460
  H     -2.279463    1.052609    0.614295
  H     -1.683653   -0.078574   -1.522356
  H     -1.074857   -1.480027   -0.594611
  H      2.103972    1.270778    0.708407
  H      2.391556   -0.171393    1.735725
  H      4.191824    0.061562    0.024308
  H      3.233913   -1.396319   -0.285012
  H      2.980274    0.056939   -1.263949

----------------------------
CARTESIAN COORDINATES (A.U.)
----------------------------
  NO LB      ZA    FRAG     MASS         X           Y           Z
   0 C     6.0000    0    12.011   -6.633265   -1.340000    0.875096
   1 C     6.0000    0    12.011   -4.066367   -0.060031    1.117115
   2 C     6.0000    0    12.011   -2.333211   -0.760639   -1.103428
   3 C     6.0000    0    12.011    0.172947    0.546334   -0.791389
   4 O     8.0000    0    15.999    0.753049    2.525931   -1.794868
   5 O     8.0000    0    15.999    1.657694   -0.693282    0.803703
   6 C     6.0000    0    12.011    4.105060    0.337928    1.372941
   7 C     6.0000    0    12.011    6.075365   -0.585839   -0.504934
   8 H     1.0000    0     1.008   -7.563012   -0.766628   -0.864332
   9 H     1.0000    0     1.008   -6.418734   -3.382487    0.858764
  10 H     1.0000    0     1.008   -7.833658   -0.821016    2.457919
  11 H     1.0000    0     1.008   -3.161294   -0.635831    2.878923
  12 H     1.0000    0     1.008   -4.307561    1.989142    1.160849
  13 H     1.0000    0     1.008   -3.181644   -0.148483   -2.876835
  14 H     1.0000    0     1.008   -2.031186   -2.796845   -1.123653
  15 H     1.0000    0     1.008    3.975931    2.401423    1.338696
  16 H     1.0000    0     1.008    4.519385   -0.323886    3.280045
  17 H     1.0000    0     1.008    7.921399    0.116336    0.045935
  18 H     1.0000    0     1.008    6.111209   -2.638661   -0.538595
  19 H     1.0000    0     1.008    5.631901    0.107600   -2.388518

------------------------------------------------------------------------------
                   ___                                                        
                  /   \      - P O W E R E D   B Y -                         
                 /     \                                                     
                 |  |  |   _    _      __       _____    __    __             
                 |  |  |  | |  | |    /  \     |  _  \  |  |  /  |          
                  \  \/   | |  | |   /    \    | | | |  |  | /  /          
                 / \  \   | |__| |  /  /\  \   | |_| |  |  |/  /          
                |  |  |   |  __  | /  /__\  \  |    /   |      \           
                |  |  |   | |  | | |   __   |  |    \   |  |\   \          
                \     /   | |  | | |  |  |  |  | |\  \  |  | \   \       
                 \___/    |_|  |_| |__|  |__|  |_| \__\ |__|  \__/        
                                                                              
                      - O R C A' S   B I G   F R I E N D -                    
                                      &                                       
                       - I N T E G R A L  F E E D E R -                       
                                                                              
 v1 FN, 2020, v2 2021, v3 2022-2024                                           
------------------------------------------------------------------------------


----------------------
SHARK INTEGRAL PACKAGE
----------------------

Number of atoms                             ...     20
Number of basis functions                   ...    222
Number of shells                            ...    110
Maximum angular momentum                    ...      2
Integral batch strategy                     ... SHARK/LIBINT Hybrid
RI-J (if used) integral strategy            ... SPLIT-RIJ (Revised 2003 algorithm where possible)
Printlevel                                  ...      1
Contraction scheme used                     ... SEGMENTED contraction
Prescreening option                         ... SCHWARTZ
   Thresh                                   ... 3.000e-11
   Tcut                                     ... 1.000e-12
   Tpresel                                  ... 1.000e-12 
Coulomb Range Separation                    ... NOT USED
Exchange Range Separation                   ... NOT USED
Multipole approximations                    ... NOT USED
Finite Nucleus Model                        ... NOT USED
CABS basis                                  ... NOT available
Auxiliary Coulomb fitting basis             ... AVAILABLE
   # of basis functions in Aux-J            ...    524
   # of shells in Aux-J                     ...    180
   Maximum angular momentum in Aux-J        ...      4
Auxiliary J/K fitting basis                 ... NOT available
Auxiliary Correlation fitting basis         ... NOT available
Auxiliary 'external' fitting basis          ... NOT available

Checking pre-screening integrals            ... done (  0.0 sec) Dimension = 110
Check shell pair data                       ... done (  0.0 sec)
Shell pair information
Shell pair cut-off parameter TPreSel        ...   1.0e-12
Total number of shell pairs                 ...      6105
Shell pairs after pre-screening             ...      5274
Total number of primitive shell pairs       ...     21533
Primitive shell pairs kept                  ...     13229
          la=0 lb=0:   1765 shell pairs
          la=1 lb=0:   1990 shell pairs
          la=1 lb=1:    581 shell pairs
          la=2 lb=0:    567 shell pairs
          la=2 lb=1:    320 shell pairs
          la=2 lb=2:     51 shell pairs

Calculating one electron integrals          ... done (  0.0 sec)
Calculating RI/J V-Matrix + Cholesky decomp.... done (  0.1 sec)
Calculating Nuclear repulsion               ... done (  0.0 sec) ENN=    389.289109653682 Eh

Diagonalization of the overlap matrix:
Smallest eigenvalue                        ... 1.228e-04
Time for diagonalization                   ...    0.008 sec
Threshold for overlap eigenvalues          ... 1.000e-07
Number of eigenvalues below threshold      ... 0
Time for construction of square roots      ...    0.020 sec
Total time needed                          ...    0.038 sec

-------------------
DFT GRID GENERATION
-------------------

General Integration Accuracy     IntAcc      ... 4.388
Radial Grid Type                 RadialGrid  ... OptM3 with GC (2021)
Angular Grid (max. ang.)         AngularGrid ... 4 (Lebedev-302)
Angular grid pruning method      GridPruning ... 4 (adaptive)
Weight generation scheme         WeightScheme... mBecke (2022)
Basis function cutoff            BFCut       ... 1.0000e-11
Integration weight cutoff        WCut        ... 1.0000e-14
Partially contracted basis set               ... off
Rotationally invariant grid construction     ... off
Angular grids for H and He will be reduced by one unit
Diffuse basis detected: some atoms will have their outermost
                        angular grid increased by 1.

Total number of grid points                  ...    87431
Total number of batches                      ...     1374
Average number of points per batch           ...       63
Average number of grid points per atom       ...     4372
Initializing property integral containers    ... done (  0.0 sec)

SHARK setup successfully completed in   1.3 seconds

Maximum memory used throughout the entire STARTUP-calculation: 39.3 MB
Occupation numbers will be reassigned to an Aufbau configuration
             **** ENERGY FILE WAS UPDATED (xtb_opt.en.tmp) ****
Finished Guess after   0.4 sec
Maximum memory used throughout the entire GUESS-calculation: 15.0 MB
--------------------
CPCM SOLVATION MODEL
--------------------
CPCM parameters:
  Epsilon                                         ...      78.3550
  Refrac                                          ...       1.3328
  Rsolv                                           ...       1.3000
  Surface type                                    ... GAUSSIAN VDW
  Discretization scheme                           ... Constant charge density
    Threshold for H atoms                         ...       5.0000 (charges/Ang^2)
    Threshold for non-H atoms                     ...       5.0000 (charges/Ang^2)
  Epsilon function type                           ...         CPCM
Solvent:                                          ... WATER
SMD-CDS solvent descriptors:
  Soln                                            ...       1.3328
  Soln25                                          ...       1.3323
  Sola                                            ...       0.0000
  Solb                                            ...       0.0000
  Solg                                            ...       0.0000
  Solc                                            ...       0.0000
  Solh                                            ...       0.0000
Radii:
  Scheme                                          ... Element-dependent radii
  Radius for C  used is    3.4960 Bohr (=   1.8500 Ang.)
  Radius for O  used is    2.8724 Bohr (=   1.5200 Ang.)
  Radius for H  used is    2.2677 Bohr (=   1.2000 Ang.)
Calculating surface                               ...        done! (  0.0s)
Cavity surface points                             ...         1493
Cavity Volume                                     ...     878.8428
Cavity Surface-area                               ...     588.6202
Calculating surface distance matrix               ...        done! (  0.0s)
Performing Cholesky decomposition & store         ...        done! (  0.1s)
Overall time for CPCM initialization              ...                 0.1s

----------------------------------------D-I-I-S--------------------------------------------
Iteration    Energy (Eh)           Delta-E    RMSDP     MaxDP     DIISErr   Damp  Time(sec)
-------------------------------------------------------------------------------------------
               ***  Starting incremental Fock matrix formation  ***
                              *** Initializing SOSCF ***
---------------------------------------S-O-S-C-F--------------------------------------
Iteration    Energy (Eh)           Delta-E    RMSDP     MaxDP     MaxGrad    Time(sec)
--------------------------------------------------------------------------------------
    1    -386.2554225592854209     0.00e+00  6.82e-06  2.59e-04  4.67e-05     3.6
               *** Restarting incremental Fock matrix formation ***
    2    -386.2554224804123351     7.89e-08  1.05e-05  4.05e-04  1.27e-04     3.6
    3    -386.2554216382101231     8.42e-07  7.16e-06  2.67e-04  2.67e-04     2.7
    4    -386.2554228185044849    -1.18e-06  1.08e-06  3.61e-05  1.29e-05     2.8
                  *** Gradient check signals convergence ***

               *****************************************************
               *                     SUCCESS                       *
               *           SCF CONVERGED AFTER   4 CYCLES          *
               *****************************************************


SMD CDS free energy correction energy :                 5.05783     Kcal/mol
Total Energy after SMD CDS correction =              -386.247362655 Eh
             **** ENERGY FILE WAS UPDATED (xtb_opt.en.tmp) ****

----------------
TOTAL SCF ENERGY
----------------

Total Energy       :       -386.24736265544027 Eh          -10510.32507 eV

Components:
Nuclear Repulsion  :        389.28910965368152 Eh           10593.09522 eV
Electronic Energy  :       -775.52873312285476 Eh          -21103.20969 eV
One Electron Energy:      -1295.88858345101312 Eh          -35262.92109 eV
Two Electron Energy:        520.35985032815836 Eh           14159.71139 eV
CPCM Dielectric    :         -0.01579934933120 Eh              -0.42992 eV
SMD CDS (Gcds)     :          0.00806016306420 Eh               0.21933 eV

Virial components:
Potential Energy   :       -770.88980133942346 Eh          -20976.97794 eV
Kinetic Energy     :        384.64243868398324 Eh           10466.65287 eV
Virial Ratio       :          2.00417250882910

DFT components:
N(Alpha)           :       32.000053616807 electrons
N(Beta)            :       32.000053616807 electrons
N(Total)           :       64.000107233614 electrons
E(X)               :      -52.086169839770 Eh       
E(C)               :       -2.037020701079 Eh       
E(XC)              :      -54.123190540849 Eh       

CPCM Solvation Model Properties:
Surface-charge          :         -0.04798545495158
Corrected charge        :         -0.00000000000000
Outlying charge corr.   :          0.00017184488298 Eh               0.00468 eV
Free-energy (cav+disp)  :          0.00806016306420 Eh               0.21933 eV

---------------
SCF CONVERGENCE
---------------

  Last Energy change         ...    1.1803e-06  Tolerance :   1.0000e-07
  Last MAX-Density change    ...    3.6052e-05  Tolerance :   1.0000e-07
  Last RMS-Density change    ...    1.0806e-06  Tolerance :   5.0000e-09
  Last DIIS Error            ...    3.7103e-04  Tolerance :   1.0000e-07
  Last Orbital Gradient      ...    1.2901e-05  Tolerance :   1.0000e-04
  Last Orbital Rotation      ...    4.8511e-05  Tolerance :   1.0000e-04


----------------
ORBITAL ENERGIES
----------------

  NO   OCC          E(Eh)            E(eV) 
   0   2.0000     -19.001356      -517.0532 
   1   2.0000     -18.942714      -515.4575 
   2   2.0000     -10.161790      -276.5164 
   3   2.0000     -10.083263      -274.3795 
   4   2.0000     -10.034671      -273.0573 
   5   2.0000     -10.030321      -272.9389 
   6   2.0000     -10.018177      -272.6085 
   7   2.0000     -10.011881      -272.4371 
   8   2.0000      -1.078271       -29.3412 
   9   2.0000      -0.988243       -26.8914 
  10   2.0000      -0.770065       -20.9545 
  11   2.0000      -0.732166       -19.9233 
  12   2.0000      -0.674136       -18.3442 
  13   2.0000      -0.616106       -16.7651 
  14   2.0000      -0.560250       -15.2452 
  15   2.0000      -0.522073       -14.2063 
  16   2.0000      -0.472338       -12.8530 
  17   2.0000      -0.461105       -12.5473 
  18   2.0000      -0.437859       -11.9147 
  19   2.0000      -0.423603       -11.5268 
  20   2.0000      -0.408994       -11.1293 
  21   2.0000      -0.383854       -10.4452 
  22   2.0000      -0.370982       -10.0949 
  23   2.0000      -0.355590        -9.6761 
  24   2.0000      -0.348649        -9.4872 
  25   2.0000      -0.338554        -9.2125 
  26   2.0000      -0.323176        -8.7941 
  27   2.0000      -0.308607        -8.3976 
  28   2.0000      -0.301212        -8.1964 
  29   2.0000      -0.301003        -8.1907 
  30   2.0000      -0.276351        -7.5199 
  31   2.0000      -0.248574        -6.7640 
  32   0.0000      -0.022616        -0.6154 
  33   0.0000       0.079061         2.1513 
  34   0.0000       0.097903         2.6641 
  35   0.0000       0.115951         3.1552 
  36   0.0000       0.129349         3.5198 
  37   0.0000       0.136631         3.7179 
  38   0.0000       0.138776         3.7763 
  39   0.0000       0.149622         4.0714 
  40   0.0000       0.152408         4.1472 
  41   0.0000       0.167105         4.5472 
  42   0.0000       0.175997         4.7891 
*Only the first 10 virtual orbitals were printed.
Total SCF time: 0 days 0 hours 0 min 13 sec 
Finished LeanSCF after  13.4 sec

Maximum memory used throughout the entire LEANSCF-calculation: 30.3 MB


-------------------------------------------------------------------------------
                          DFT DISPERSION CORRECTION                            
                                                                               
                                DFTD4 V3.4.0                                   
-------------------------------------------------------------------------------
-------------------------   ----------------
Dispersion correction           -0.004963110
-------------------------   ----------------

------------------   -----------------
gCP correction             0.011656972
------------------   -----------------

-------------------------   --------------------
FINAL SINGLE POINT ENERGY      -386.240668793082
-------------------------   --------------------

------------------------------------------------------------------------------
                         ORCA SCF GRADIENT CALCULATION
------------------------------------------------------------------------------

Nuc. rep. gradient        (SHARK) ... done (  0.0 sec)
HCore & Overlap gradient  (SHARK) ... done (  0.4 sec)
Split-RIJ-J gradient      (SHARK) ... done (  1.8 sec)
XC gradient                       ... done (  7.2 sec)
CPCM gradient                     ... done (  1.0 sec)
SMD gradient                      ... done (  0.0 sec)
Dispersion correction             ... done (  0.0 sec)

-------------------
DISPERSION GRADIENT
-------------------

   1   C   :   -0.000073656   -0.000019689    0.000014298
   2   C   :   -0.000063040    0.000000509    0.000019564
   3   C   :   -0.000050720   -0.000015645   -0.000032155
   4   C   :    0.000010707    0.000023306   -0.000021207
   5   O   :    0.000008997    0.000067079   -0.000047915
   6   O   :    0.000041697   -0.000006260    0.000016274
   7   C   :    0.000071893    0.000011727    0.000025623
   8   C   :    0.000079581   -0.000012293   -0.000004172
   9   H   :   -0.000029729   -0.000004475    0.000001337
  10   H   :   -0.000027787   -0.000014244    0.000007150
  11   H   :   -0.000026441   -0.000003296    0.000012210
  12   H   :   -0.000028408   -0.000005297    0.000019032
  13   H   :   -0.000027593    0.000011130    0.000007471
  14   H   :   -0.000012458    0.000002546   -0.000023756
  15   H   :   -0.000015017   -0.000021209   -0.000012618
  16   H   :    0.000023092    0.000009727    0.000007713
  17   H   :    0.000027032   -0.000003336    0.000021496
  18   H   :    0.000028430   -0.000003299   -0.000000236
  19   H   :    0.000032232   -0.000014869   -0.000001315
  20   H   :    0.000031189   -0.000002112   -0.000008796

Difference to translation invariance:
           :    0.0000000000   -0.0000000000   -0.0000000000

Difference to rotation invariance:
           :   -0.0000000000   -0.0000000000    0.0000000000

Norm of the Dispersion gradient    ...    0.0002196205
RMS gradient                       ...    0.0000283529
MAX gradient                       ...    0.0000795805
gCP correction                   ... done

------------------
CARTESIAN GRADIENT
------------------

   1   C   :   -0.005361498   -0.003492174   -0.001255005
   2   C   :    0.002075621    0.002576555    0.002244241
   3   C   :   -0.003842493   -0.004259811   -0.003688764
   4   C   :    0.012269187    0.004984507    0.006289131
   5   O   :   -0.002959742   -0.012345384    0.006614436
   6   O   :    0.000716991    0.014565565   -0.008039832
   7   C   :   -0.012436449   -0.006735287    0.001754589
   8   C   :    0.010460559   -0.001627174   -0.003600783
   9   H   :    0.003211417   -0.000837979    0.004221243
  10   H   :    0.000540351    0.005413655    0.000140610
  11   H   :    0.004127900   -0.000414962   -0.003400928
  12   H   :   -0.000941958   -0.000448159   -0.002635407
  13   H   :   -0.000367785   -0.002597983   -0.001047550
  14   H   :    0.000102154    0.000130280    0.002248493
  15   H   :    0.000676092    0.003235723    0.001360717
  16   H   :   -0.000900559    0.000577802   -0.003083051
  17   H   :   -0.000261859   -0.000803792   -0.001032668
  18   H   :   -0.005128109   -0.001604151   -0.001462264
  19   H   :   -0.001581306    0.004693540    0.000233155
  20   H   :   -0.000398510   -0.001010774    0.004139635

Difference to translation invariance:
           :   -0.0000000000   -0.0000000000    0.0000000000

Difference to rotation invariance:
           :   -0.0001072439   -0.0000089018    0.0000916989

Norm of the Cartesian gradient     ...    0.0365755605
RMS gradient                       ...    0.0047218846
MAX gradient                       ...    0.0145655655

-------
TIMINGS
-------

Total SCF gradient time     ....       11.555 sec

Densities                   ....       0.001 sec  (  0.0%)
One electron gradient       ....       0.352 sec  (  3.0%)
RI-J Coulomb gradient       ....       1.839 sec  ( 15.9%)
XC gradient                 ....       7.218 sec  ( 62.5%)
CPCM gradient               ....       1.039 sec  (  9.0%)
   A-Matrix (El+Nuc)        ....       0.081 sec  (  0.7%)
   Potential                ....       0.958 sec  (  8.3%)
SMD gradient                ....       0.012 sec  (  0.1%)

Maximum memory used throughout the entire SCFGRAD-calculation: 35.2 MB

------------------------------------------------------------------------------
                              ORCA PROPERTY CALCULATIONS
------------------------------------------------------------------------------

GBWName                                 ... xtb_opt.gbw
Number of atoms                         ...     20
Number of basis functions               ...    222
Max core memory                         ...   1024 MB

Electric properties:
Dipole moment                           ... YES
Quadrupole moment                       ...  NO
Static polarizability (Dipole/Dipole)   ...  NO
Static polarizability (Dipole/Quad.)    ...  NO
Static polarizability (Quad./Quad.)     ...  NO
Static polarizability (Velocity)        ...  NO

Atomic electric properties:
Dipole moment                           ...  NO
Quadrupole moment                       ...  NO
Static polarizability                   ...  NO

Choice of electric origin               ... Center of mass
Position of electric origin             ...    -0.000014    -0.000012     0.000007

General magnetic properties:
Magnetizability                         ...  NO

EPR properties:
g-Tensor (aka g-matrix)                 ...  NO
Zero-Field splitting spin-orbit         ...  NO
Zero-field splitting spin-spin          ...  NO
Hyperfine couplings                     ...  NO (   0 nuclei)
Quadrupole couplings                    ...  NO (   0 nuclei)
Contact density                         ...  NO (   0 nuclei)

NMR properties:
Chemical shifts                         ...  NO (   0 nuclei)
Spin-rotation constants                 ...  NO (   0 nuclei)
Spin-spin couplings                     ...  NO (   0 nuclei,    0 pairs)

Choice of magnetic origin               ... GIAO
Position of magnetic origin             ...     0.000000     0.000000     0.000000

Properties with geometric perturbations:
SCF Hessian                             ...  NO
IR spectrum                             ...  NO
VCD spectrum                            ...  NO
X-ray spectroscopy properties:
SCF XES/XAS/RIXS spectra                ...  NO


-------------
DIPOLE MOMENT
-------------

Method             : SCF
Type of density    : Electron Density
Multiplicity       :   1
Irrep              :   0
Energy             :  -386.2473626554402699 Eh
Relativity type    : 
Basis              : AO
                                X                 Y                 Z
Electronic contribution:      3.195428275       2.483597020      -1.367151447
Nuclear contribution   :     -3.127258881      -3.410839221       2.091835101
                        -----------------------------------------
Total Dipole Moment    :      0.068169394      -0.927242202       0.724683654
                        -----------------------------------------
Magnitude (a.u.)       :      1.178809384
Magnitude (Debye)      :      2.996295335



--------------------
Rotational spectrum 
--------------------
 
Rotational constants in cm-1:             0.173018             0.030337             0.028289 
Rotational constants in MHz :          5186.956264           909.468212           848.082764 

Dipole components along the rotational axes: 
x,y,z [a.u.] :    -0.050997    -1.167596    -0.153981 
x,y,z [Debye]:    -0.129625    -2.967793    -0.391390 

 

Dipole moment calculation done in   0.0 sec 

Maximum memory used throughout the entire PROP-calculation: 13.8 MB

--------------------------------
SUGGESTED CITATIONS FOR THIS RUN
--------------------------------

Below you find a list of papers that are relevant to this ORCA run
We neither can nor want to force you to cite these papers, but we appreciate if you do
You receive ORCA, which is the product of decades of hard work by many enthusiastic individuals, for free
The only thing we kindly ask in return is that you cite our papers,
We deeply appreciate it, if you show your appreciation for ORCA by not just citing the generic ORCA reference.

Please note that relegating all ORCA citations to the supporting information does *not* help us.
SI sections are not indexed - citations you put there will not count into any citation statistics
But we need these citations in order to attract the funding resources that allow us to do what we are doing

Therefore, if you are a happy ORCA user, please consider citing a few of the papers listed below in the main body of your paper

In addition to the list printed below, the program has created the file xtb_opt.bibtex that contains the list in bibtex format
You can import this file easily into all common literature databanks and citation aid programs


List of essential papers. We consider these as the minimum necessary citations

  1. Neese,F.
     Software update: the ORCA program system, version 5.0
     WIRES Comput. Molec. Sci., 2022 12(1)e1606
     doi.org/10.1002/wcms.1606
  2. Grimme,S.; Hansen,A.; Ehlert,S.; Mewes,J.
     r2SCAN-3c: A 'Swiss army knife' composite electronic-structure method
     J. Chem. Phys., 2021 154 064103
     doi.org/10.1063/5.0040021

List of papers to cite with high priority. The work reported in these papers was absolutely
necessary for this run to complete.
Our perspective: the developers of density functionals and basis sets usually get cited in chemistry papers
Good! But without the algorithms to do something with them, the functionals or basis sets would not do anything.
Hence, in our opinion, the algorithm design and method developments papers are equally worthy of getting cited

  1. Neese,F.
     An improvement of the resolution of the identity approximation for the formation of the Coulomb matrix
     J. Comp. Chem., 2003 24(14)1740-1747
     doi.org/10.1002/jcc.10318
  2. Garcia-Rates,M.; Neese,F.
     Effect of the Solute Cavity on the Solvation Energy and its Derivatives within the Framework of the Gaussian Charge Scheme
     J. Comput. Chem., 2020 41 922-939
     doi.org/10.1002/jcc.26139
  3. Neese,F.
     The SHARK Integral Generation and Digestion System
     J. Comp. Chem., 2022  1-16
     doi.org/10.1002/jcc.26942
  4. Lehtola,S.; Steigemann,C.; Oliveira,M.; Marques,M.
     Recent developments in Libxc - A comprehensive library of functionals for density functional theory
     Software X, 2018 7 
     doi.org/10.1016/j.softx.2017.11.002
  5. Caldeweyher,E.; Bannwarth,C.; Grimme,S.
     Extension of the D3 dispersion coefficient model
     J. Chem. Phys., 2017 147 034112-XXXX
     doi.org/10.1063/1.4993215
  6. Caldeweyher,E.; Ehlert,S.; Hansen,A.; Neugebauer,H.; Spicher,S.; Bannwarth,C.; Grimme,S.
     A generally applicable atomic-charge dependent London dispersion correction
     J. Chem. Phys., 2019 150 154122-XXXX
     doi.org/10.1063/1.5090222
  7. Caldeweyher,E.; Mewes,J.; Ehlert,S.; Grimme,S.
     Extension and evaluation of the D4 London-dispersion model for periodic systems
     Phys. Chem. Chem. Phys., 2020 22(16)8499-8512
     doi.org/10.1039/D0CP00502A

List of suggested additional citations. These are papers that are important in the 'surrounding' of 
of this run, or papers that preceded the highly important papers. If you like your results we are grateful for a citation.

  1. Neese,F.
     The ORCA program system
     WIRES Comput. Molec. Sci., 2012 2(1)73-78
     doi.org/10.1002/wcms.81
  2. Neese,F.
     Software update: the ORCA program system, version 4.0
     WIRES Comput. Molec. Sci., 2018 8(1)1-6
     doi.org/10.1002/wcms.1327
  3. Neese,F.; Wennmohs,F.; Becker,U.; Riplinger,C.
     The ORCA quantum chemistry program package
     J. Chem. Phys., 2020 152 Art. No. L224108
     doi.org/10.1063/5.0004608

List of optional additional citations

  1. Neese,F.
     Approximate second-order SCF convergence for spin unrestricted wavefunctions
     Chem. Phys. Lett., 2000 325(1-3)93-98
     doi.org/10.1016/s0009-2614(00)00662-x

Timings for individual modules:

Sum of individual times          ...       27.109 sec (=   0.452 min)
Startup calculation              ...        1.388 sec (=   0.023 min)   5.1 %
SCF iterations                   ...       13.858 sec (=   0.231 min)  51.1 %
Property calculations            ...        0.199 sec (=   0.003 min)   0.7 %
SCF Gradient evaluation          ...       11.664 sec (=   0.194 min)  43.0 %
                             ****ORCA TERMINATED NORMALLY****
TOTAL RUN TIME: 0 days 0 hours 0 minutes 28 seconds 21 msec
  ------------------------------------------------------------------------
          * successful ORCA run, taking over control again...

         :::::::::::::::::::::::::::::::::::::::::::::::::::::
         ::                  ORCA SUMMARY                   ::
         :::::::::::::::::::::::::::::::::::::::::::::::::::::
         :: total energy            -386.240668793082 Eh    ::
         :: gradient norm              0.036575560531 Eh/a0 ::
         :: HOMO-LUMO gap              0.000000000000 eV    ::
         :::::::::::::::::::::::::::::::::::::::::::::::::::::

      ----------------------------------------------------------- 
     |                       L-ANC optimizer                     |
      ----------------------------------------------------------- 
          low memory version by Sebastian Ehlert

          ...................................................
          :                      SETUP                      :
          :.................................................:
          :   energy convergence        0.5000000E-05 Eh    :
          :   grad. convergence         0.1000000E-02 Eh/a0 :
          :   optimization log               true           :
          :   writing optlog all                1     steps :
          :   Hessian reset                     8     steps :
          :   maximium step len.        1.0000000     a0    :
          :   LBFGS images                      8           :
          ...................................................
 * calculating model hessian...
Using Lindh-Hessian (1995)
 Shifting diagonal of input Hessian by   1.000000000000000E-002
 Lowest  eigenvalues of input Hessian
    0.000000    0.000000    0.000000    0.000000    0.000000    0.000000
    0.011489    0.012056    0.013175    0.016682    0.019238    0.020293
    0.021628    0.028336    0.033935    0.046220    0.052098    0.054360
 Highest eigenvalues
    1.218436    1.234509    1.247094    1.307771    1.811288    2.339478
 

........................................................................
.............................. CYCLE    1 ..............................
........................................................................
                         * ORCA takes the control...
  ------------------------------------------------------------------------

                                 *****************
                                 * O   R   C   A *
                                 *****************

                                            #,                                       
                                            ###                                      
                                            ####                                     
                                            #####                                    
                                            ######                                   
                                           ########,                                 
                                     ,,################,,,,,                         
                               ,,#################################,,                 
                          ,,##########################################,,             
                       ,#########################################, ''#####,          
                    ,#############################################,,   '####,        
                  ,##################################################,,,,####,       
                ,###########''''           ''''###############################       
              ,#####''   ,,,,##########,,,,          '''####'''          '####       
            ,##' ,,,,###########################,,,                        '##       
           ' ,,###''''                  '''############,,,                           
         ,,##''                                '''############,,,,        ,,,,,,###''
      ,#''                                            '''#######################'''  
     '                                                          ''''####''''         
             ,#######,   #######,   ,#######,      ##                                
            ,#'     '#,  ##    ##  ,#'     '#,    #''#        ,####,   ,####,        
            ##       ##  ##   ,#'  ##            #'  '#       #'       #'  '#        
            ##       ##  #######   ##           ,######,      #####,   #    #        
            '#,     ,#'  ##    ##  '#,     ,#' ,#      #,     #,   #   #,  ,#        
             '#######'   ##     ##  '#######'  #'      '#     '####' # '####'        



                #########################################################
                #                        -***-                          #
                #          Department of theory and spectroscopy        #
                #                                                       #
                #                      Frank Neese                      #
                #                                                       #
                #     Directorship, Architecture, Infrastructure        #
                #                    SHARK, DRIVERS                     #
                #        Core code/Algorithms in most modules           #
                #                                                       #
                #        Max Planck Institute fuer Kohlenforschung      #
                #                Kaiser Wilhelm Platz 1                 #
                #                 D-45470 Muelheim/Ruhr                 #
                #                      Germany                          #
                #                                                       #
                #                  All rights reserved                  #
                #                        -***-                          #
                #########################################################


                         Program Version 6.0.0  -   RELEASE  -


 With contributions from (in alphabetic order):
   Daniel Aravena         : Magnetic Suceptibility
   Michael Atanasov       : Ab Initio Ligand Field Theory (pilot matlab implementation)
   Alexander A. Auer      : GIAO ZORA, VPT2 properties, NMR spectrum
   Ute Becker             : All parallelization in ORCA, NUMFREQ, NUMCALC
   Giovanni Bistoni       : ED, misc. LED, open-shell LED, HFLD
   Martin Brehm           : Molecular dynamics
   Dmytro Bykov           : pre 5.0 version of the SCF Hessian
   Marcos Casanova-Páez   : Triplet and SCS-CIS(D). UHF-(DLPNO)-IP/EA/STEOM-CCSD. UHF-CVS-IP/STEOM-CCSD
   Vijay G. Chilkuri      : MRCI spin determinant printing, contributions to CSF-ICE
   Pauline Colinet        : FMM embedding
   Dipayan Datta          : RHF DLPNO-CCSD density
   Achintya Kumar Dutta   : EOM-CC, STEOM-CC
   Nicolas Foglia         : Exact transition moments, OPA infrastructure, MCD improvements
   Dmitry Ganyushin       : Spin-Orbit,Spin-Spin,Magnetic field MRCI
   Miquel Garcia          : C-PCM and meta-GGA Hessian, CCSD/C-PCM, Gaussian charge scheme
   Tiago L. C. Gouveia    : GS-ROHF, GS-ROCIS
   Yang Guo               : DLPNO-NEVPT2, F12-NEVPT2, CIM, IAO-localization
   Andreas Hansen         : Spin unrestricted coupled pair/coupled cluster methods
   Ingolf Harden          : AUTO-CI MPn and infrastructure 
   Benjamin Helmich-Paris : MC-RPA, TRAH-(SCF,CASSCF), AVAS, COSX integrals, SCF dyn. polar.
   Lee Huntington         : MR-EOM, pCC
   Robert Izsak           : Overlap fitted RIJCOSX, COSX-SCS-MP3, EOM
   Riya Kayal             : Wick's Theorem for AUTO-CI, AUTO-CI UHF-CCSDT
   Emily Kempfer          : AUTO-CI, RHF CISDT and CCSDT
   Christian Kollmar      : KDIIS, OOCD, Brueckner-CCSD(T), CCSD density, CASPT2, CASPT2-K, improved NEVPT2
   Axel Koslowski         : Symmetry handling
   Simone Kossmann        : Meta GGA functionals, TD-DFT gradient, OOMP2, (MP2 Hessian; deprecated post 5.0)
   Lucas Lang             : DCDCAS
   Marvin Lechner         : AUTO-CI (C++ implementation), FIC-MRCC
   Spencer Leger          : CASSCF response
   Dagmar Lenk            : GEPOL surface, SMD, ORCA-2-JSON
   Dimitrios Liakos       : Extrapolation schemes; Compound Job, initial MDCI parallelization
   Dimitrios Manganas     : Further ROCIS development; embedding schemes. LFT, Crystal Embedding
   Dimitrios Pantazis     : SARC Basis sets
   Anastasios Papadopoulos: AUTO-CI, single reference methods and gradients
   Taras Petrenko         : pre 6.0 DFT Hessian and TD-DFT gradient, (ASA, deprecated), ECA, 1-Electron XAS/XES, NRVS
   Peter Pinski           : DLPNO-MP2, DLPNO-MP2 Gradient
   Christoph Reimann      : Effective Core Potentials
   Marius Retegan         : Local ZFS, SOC
   Christoph Riplinger    : Optimizer, TS searches, QM/MM, DLPNO-CCSD(T), (RO)-DLPNO pert. Triples
   Michael Roemelt        : Original ROCIS implementation
   Masaaki Saitow         : Open-shell DLPNO-CCSD energy and density
   Barbara Sandhoefer     : DKH picture change effects
   Kantharuban Sivalingam : CASSCF convergence/infrastructure, NEVPT2 and variants, FIC-MRCI
   Bernardo de Souza      : ESD, SOC TD-DFT
   Georgi Stoychev        : AutoAux, RI-MP2 NMR, DLPNO-MP2 response, X2C
   Van Anh Tran           : RI-MP2 g-tensors
   Willem Van den Heuvel  : Paramagnetic NMR
   Zikuan Wang            : NOTCH, Electric field optimization 
   Frank Wennmohs         : Technical directorship and infrastructure
   Hang Xu                : AUTO-CI-Response properties 


 We gratefully acknowledge several colleagues who have allowed us to
 interface, adapt or use parts of their codes:
   Stefan Grimme, W. Hujo, H. Kruse, P. Pracht,  : VdW corrections, initial TS optimization,
                  C. Bannwarth, S. Ehlert,         DFT functionals, gCP, sTDA/sTD-DF
                  L. Wittmann, M. Mueller
   Ed Valeev, F. Pavosevic, A. Kumar             : LibInt (2-el integral package), F12 methods
   Garnet Chan, S. Sharma, J. Yang, R. Olivares  : DMRG
   Ulf Ekstrom                                   : XCFun DFT Library
   Mihaly Kallay                                 : mrcc  (arbitrary order and MRCC methods)
   Frank Weinhold                                : gennbo (NPA and NBO analysis)
   Simon Mueller                                 : openCOSMO-RS
   Christopher J. Cramer and Donald G. Truhlar   : smd solvation model
   Lars Goerigk                                  : TD-DFT with DH, B97 family of functionals
   V. Asgeirsson, H. Jonsson                     : NEB implementation
   FAccTs GmbH                                   : IRC, NEB, NEB-TS, DLPNO-Multilevel, CI-OPT
                                                   MM, QMMM, 2- and 3-layer-ONIOM, Crystal-QMMM,
                                                   LR-CPCM, SF, NACMEs, symmetry and pop. for TD-DFT,
                                                   nearIR, NL-DFT gradient (VV10), updates on ESD,
                                                   ML-optimized integration grids, MBIS, APM,
                                                   GOAT, DOCKER, SOLVATOR, interface openCOSMO-RS
   S Lehtola, MJT Oliveira, MAL Marques          : LibXC Library
   Liviu Ungur et al                             : ANISO software


 Your calculation uses the libint2 library for the computation of 2-el integrals
 For citations please refer to: http://libint.valeyev.net

 Your ORCA version has been built with support for libXC version: 6.2.2
 For citations please refer to: https://libxc.gitlab.io

 This ORCA versions uses:
   CBLAS   interface :  Fast vector & matrix operations
   LAPACKE interface :  Fast linear algebra routines
   SCALAPACK package :  Parallel linear algebra routines
   Shared memory     :  Shared parallel matrices
   BLAS/LAPACK       :  OpenBLAS 0.3.27  USE64BITINT DYNAMIC_ARCH NO_AFFINITY SkylakeX SINGLE_THREADED
        Core in use  :  SkylakeX
   Copyright (c) 2011-2014, The OpenBLAS Project




***************************************
The coordinates will be read from file: xtb_opt.xyz
***************************************


Your calculation utilizes the geometrical counterpoise correction gCP
Please cite in your paper:
H.Kruse, S. Grimme J.Chem.Phys., 136, (2012), 154101 
   

Your calculation utilizes the atom-pairwise dispersion correction
based on EEQ partial charges (D4)


Your calculation utilizes the SMD solvation module
Please cite in your paper:
A.V. Marenich, C.J. Cramer, D.G. Truhlar J. Phys. Chem. B, 113, (2009), 6378 

================================================================================

----- Orbital basis set information -----
Your calculation utilizes the basis: def2-mTZVPP
   Stefan Grimme, Andreas Hansen, Sebastian Ehlert, and Jan-Michael Mewes 
   J. Chem. Phys. 154, 064103 (2021). DOI: 10.1063/5.0040021

----- AuxJ basis set information -----
Your calculation utilizes the auxiliary basis: def2/J
   F. Weigend, Phys. Chem. Chem. Phys. 8, 1057 (2006).

================================================================================
                                        WARNINGS
                       Please study these warnings very carefully!
================================================================================

WARNING: Old DensityContainer found on disk!
         Will remove this file - 
         If you want to keep old densities, please start your calculation with a different basename. 

Using LibXC functional ID 497 : Re-regularized SCAN exchange by Furness et al
[ 1]  J. W. Furness, A. D. Kaplan, J. Ning, J. P. Perdew, and J. Sun.,  J. Phys. Chem. Lett. 11, 8208-8215 (2020)
[ 2]  J. W. Furness, A. D. Kaplan, J. Ning, J. P. Perdew, and J. Sun.,  J. Phys. Chem. Lett. 11, 9248-9248 (2020)
Using LibXC functional ID 498 : Re-regularized SCAN correlation by Furness et al
[ 1]  J. W. Furness, A. D. Kaplan, J. Ning, J. P. Perdew, and J. Sun.,  J. Phys. Chem. Lett. 11, 8208-8215 (2020)
[ 2]  J. W. Furness, A. D. Kaplan, J. Ning, J. P. Perdew, and J. Sun.,  J. Phys. Chem. Lett. 11, 9248-9248 (2020)
Using LibXC functional ID 497 : Re-regularized SCAN exchange by Furness et al
[ 1]  J. W. Furness, A. D. Kaplan, J. Ning, J. P. Perdew, and J. Sun.,  J. Phys. Chem. Lett. 11, 8208-8215 (2020)
[ 2]  J. W. Furness, A. D. Kaplan, J. Ning, J. P. Perdew, and J. Sun.,  J. Phys. Chem. Lett. 11, 9248-9248 (2020)
Using LibXC functional ID 498 : Re-regularized SCAN correlation by Furness et al
[ 1]  J. W. Furness, A. D. Kaplan, J. Ning, J. P. Perdew, and J. Sun.,  J. Phys. Chem. Lett. 11, 8208-8215 (2020)
[ 2]  J. W. Furness, A. D. Kaplan, J. Ning, J. P. Perdew, and J. Sun.,  J. Phys. Chem. Lett. 11, 9248-9248 (2020)

================================================================================
                                       INPUT FILE
================================================================================
NAME = xtb_opt.inp
|  1> ! r2scan-3c def2/J RI DEFGRID2 scfconv7 ENGRAD tightSCF miniprint
|  2> %cpcm
|  3>     smd true
|  4>     smdsolvent "water"
|  5> end
|  6> * xyzfile 0 1 xtb_opt.xyz
|  7> 
|  8>                          ****END OF INPUT****
================================================================================

                     *******************************
                     * Energy+Gradient Calculation *
                     *******************************

---------------------------------
CARTESIAN COORDINATES (ANGSTROEM)
---------------------------------
  C     -3.517088   -0.707578    0.464815
  C     -2.155989   -0.032181    0.592642
  C     -1.234380   -0.401997   -0.582405
  C      0.094866    0.281396   -0.431759
  O      0.401746    1.336412   -0.965528
  O      0.883698   -0.375800    0.425842
  C      2.183473    0.185603    0.730809
  C      3.213033   -0.307150   -0.268716
  H     -4.014607   -0.405959   -0.460697
  H     -3.408697   -1.795436    0.454595
  H     -4.162860   -0.436788    1.303442
  H     -1.677378   -0.332760    1.529981
  H     -2.278363    1.055743    0.620831
  H     -1.681314   -0.078995   -1.524877
  H     -1.084573   -1.484619   -0.601420
  H      2.114859    1.276620    0.733325
  H      2.404934   -0.167148    1.739250
  H      4.197324    0.064873    0.022397
  H      3.241413   -1.399076   -0.285479
  H      2.984164    0.058208   -1.272685

----------------------------
CARTESIAN COORDINATES (A.U.)
----------------------------
  NO LB      ZA    FRAG     MASS         X           Y           Z
   0 C     6.0000    0    12.011   -6.646332   -1.337128    0.878374
   1 C     6.0000    0    12.011   -4.074229   -0.060814    1.119931
   2 C     6.0000    0    12.011   -2.332640   -0.759665   -1.100586
   3 C     6.0000    0    12.011    0.179271    0.531761   -0.815907
   4 O     8.0000    0    15.999    0.759190    2.525453   -1.824583
   5 O     8.0000    0    15.999    1.669948   -0.710160    0.804725
   6 C     6.0000    0    12.011    4.126166    0.350739    1.381030
   7 C     6.0000    0    12.011    6.071752   -0.580429   -0.507800
   8 H     1.0000    0     1.008   -7.586507   -0.767152   -0.870590
   9 H     1.0000    0     1.008   -6.441505   -3.392882    0.859060
  10 H     1.0000    0     1.008   -7.866666   -0.825410    2.463148
  11 H     1.0000    0     1.008   -3.169786   -0.628825    2.891244
  12 H     1.0000    0     1.008   -4.305483    1.995064    1.173200
  13 H     1.0000    0     1.008   -3.177223   -0.149279   -2.881601
  14 H     1.0000    0     1.008   -2.049546   -2.805524   -1.136520
  15 H     1.0000    0     1.008    3.996504    2.412463    1.385783
  16 H     1.0000    0     1.008    4.544668   -0.315865    3.286706
  17 H     1.0000    0     1.008    7.931793    0.122592    0.042324
  18 H     1.0000    0     1.008    6.125382   -2.643870   -0.539477
  19 H     1.0000    0     1.008    5.639253    0.109996   -2.405027

------------------------------------------------------------------------------
                   ___                                                        
                  /   \      - P O W E R E D   B Y -                         
                 /     \                                                     
                 |  |  |   _    _      __       _____    __    __             
                 |  |  |  | |  | |    /  \     |  _  \  |  |  /  |          
                  \  \/   | |  | |   /    \    | | | |  |  | /  /          
                 / \  \   | |__| |  /  /\  \   | |_| |  |  |/  /          
                |  |  |   |  __  | /  /__\  \  |    /   |      \           
                |  |  |   | |  | | |   __   |  |    \   |  |\   \          
                \     /   | |  | | |  |  |  |  | |\  \  |  | \   \       
                 \___/    |_|  |_| |__|  |__|  |_| \__\ |__|  \__/        
                                                                              
                      - O R C A' S   B I G   F R I E N D -                    
                                      &                                       
                       - I N T E G R A L  F E E D E R -                       
                                                                              
 v1 FN, 2020, v2 2021, v3 2022-2024                                           
------------------------------------------------------------------------------


----------------------
SHARK INTEGRAL PACKAGE
----------------------

Number of atoms                             ...     20
Number of basis functions                   ...    222
Number of shells                            ...    110
Maximum angular momentum                    ...      2
Integral batch strategy                     ... SHARK/LIBINT Hybrid
RI-J (if used) integral strategy            ... SPLIT-RIJ (Revised 2003 algorithm where possible)
Printlevel                                  ...      1
Contraction scheme used                     ... SEGMENTED contraction
Prescreening option                         ... SCHWARTZ
   Thresh                                   ... 3.000e-11
   Tcut                                     ... 1.000e-12
   Tpresel                                  ... 1.000e-12 
Coulomb Range Separation                    ... NOT USED
Exchange Range Separation                   ... NOT USED
Multipole approximations                    ... NOT USED
Finite Nucleus Model                        ... NOT USED
CABS basis                                  ... NOT available
Auxiliary Coulomb fitting basis             ... AVAILABLE
   # of basis functions in Aux-J            ...    524
   # of shells in Aux-J                     ...    180
   Maximum angular momentum in Aux-J        ...      4
Auxiliary J/K fitting basis                 ... NOT available
Auxiliary Correlation fitting basis         ... NOT available
Auxiliary 'external' fitting basis          ... NOT available

Checking pre-screening integrals            ... done (  0.0 sec) Dimension = 110
Check shell pair data                       ... done (  0.0 sec)
Shell pair information
Shell pair cut-off parameter TPreSel        ...   1.0e-12
Total number of shell pairs                 ...      6105
Shell pairs after pre-screening             ...      5273
Total number of primitive shell pairs       ...     21533
Primitive shell pairs kept                  ...     13206
          la=0 lb=0:   1765 shell pairs
          la=1 lb=0:   1990 shell pairs
          la=1 lb=1:    581 shell pairs
          la=2 lb=0:    566 shell pairs
          la=2 lb=1:    320 shell pairs
          la=2 lb=2:     51 shell pairs

Calculating one electron integrals          ... done (  0.0 sec)
Calculating RI/J V-Matrix + Cholesky decomp.... done (  0.1 sec)
Calculating Nuclear repulsion               ... done (  0.0 sec) ENN=    388.030930739636 Eh

Diagonalization of the overlap matrix:
Smallest eigenvalue                        ... 1.260e-04
Time for diagonalization                   ...    0.010 sec
Threshold for overlap eigenvalues          ... 1.000e-07
Number of eigenvalues below threshold      ... 0
Time for construction of square roots      ...    0.020 sec
Total time needed                          ...    0.041 sec

-------------------
DFT GRID GENERATION
-------------------

General Integration Accuracy     IntAcc      ... 4.388
Radial Grid Type                 RadialGrid  ... OptM3 with GC (2021)
Angular Grid (max. ang.)         AngularGrid ... 4 (Lebedev-302)
Angular grid pruning method      GridPruning ... 4 (adaptive)
Weight generation scheme         WeightScheme... mBecke (2022)
Basis function cutoff            BFCut       ... 1.0000e-11
Integration weight cutoff        WCut        ... 1.0000e-14
Partially contracted basis set               ... off
Rotationally invariant grid construction     ... off
Angular grids for H and He will be reduced by one unit
Diffuse basis detected: some atoms will have their outermost
                        angular grid increased by 1.

Total number of grid points                  ...    87437
Total number of batches                      ...     1375
Average number of points per batch           ...       63
Average number of grid points per atom       ...     4372
Initializing property integral containers    ... done (  0.0 sec)

SHARK setup successfully completed in   1.3 seconds

Maximum memory used throughout the entire STARTUP-calculation: 39.3 MB
Occupation numbers will be reassigned to an Aufbau configuration
             **** ENERGY FILE WAS UPDATED (xtb_opt.en.tmp) ****
Finished Guess after   0.5 sec
Maximum memory used throughout the entire GUESS-calculation: 15.0 MB
--------------------
CPCM SOLVATION MODEL
--------------------
CPCM parameters:
  Epsilon                                         ...      78.3550
  Refrac                                          ...       1.3328
  Rsolv                                           ...       1.3000
  Surface type                                    ... GAUSSIAN VDW
  Discretization scheme                           ... Constant charge density
    Threshold for H atoms                         ...       5.0000 (charges/Ang^2)
    Threshold for non-H atoms                     ...       5.0000 (charges/Ang^2)
  Epsilon function type                           ...         CPCM
Solvent:                                          ... WATER
SMD-CDS solvent descriptors:
  Soln                                            ...       1.3328
  Soln25                                          ...       1.3323
  Sola                                            ...       0.0000
  Solb                                            ...       0.0000
  Solg                                            ...       0.0000
  Solc                                            ...       0.0000
  Solh                                            ...       0.0000
Radii:
  Scheme                                          ... Element-dependent radii
  Radius for C  used is    3.4960 Bohr (=   1.8500 Ang.)
  Radius for O  used is    2.8724 Bohr (=   1.5200 Ang.)
  Radius for H  used is    2.2677 Bohr (=   1.2000 Ang.)
Calculating surface                               ...        done! (  0.0s)
Cavity surface points                             ...         1494
Cavity Volume                                     ...     881.7953
Cavity Surface-area                               ...     591.0201
Calculating surface distance matrix               ...        done! (  0.0s)
Performing Cholesky decomposition & store         ...        done! (  0.1s)
Overall time for CPCM initialization              ...                 0.1s

----------------------------------------D-I-I-S--------------------------------------------
Iteration    Energy (Eh)           Delta-E    RMSDP     MaxDP     DIISErr   Damp  Time(sec)
-------------------------------------------------------------------------------------------
               ***  Starting incremental Fock matrix formation  ***
    1    -386.2559972639579655     0.00e+00  6.89e-05  1.93e-03  4.86e-03  0.700   3.3
                              *** Initializing SOSCF ***
---------------------------------------S-O-S-C-F--------------------------------------
Iteration    Energy (Eh)           Delta-E    RMSDP     MaxDP     MaxGrad    Time(sec)
--------------------------------------------------------------------------------------
    2    -386.2560912421855619    -9.40e-05  1.98e-04  5.38e-03  3.07e-03     3.2
               *** Restarting incremental Fock matrix formation ***
    3    -386.2563057100954893    -2.14e-04  5.05e-05  9.69e-04  3.48e-04     3.3
    4    -386.2563028434439047     2.87e-06  2.53e-05  7.00e-04  3.85e-04     3.2
    5    -386.2563128949564089    -1.01e-05  1.52e-05  3.52e-04  2.01e-04     2.6
    6    -386.2563117857509951     1.11e-06  9.88e-06  2.66e-04  3.31e-04     3.5
    7    -386.2563134091660686    -1.62e-06  3.26e-06  9.46e-05  4.14e-05     2.9
    8    -386.2563133569791489     5.22e-08  2.05e-06  5.85e-05  7.92e-05     2.7
                 **** Energy Check signals convergence ****

               *****************************************************
               *                     SUCCESS                       *
               *           SCF CONVERGED AFTER   8 CYCLES          *
               *****************************************************


SMD CDS free energy correction energy :                 5.01561     Kcal/mol
Total Energy after SMD CDS correction =              -386.248320467 Eh
             **** ENERGY FILE WAS UPDATED (xtb_opt.en.tmp) ****

----------------
TOTAL SCF ENERGY
----------------

Total Energy       :       -386.24832046676210 Eh          -10510.35114 eV

Components:
Nuclear Repulsion  :        388.03093073963612 Eh           10558.85843 eV
Electronic Energy  :       -774.27119426362776 Eh          -21068.99032 eV
One Electron Energy:      -1293.44101778498316 Eh          -35196.31944 eV
Two Electron Energy:        519.16982352135540 Eh           14127.32912 eV
CPCM Dielectric    :         -0.01604983298752 Eh              -0.43674 eV
SMD CDS (Gcds)     :          0.00799289021705 Eh               0.21750 eV

Virial components:
Potential Energy   :       -770.75305286369189 Eh          -20973.25683 eV
Kinetic Energy     :        384.50473239692980 Eh           10462.90569 eV
Virial Ratio       :          2.00453463357645

DFT components:
N(Alpha)           :       32.000051802273 electrons
N(Beta)            :       32.000051802273 electrons
N(Total)           :       64.000103604546 electrons
E(X)               :      -52.051377214275 Eh       
E(C)               :       -2.035343385302 Eh       
E(XC)              :      -54.086720599577 Eh       

CPCM Solvation Model Properties:
Surface-charge          :         -0.04819165540411
Corrected charge        :         -0.00000000000000
Outlying charge corr.   :          0.00017306484512 Eh               0.00471 eV
Free-energy (cav+disp)  :          0.00799289021705 Eh               0.21750 eV

---------------
SCF CONVERGENCE
---------------

  Last Energy change         ...   -5.2187e-08  Tolerance :   1.0000e-07
  Last MAX-Density change    ...    5.8543e-05  Tolerance :   1.0000e-07
  Last RMS-Density change    ...    2.0526e-06  Tolerance :   5.0000e-09
  Last DIIS Error            ...    3.0658e-03  Tolerance :   1.0000e-07
  Last Orbital Gradient      ...    7.9163e-05  Tolerance :   1.0000e-04
  Last Orbital Rotation      ...    7.0292e-05  Tolerance :   1.0000e-04


----------------
ORBITAL ENERGIES
----------------

  NO   OCC          E(Eh)            E(eV) 
   0   2.0000     -19.001527      -517.0578 
   1   2.0000     -18.944580      -515.5082 
   2   2.0000     -10.163699      -276.5683 
   3   2.0000     -10.083932      -274.3977 
   4   2.0000     -10.036253      -273.1003 
   5   2.0000     -10.032101      -272.9873 
   6   2.0000     -10.019883      -272.6549 
   7   2.0000     -10.014430      -272.5065 
   8   2.0000      -1.072274       -29.1781 
   9   2.0000      -0.985088       -26.8056 
  10   2.0000      -0.768997       -20.9255 
  11   2.0000      -0.731129       -19.8950 
  12   2.0000      -0.673689       -18.3320 
  13   2.0000      -0.613452       -16.6929 
  14   2.0000      -0.560545       -15.2532 
  15   2.0000      -0.522222       -14.2104 
  16   2.0000      -0.470772       -12.8104 
  17   2.0000      -0.460152       -12.5214 
  18   2.0000      -0.435467       -11.8497 
  19   2.0000      -0.421972       -11.4825 
  20   2.0000      -0.408235       -11.1086 
  21   2.0000      -0.383267       -10.4292 
  22   2.0000      -0.369927       -10.0662 
  23   2.0000      -0.354609        -9.6494 
  24   2.0000      -0.348921        -9.4946 
  25   2.0000      -0.337025        -9.1709 
  26   2.0000      -0.323758        -8.8099 
  27   2.0000      -0.308726        -8.4009 
  28   2.0000      -0.302257        -8.2248 
  29   2.0000      -0.299955        -8.1622 
  30   2.0000      -0.276642        -7.5278 
  31   2.0000      -0.249543        -6.7904 
  32   0.0000      -0.026599        -0.7238 
  33   0.0000       0.077380         2.1056 
  34   0.0000       0.094912         2.5827 
  35   0.0000       0.114934         3.1275 
  36   0.0000       0.128666         3.5012 
  37   0.0000       0.135788         3.6950 
  38   0.0000       0.138870         3.7788 
  39   0.0000       0.148707         4.0465 
  40   0.0000       0.151306         4.1173 
  41   0.0000       0.166081         4.5193 
  42   0.0000       0.175685         4.7806 
*Only the first 10 virtual orbitals were printed.
Total SCF time: 0 days 0 hours 0 min 25 sec 
Finished LeanSCF after  25.4 sec

Maximum memory used throughout the entire LEANSCF-calculation: 30.3 MB


-------------------------------------------------------------------------------
                          DFT DISPERSION CORRECTION                            
                                                                               
                                DFTD4 V3.4.0                                   
-------------------------------------------------------------------------------
-------------------------   ----------------
Dispersion correction           -0.004951289
[...]
  Last RMS-Density change    ...    9.8286e-07  Tolerance :   5.0000e-09
  Last DIIS Error            ...    1.4248e-04  Tolerance :   1.0000e-07
  Last Orbital Gradient      ...    1.2196e-05  Tolerance :   1.0000e-04
  Last Orbital Rotation      ...    4.2246e-05  Tolerance :   1.0000e-04


----------------
ORBITAL ENERGIES
----------------

  NO   OCC          E(Eh)            E(eV) 
   0   2.0000     -19.000442      -517.0283 
   1   2.0000     -18.945067      -515.5215 
   2   2.0000     -10.164301      -276.5847 
   3   2.0000     -10.084539      -274.4143 
   4   2.0000     -10.037098      -273.1233 
   5   2.0000     -10.032806      -273.0065 
   6   2.0000     -10.020377      -272.6683 
   7   2.0000     -10.015237      -272.5285 
   8   2.0000      -1.067778       -29.0557 
   9   2.0000      -0.983272       -26.7562 
  10   2.0000      -0.768165       -20.9028 
  11   2.0000      -0.730488       -19.8776 
  12   2.0000      -0.673811       -18.3353 
  13   2.0000      -0.611479       -16.6392 
  14   2.0000      -0.561061       -15.2672 
  15   2.0000      -0.520298       -14.1580 
  16   2.0000      -0.470057       -12.7909 
  17   2.0000      -0.458422       -12.4743 
  18   2.0000      -0.435000       -11.8369 
  19   2.0000      -0.420681       -11.4473 
  20   2.0000      -0.408029       -11.1030 
  21   2.0000      -0.383894       -10.4463 
  22   2.0000      -0.369852       -10.0642 
  23   2.0000      -0.354414        -9.6441 
  24   2.0000      -0.348842        -9.4925 
  25   2.0000      -0.336093        -9.1456 
  26   2.0000      -0.324095        -8.8191 
  27   2.0000      -0.309371        -8.4184 
  28   2.0000      -0.302217        -8.2237 
  29   2.0000      -0.299696        -8.1551 
  30   2.0000      -0.277486        -7.5508 
  31   2.0000      -0.249389        -6.7862 
  32   0.0000      -0.028005        -0.7620 
  33   0.0000       0.075674         2.0592 
  34   0.0000       0.091927         2.5015 
  35   0.0000       0.114415         3.1134 
  36   0.0000       0.128521         3.4972 
  37   0.0000       0.134907         3.6710 
  38   0.0000       0.138902         3.7797 
  39   0.0000       0.148482         4.0404 
  40   0.0000       0.151035         4.1099 
  41   0.0000       0.165003         4.4900 
  42   0.0000       0.174810         4.7568 
*Only the first 10 virtual orbitals were printed.
Total SCF time: 0 days 0 hours 0 min 13 sec 
Finished LeanSCF after  13.9 sec

Maximum memory used throughout the entire LEANSCF-calculation: 30.3 MB


-------------------------------------------------------------------------------
                          DFT DISPERSION CORRECTION                            
                                                                               
                                DFTD4 V3.4.0                                   
-------------------------------------------------------------------------------
-------------------------   ----------------
Dispersion correction           -0.004947586
-------------------------   ----------------

------------------   -----------------
gCP correction             0.011440122
------------------   -----------------

-------------------------   --------------------
FINAL SINGLE POINT ENERGY      -386.242141560040
-------------------------   --------------------

------------------------------------------------------------------------------
                         ORCA SCF GRADIENT CALCULATION
------------------------------------------------------------------------------

Nuc. rep. gradient        (SHARK) ... done (  0.0 sec)
HCore & Overlap gradient  (SHARK) ... done (  0.3 sec)
Split-RIJ-J gradient      (SHARK) ... done (  1.7 sec)
XC gradient                       ... done (  6.7 sec)
CPCM gradient                     ... done (  1.0 sec)
SMD gradient                      ... done (  0.0 sec)
Dispersion correction             ... done (  0.0 sec)

-------------------
DISPERSION GRADIENT
-------------------

   1   C   :   -0.000073734   -0.000018134    0.000013270
   2   C   :   -0.000062787    0.000000979    0.000020107
   3   C   :   -0.000050596   -0.000016858   -0.000031238
   4   C   :    0.000010754    0.000020722   -0.000021269
   5   O   :    0.000010132    0.000063491   -0.000050375
   6   O   :    0.000043787   -0.000006408    0.000018892
   7   C   :    0.000069404    0.000010703    0.000026607
   8   C   :    0.000078986   -0.000010422   -0.000005420
   9   H   :   -0.000029778   -0.000003825    0.000001077
  10   H   :   -0.000027710   -0.000013266    0.000006735
  11   H   :   -0.000026197   -0.000002680    0.000011436
  12   H   :   -0.000028082   -0.000005030    0.000019442
  13   H   :   -0.000027667    0.000011496    0.000007787
  14   H   :   -0.000012173    0.000002076   -0.000023438
  15   H   :   -0.000014522   -0.000021665   -0.000011806
  16   H   :    0.000023288    0.000009768    0.000008769
  17   H   :    0.000026135   -0.000003248    0.000020983
  18   H   :    0.000028460   -0.000002566   -0.000000774
  19   H   :    0.000032087   -0.000014132   -0.000001745
  20   H   :    0.000030212   -0.000001001   -0.000009040

Difference to translation invariance:
           :    0.0000000000   -0.0000000000   -0.0000000000

Difference to rotation invariance:
           :   -0.0000000000    0.0000000000   -0.0000000000

Norm of the Dispersion gradient    ...    0.0002176936
RMS gradient                       ...    0.0000281041
MAX gradient                       ...    0.0000789863
gCP correction                   ... done

------------------
CARTESIAN GRADIENT
------------------

   1   C   :   -0.000097808   -0.000010013    0.000040867
   2   C   :    0.000178140   -0.000027767   -0.000026361
   3   C   :   -0.000107679    0.000055434    0.000048957
   4   C   :    0.000302212   -0.000028320    0.000175080
   5   O   :   -0.000009183   -0.000116167   -0.000088592
   6   O   :   -0.000029848    0.000221375   -0.000067204
   7   C   :   -0.000306724   -0.000071792    0.000044343
   8   C   :    0.000111527   -0.000076271   -0.000068990
   9   H   :    0.000000879    0.000007405   -0.000047751
  10   H   :    0.000040870   -0.000093864   -0.000009966
  11   H   :   -0.000044323   -0.000020371    0.000015749
  12   H   :    0.000008233    0.000025341    0.000030966
  13   H   :   -0.000034829    0.000061044    0.000004914
  14   H   :   -0.000014188    0.000072872    0.000003301
  15   H   :   -0.000006386   -0.000029269   -0.000064219
  16   H   :    0.000056550    0.000028659    0.000033403
  17   H   :    0.000005901   -0.000007578   -0.000011180
  18   H   :   -0.000015069    0.000033504   -0.000017944
  19   H   :    0.000009518   -0.000008738    0.000003707
  20   H   :   -0.000047793   -0.000015483    0.000000917

Difference to translation invariance:
           :   -0.0000000000    0.0000000000    0.0000000000

Difference to rotation invariance:
           :   -0.0000046551    0.0000589642   -0.0001438014

Norm of the Cartesian gradient     ...    0.0006533721
RMS gradient                       ...    0.0000843500
MAX gradient                       ...    0.0003067243

-------
TIMINGS
-------

Total SCF gradient time     ....       10.553 sec

Densities                   ....       0.001 sec  (  0.0%)
One electron gradient       ....       0.335 sec  (  3.2%)
RI-J Coulomb gradient       ....       1.734 sec  ( 16.4%)
XC gradient                 ....       6.655 sec  ( 63.1%)
CPCM gradient               ....       0.973 sec  (  9.2%)
   A-Matrix (El+Nuc)        ....       0.081 sec  (  0.8%)
   Potential                ....       0.892 sec  (  8.5%)
SMD gradient                ....       0.013 sec  (  0.1%)

Maximum memory used throughout the entire SCFGRAD-calculation: 35.2 MB

------------------------------------------------------------------------------
                              ORCA PROPERTY CALCULATIONS
------------------------------------------------------------------------------

GBWName                                 ... xtb_opt.gbw
Number of atoms                         ...     20
Number of basis functions               ...    222
Max core memory                         ...   1024 MB

Electric properties:
Dipole moment                           ... YES
Quadrupole moment                       ...  NO
Static polarizability (Dipole/Dipole)   ...  NO
Static polarizability (Dipole/Quad.)    ...  NO
Static polarizability (Quad./Quad.)     ...  NO
Static polarizability (Velocity)        ...  NO

Atomic electric properties:
Dipole moment                           ...  NO
Quadrupole moment                       ...  NO
Static polarizability                   ...  NO

Choice of electric origin               ... Center of mass
Position of electric origin             ...     0.013695    -0.028208     0.008067

General magnetic properties:
Magnetizability                         ...  NO

EPR properties:
g-Tensor (aka g-matrix)                 ...  NO
Zero-Field splitting spin-orbit         ...  NO
Zero-field splitting spin-spin          ...  NO
Hyperfine couplings                     ...  NO (   0 nuclei)
Quadrupole couplings                    ...  NO (   0 nuclei)
Contact density                         ...  NO (   0 nuclei)

NMR properties:
Chemical shifts                         ...  NO (   0 nuclei)
Spin-rotation constants                 ...  NO (   0 nuclei)
Spin-spin couplings                     ...  NO (   0 nuclei,    0 pairs)

Choice of magnetic origin               ... GIAO
Position of magnetic origin             ...     0.000000     0.000000     0.000000

Properties with geometric perturbations:
SCF Hessian                             ...  NO
IR spectrum                             ...  NO
VCD spectrum                            ...  NO
X-ray spectroscopy properties:
SCF XES/XAS/RIXS spectra                ...  NO


-------------
DIPOLE MOMENT
-------------

Method             : SCF
Type of density    : Electron Density
Multiplicity       :   1
Irrep              :   0
Energy             :  -386.2486340957965467 Eh
Relativity type    : 
Basis              : AO
                                X                 Y                 Z
Electronic contribution:      3.313008799       2.274390976      -1.270185610
Nuclear contribution   :     -3.263047295      -3.131758369       2.007286918
                        -----------------------------------------
Total Dipole Moment    :      0.049961504      -0.857367394       0.737101308
                        -----------------------------------------
Magnitude (a.u.)       :      1.131765584
Magnitude (Debye)      :      2.876719498



--------------------
Rotational spectrum 
--------------------
 
Rotational constants in cm-1:             0.175830             0.029998             0.028024 
Rotational constants in MHz :          5271.256100           899.324206           840.139481 

Dipole components along the rotational axes: 
x,y,z [a.u.] :    -0.064633     1.115304     0.181146 
x,y,z [Debye]:    -0.164284     2.834876     0.460436 

 

Dipole moment calculation done in   0.0 sec 

Maximum memory used throughout the entire PROP-calculation: 13.8 MB

--------------------------------
SUGGESTED CITATIONS FOR THIS RUN
--------------------------------

Below you find a list of papers that are relevant to this ORCA run
We neither can nor want to force you to cite these papers, but we appreciate if you do
You receive ORCA, which is the product of decades of hard work by many enthusiastic individuals, for free
The only thing we kindly ask in return is that you cite our papers,
We deeply appreciate it, if you show your appreciation for ORCA by not just citing the generic ORCA reference.

Please note that relegating all ORCA citations to the supporting information does *not* help us.
SI sections are not indexed - citations you put there will not count into any citation statistics
But we need these citations in order to attract the funding resources that allow us to do what we are doing

Therefore, if you are a happy ORCA user, please consider citing a few of the papers listed below in the main body of your paper

In addition to the list printed below, the program has created the file xtb_opt.bibtex that contains the list in bibtex format
You can import this file easily into all common literature databanks and citation aid programs


List of essential papers. We consider these as the minimum necessary citations

  1. Neese,F.
     Software update: the ORCA program system, version 5.0
     WIRES Comput. Molec. Sci., 2022 12(1)e1606
     doi.org/10.1002/wcms.1606
  2. Grimme,S.; Hansen,A.; Ehlert,S.; Mewes,J.
     r2SCAN-3c: A 'Swiss army knife' composite electronic-structure method
     J. Chem. Phys., 2021 154 064103
     doi.org/10.1063/5.0040021

List of papers to cite with high priority. The work reported in these papers was absolutely
necessary for this run to complete.
Our perspective: the developers of density functionals and basis sets usually get cited in chemistry papers
Good! But without the algorithms to do something with them, the functionals or basis sets would not do anything.
Hence, in our opinion, the algorithm design and method developments papers are equally worthy of getting cited

  1. Neese,F.
     An improvement of the resolution of the identity approximation for the formation of the Coulomb matrix
     J. Comp. Chem., 2003 24(14)1740-1747
     doi.org/10.1002/jcc.10318
  2. Garcia-Rates,M.; Neese,F.
     Effect of the Solute Cavity on the Solvation Energy and its Derivatives within the Framework of the Gaussian Charge Scheme
     J. Comput. Chem., 2020 41 922-939
     doi.org/10.1002/jcc.26139
  3. Neese,F.
     The SHARK Integral Generation and Digestion System
     J. Comp. Chem., 2022  1-16
     doi.org/10.1002/jcc.26942
  4. Lehtola,S.; Steigemann,C.; Oliveira,M.; Marques,M.
     Recent developments in Libxc - A comprehensive library of functionals for density functional theory
     Software X, 2018 7 
     doi.org/10.1016/j.softx.2017.11.002
  5. Caldeweyher,E.; Bannwarth,C.; Grimme,S.
     Extension of the D3 dispersion coefficient model
     J. Chem. Phys., 2017 147 034112-XXXX
     doi.org/10.1063/1.4993215
  6. Caldeweyher,E.; Ehlert,S.; Hansen,A.; Neugebauer,H.; Spicher,S.; Bannwarth,C.; Grimme,S.
     A generally applicable atomic-charge dependent London dispersion correction
     J. Chem. Phys., 2019 150 154122-XXXX
     doi.org/10.1063/1.5090222
  7. Caldeweyher,E.; Mewes,J.; Ehlert,S.; Grimme,S.
     Extension and evaluation of the D4 London-dispersion model for periodic systems
     Phys. Chem. Chem. Phys., 2020 22(16)8499-8512
     doi.org/10.1039/D0CP00502A

List of suggested additional citations. These are papers that are important in the 'surrounding' of 
of this run, or papers that preceded the highly important papers. If you like your results we are grateful for a citation.

  1. Neese,F.
     The ORCA program system
     WIRES Comput. Molec. Sci., 2012 2(1)73-78
     doi.org/10.1002/wcms.81
  2. Neese,F.
     Software update: the ORCA program system, version 4.0
     WIRES Comput. Molec. Sci., 2018 8(1)1-6
     doi.org/10.1002/wcms.1327
  3. Neese,F.; Wennmohs,F.; Becker,U.; Riplinger,C.
     The ORCA quantum chemistry program package
     J. Chem. Phys., 2020 152 Art. No. L224108
     doi.org/10.1063/5.0004608

List of optional additional citations

  1. Neese,F.
     Approximate second-order SCF convergence for spin unrestricted wavefunctions
     Chem. Phys. Lett., 2000 325(1-3)93-98
     doi.org/10.1016/s0009-2614(00)00662-x

Timings for individual modules:

Sum of individual times          ...       26.624 sec (=   0.444 min)
Startup calculation              ...        1.396 sec (=   0.023 min)   5.2 %
SCF iterations                   ...       14.423 sec (=   0.240 min)  54.2 %
Property calculations            ...        0.135 sec (=   0.002 min)   0.5 %
SCF Gradient evaluation          ...       10.670 sec (=   0.178 min)  40.1 %
                             ****ORCA TERMINATED NORMALLY****
TOTAL RUN TIME: 0 days 0 hours 0 minutes 27 seconds 658 msec
  ------------------------------------------------------------------------
          * successful ORCA run, taking over control again...

         :::::::::::::::::::::::::::::::::::::::::::::::::::::
         ::                  ORCA SUMMARY                   ::
         :::::::::::::::::::::::::::::::::::::::::::::::::::::
         :: total energy            -386.242141560040 Eh    ::
         :: gradient norm              0.000653372086 Eh/a0 ::
         :: HOMO-LUMO gap              0.000000000000 eV    ::
         :::::::::::::::::::::::::::::::::::::::::::::::::::::

           -------------------------------------------------
          |                Property Printout                |
           -------------------------------------------------
           -------------------------------------------------
          |                Geometry Summary                 |
           -------------------------------------------------

      molecular mass/u    :      116.1585142
   center of mass at/Å    :        0.0072565      -0.0149199       0.0042648
  moments of inertia/u·Å² :        0.9587389E+02   0.5619389E+03   0.6015278E+03
rotational constants/cm⁻¹ :        0.1758313E+00   0.2999905E-01   0.2802469E-01

 * 17 selected distances

     #   Z          #   Z                                           value/Å
     1   6 C        2   6 C                                       1.5245736
     2   6 C        3   6 C                                       1.5396181 (max)
     4   6 C        5   8 O                                       1.2215598
     4   6 C        6   8 O                                       1.3470899
     7   6 C        8   6 C                                       1.5115741
     1   6 C        9   1 H                                       1.0952791
     1   6 C       10   1 H                                       1.0954335
     1   6 C       11   1 H                                       1.0944184
     2   6 C       12   1 H                                       1.0955609
     2   6 C       13   1 H                                       1.0964152
     3   6 C       14   1 H                                       1.0931602
     3   6 C       15   1 H                                       1.0946757
     7   6 C       16   1 H                                       1.0928387
     7   6 C       17   1 H                                       1.0916379 (min)
     8   6 C       18   1 H                                       1.0946386
     8   6 C       19   1 H                                       1.0938162
     8   6 C       20   1 H                                       1.0932586

 * 3 distinct bonds (by element types)

   Z      Z             #   av. dist./Å        max./Å        min./Å
   1 H    6 C          12     1.0942611     1.0964152     1.0916379
   6 C    6 C           3     1.5252553     1.5396181     1.5115741
   6 C    8 O           2     1.2843248     1.3470899     1.2215598


optimized geometry written to: xtbopt.coord


           -------------------------------------------------
          | TOTAL ENERGY             -386.242141560040 Eh   |
          | GRADIENT NORM               0.000653372086 Eh/α |
           -------------------------------------------------

------------------------------------------------------------------------
 * finished run on 2025/04/11 at 16:37:08.631     
------------------------------------------------------------------------
 total:
 * wall-time:     0 d,  0 h,  5 min, 29.090 sec
 *  cpu-time:     0 d,  0 h,  0 min,  2.471 sec
 * ratio c/w:     0.008 speedup
 SCF:
 * wall-time:     0 d,  0 h,  0 min, 28.105 sec
 *  cpu-time:     0 d,  0 h,  0 min,  1.043 sec
 * ratio c/w:     0.037 speedup
 ANC optimizer:
 * wall-time:     0 d,  0 h,  5 min,  0.913 sec
 *  cpu-time:     0 d,  0 h,  0 min,  1.208 sec
 * ratio c/w:     0.004 speedup

