
                                 *****************
                                 * O   R   C   A *
                                 *****************

                                            #,                                       
                                            ###                                      
                                            ####                                     
                                            #####                                    
                                            ######                                   
                                           ########,                                 
                                     ,,################,,,,,                         
                               ,,#################################,,                 
                          ,,##########################################,,             
                       ,#########################################, ''#####,          
                    ,#############################################,,   '####,        
                  ,##################################################,,,,####,       
                ,###########''''           ''''###############################       
              ,#####''   ,,,,##########,,,,          '''####'''          '####       
            ,##' ,,,,###########################,,,                        '##       
           ' ,,###''''                  '''############,,,                           
         ,,##''                                '''############,,,,        ,,,,,,###''
      ,#''                                            '''#######################'''  
     '                                                          ''''####''''         
             ,#######,   #######,   ,#######,      ##                                
            ,#'     '#,  ##    ##  ,#'     '#,    #''#        ,####,   ,####,        
            ##       ##  ##   ,#'  ##            #'  '#       #'       #'  '#        
            ##       ##  #######   ##           ,######,      #####,   #    #        
            '#,     ,#'  ##    ##  '#,     ,#' ,#      #,     #,   #   #,  ,#        
             '#######'   ##     ##  '#######'  #'      '#     '####' # '####'        



                #########################################################
                #                        -***-                          #
                #          Department of theory and spectroscopy        #
                #                                                       #
                #                      Frank Neese                      #
                #                                                       #
                #     Directorship, Architecture, Infrastructure        #
                #                    SHARK, DRIVERS                     #
                #        Core code/Algorithms in most modules           #
                #                                                       #
                #        Max Planck Institute fuer Kohlenforschung      #
                #                Kaiser Wilhelm Platz 1                 #
                #                 D-45470 Muelheim/Ruhr                 #
                #                      Germany                          #
                #                                                       #
                #                  All rights reserved                  #
                #                        -***-                          #
                #########################################################


                         Program Version 6.0.0  -   RELEASE  -


 With contributions from (in alphabetic order):
   Daniel Aravena         : Magnetic Suceptibility
   Michael Atanasov       : Ab Initio Ligand Field Theory (pilot matlab implementation)
   Alexander A. Auer      : GIAO ZORA, VPT2 properties, NMR spectrum
   Ute Becker             : All parallelization in ORCA, NUMFREQ, NUMCALC
   Giovanni Bistoni       : ED, misc. LED, open-shell LED, HFLD
   Martin Brehm           : Molecular dynamics
   Dmytro Bykov           : pre 5.0 version of the SCF Hessian
   Marcos Casanova-Páez   : Triplet and SCS-CIS(D). UHF-(DLPNO)-IP/EA/STEOM-CCSD. UHF-CVS-IP/STEOM-CCSD
   Vijay G. Chilkuri      : MRCI spin determinant printing, contributions to CSF-ICE
   Pauline Colinet        : FMM embedding
   Dipayan Datta          : RHF DLPNO-CCSD density
   Achintya Kumar Dutta   : EOM-CC, STEOM-CC
   Nicolas Foglia         : Exact transition moments, OPA infrastructure, MCD improvements
   Dmitry Ganyushin       : Spin-Orbit,Spin-Spin,Magnetic field MRCI
   Miquel Garcia          : C-PCM and meta-GGA Hessian, CCSD/C-PCM, Gaussian charge scheme
   Tiago L. C. Gouveia    : GS-ROHF, GS-ROCIS
   Yang Guo               : DLPNO-NEVPT2, F12-NEVPT2, CIM, IAO-localization
   Andreas Hansen         : Spin unrestricted coupled pair/coupled cluster methods
   Ingolf Harden          : AUTO-CI MPn and infrastructure 
   Benjamin Helmich-Paris : MC-RPA, TRAH-(SCF,CASSCF), AVAS, COSX integrals, SCF dyn. polar.
   Lee Huntington         : MR-EOM, pCC
   Robert Izsak           : Overlap fitted RIJCOSX, COSX-SCS-MP3, EOM
   Riya Kayal             : Wick's Theorem for AUTO-CI, AUTO-CI UHF-CCSDT
   Emily Kempfer          : AUTO-CI, RHF CISDT and CCSDT
   Christian Kollmar      : KDIIS, OOCD, Brueckner-CCSD(T), CCSD density, CASPT2, CASPT2-K, improved NEVPT2
   Axel Koslowski         : Symmetry handling
   Simone Kossmann        : Meta GGA functionals, TD-DFT gradient, OOMP2, (MP2 Hessian; deprecated post 5.0)
   Lucas Lang             : DCDCAS
   Marvin Lechner         : AUTO-CI (C++ implementation), FIC-MRCC
   Spencer Leger          : CASSCF response
   Dagmar Lenk            : GEPOL surface, SMD, ORCA-2-JSON
   Dimitrios Liakos       : Extrapolation schemes; Compound Job, initial MDCI parallelization
   Dimitrios Manganas     : Further ROCIS development; embedding schemes. LFT, Crystal Embedding
   Dimitrios Pantazis     : SARC Basis sets
   Anastasios Papadopoulos: AUTO-CI, single reference methods and gradients
   Taras Petrenko         : pre 6.0 DFT Hessian and TD-DFT gradient, (ASA, deprecated), ECA, 1-Electron XAS/XES, NRVS
   Peter Pinski           : DLPNO-MP2, DLPNO-MP2 Gradient
   Christoph Reimann      : Effective Core Potentials
   Marius Retegan         : Local ZFS, SOC
   Christoph Riplinger    : Optimizer, TS searches, QM/MM, DLPNO-CCSD(T), (RO)-DLPNO pert. Triples
   Michael Roemelt        : Original ROCIS implementation
   Masaaki Saitow         : Open-shell DLPNO-CCSD energy and density
   Barbara Sandhoefer     : DKH picture change effects
   Kantharuban Sivalingam : CASSCF convergence/infrastructure, NEVPT2 and variants, FIC-MRCI
   Bernardo de Souza      : ESD, SOC TD-DFT
   Georgi Stoychev        : AutoAux, RI-MP2 NMR, DLPNO-MP2 response, X2C
   Van Anh Tran           : RI-MP2 g-tensors
   Willem Van den Heuvel  : Paramagnetic NMR
   Zikuan Wang            : NOTCH, Electric field optimization 
   Frank Wennmohs         : Technical directorship and infrastructure
   Hang Xu                : AUTO-CI-Response properties 


 We gratefully acknowledge several colleagues who have allowed us to
 interface, adapt or use parts of their codes:
   Stefan Grimme, W. Hujo, H. Kruse, P. Pracht,  : VdW corrections, initial TS optimization,
                  C. Bannwarth, S. Ehlert,         DFT functionals, gCP, sTDA/sTD-DF
                  L. Wittmann, M. Mueller
   Ed Valeev, F. Pavosevic, A. Kumar             : LibInt (2-el integral package), F12 methods
   Garnet Chan, S. Sharma, J. Yang, R. Olivares  : DMRG
   Ulf Ekstrom                                   : XCFun DFT Library
   Mihaly Kallay                                 : mrcc  (arbitrary order and MRCC methods)
   Frank Weinhold                                : gennbo (NPA and NBO analysis)
   Simon Mueller                                 : openCOSMO-RS
   Christopher J. Cramer and Donald G. Truhlar   : smd solvation model
   Lars Goerigk                                  : TD-DFT with DH, B97 family of functionals
   V. Asgeirsson, H. Jonsson                     : NEB implementation
   FAccTs GmbH                                   : IRC, NEB, NEB-TS, DLPNO-Multilevel, CI-OPT
                                                   MM, QMMM, 2- and 3-layer-ONIOM, Crystal-QMMM,
                                                   LR-CPCM, SF, NACMEs, symmetry and pop. for TD-DFT,
                                                   nearIR, NL-DFT gradient (VV10), updates on ESD,
                                                   ML-optimized integration grids, MBIS, APM,
                                                   GOAT, DOCKER, SOLVATOR, interface openCOSMO-RS
   S Lehtola, MJT Oliveira, MAL Marques          : LibXC Library
   Liviu Ungur et al                             : ANISO software


 Your calculation uses the libint2 library for the computation of 2-el integrals
 For citations please refer to: http://libint.valeyev.net

 Your ORCA version has been built with support for libXC version: 6.2.2
 For citations please refer to: https://libxc.gitlab.io

 This ORCA versions uses:
   CBLAS   interface :  Fast vector & matrix operations
   LAPACKE interface :  Fast linear algebra routines
   SCALAPACK package :  Parallel linear algebra routines
   Shared memory     :  Shared parallel matrices
   BLAS/LAPACK       :  OpenBLAS 0.3.27  USE64BITINT DYNAMIC_ARCH NO_AFFINITY SkylakeX SINGLE_THREADED
        Core in use  :  SkylakeX
   Copyright (c) 2011-2014, The OpenBLAS Project


Your calculation utilizes the geometrical counterpoise correction gCP
Please cite in your paper:
H.Kruse, S. Grimme J.Chem.Phys., 136, (2012), 154101 
   

Your calculation utilizes the atom-pairwise dispersion correction
based on EEQ partial charges (D4)


================================================================================

----- Orbital basis set information -----
Your calculation utilizes the basis: def2-SV(P)
   F. Weigend and R. Ahlrichs, Phys. Chem. Chem. Phys. 7, 3297 (2005).

----- AuxJ basis set information -----
Your calculation utilizes the auxiliary basis: def2/J
   F. Weigend, Phys. Chem. Chem. Phys. 8, 1057 (2006).

================================================================================
                                        WARNINGS
                       Please study these warnings very carefully!
================================================================================


================================================================================
                                       INPUT FILE
================================================================================
NAME = sp.inp
|  1> ! pbe def2-sv(p) def2/J RI DEFGRID1 loosescf d4 GCP(DFT/SV(P)) printgap
|  2> %output
|  3>     printlevel normal
|  4> end
|  5> * xyz 0 1
|  6> C -3.9254643711 0.2009574142 -0.2226854099
|  7> C -2.6962445019 -0.3687319915 0.4750316942
|  8> C -1.404702762 0.1393814069 -0.1605981792
|  9> C -0.1692100578 -0.4215574747 0.5393365616
| 10> C 1.108226634 -0.0114155139 -0.1450473415
| 11> O 1.1988411763 0.3670253562 -1.2934539779
| 12> O 2.1477449861 -0.1347257747 0.6749236779
| 13> C 3.4579686773 0.1767094468 0.1891634252
| 14> H -3.9289186491 1.2867409198 -0.1618201128
| 15> H -3.9312776029 -0.0813639513 -1.2729296889
| 16> H -4.8349972822 -0.1731283287 0.2401231018
| 17> H -2.7143115807 -0.0867874107 1.5295536598
| 18> H -2.7212054774 -1.458770543 0.4201565591
| 19> H -1.378352789 1.2301608458 -0.1174453201
| 20> H -1.3719738145 -0.1433766653 -1.2146690076
| 21> H -0.1996764935 -1.5141806972 0.5275702617
| 22> H -0.1195705353 -0.1051207241 1.5814329239
| 23> H 3.4310284228 0.30303154 -0.893674989
| 24> H 4.1070077001 -0.6501878956 0.4676588492
| 25> H 3.7899092018 1.0976737011 0.6663202475
| 26> *
| 27> 
| 28>                          ****END OF INPUT****
================================================================================

                       ****************************
                       * Single Point Calculation *
                       ****************************

---------------------------------
CARTESIAN COORDINATES (ANGSTROEM)
---------------------------------
  C     -3.925464    0.200957   -0.222685
  C     -2.696245   -0.368732    0.475032
  C     -1.404703    0.139381   -0.160598
  C     -0.169210   -0.421557    0.539337
  C      1.108227   -0.011416   -0.145047
  O      1.198841    0.367025   -1.293454
  O      2.147745   -0.134726    0.674924
  C      3.457969    0.176709    0.189163
  H     -3.928919    1.286741   -0.161820
  H     -3.931278   -0.081364   -1.272930
  H     -4.834997   -0.173128    0.240123
  H     -2.714312   -0.086787    1.529554
  H     -2.721205   -1.458771    0.420157
  H     -1.378353    1.230161   -0.117445
  H     -1.371974   -0.143377   -1.214669
  H     -0.199676   -1.514181    0.527570
  H     -0.119571   -0.105121    1.581433
  H      3.431028    0.303032   -0.893675
  H      4.107008   -0.650188    0.467659
  H      3.789909    1.097674    0.666320

----------------------------
CARTESIAN COORDINATES (A.U.)
----------------------------
  NO LB      ZA    FRAG     MASS         X           Y           Z
   0 C     6.0000    0    12.011   -7.418053    0.379754   -0.420814
   1 C     6.0000    0    12.011   -5.095164   -0.696802    0.897680
   2 C     6.0000    0    12.011   -2.654504    0.263393   -0.303487
   3 C     6.0000    0    12.011   -0.319761   -0.796628    1.019198
   4 C     6.0000    0    12.011    2.094245   -0.021572   -0.274100
   5 O     8.0000    0    15.999    2.265482    0.693577   -2.444274
   6 O     8.0000    0    15.999    4.058650   -0.254595    1.275421
   7 C     6.0000    0    12.011    6.534614    0.333932    0.357467
   8 H     1.0000    0     1.008   -7.424580    2.431588   -0.305796
   9 H     1.0000    0     1.008   -7.429038   -0.153756   -2.405488
  10 H     1.0000    0     1.008   -9.136821   -0.327165    0.453767
  11 H     1.0000    0     1.008   -5.129306   -0.164004    2.890438
  12 H     1.0000    0     1.008   -5.142333   -2.756677    0.793981
  13 H     1.0000    0     1.008   -2.604709    2.324667   -0.221939
  14 H     1.0000    0     1.008   -2.592655   -0.270943   -2.295392
  15 H     1.0000    0     1.008   -0.377334   -2.861387    0.996963
  16 H     1.0000    0     1.008   -0.225956   -0.198649    2.988475
  17 H     1.0000    0     1.008    6.483704    0.572647   -1.688801
  18 H     1.0000    0     1.008    7.761120   -1.228677    0.883747
  19 H     1.0000    0     1.008    7.161890    2.074303    1.259163

--------------------------------
INTERNAL COORDINATES (ANGSTROEM)
--------------------------------
 C      0   0   0     0.000000000000     0.00000000     0.00000000
 C      1   0   0     1.523921475391     0.00000000     0.00000000
 C      2   1   0     1.526526982236   111.55394963     0.00000000
 C      3   2   1     1.526762356230   111.80646619   179.66771369
 C      4   3   2     1.506134873240   112.20878395   175.60076063
 O      5   4   3     1.212545376456   125.36165932   339.48691895
 O      5   4   3     1.329720383174   110.95257076   160.34547459
 C      7   5   4     1.431656747016   119.08108751   178.38617657
 H      1   2   3     1.087493603411   110.49836802   299.95427502
 H      1   2   3     1.087544110670   110.45106013    59.70977889
 H      1   2   3     1.086913969879   110.57093231   179.82556779
 H      2   1   3     1.091712298141   109.41159886   121.04187645
 H      2   1   3     1.091704343907   109.37833110   238.94095239
 H      3   2   1     1.091950674093   109.66134254    58.35786276
 H      3   2   1     1.091828110411   109.94695777   300.69943652
 H      4   3   2     1.093111227581   109.86172422    56.80990750
 H      4   3   2     1.090211505921   111.61799280   297.58843731
 H      8   7   5     1.090514594038   109.84646879   349.16690006
 H      8   7   5     1.087460605803   107.09217177   228.62291364
 H      8   7   5     1.089053856598   108.31515315   109.52568560

---------------------------
INTERNAL COORDINATES (A.U.)
---------------------------
 C      0   0   0     0.000000000000     0.00000000     0.00000000
 C      1   0   0     2.879794238089     0.00000000     0.00000000
 C      2   1   0     2.884717932468   111.55394963     0.00000000
 C      3   2   1     2.885162724855   111.80646619   179.66771369
 C      4   3   2     2.846182431171   112.20878395   175.60076063
 O      5   4   3     2.291378686455   125.36165932   339.48691895
 O      5   4   3     2.512807358891   110.95257076   160.34547459
 C      7   5   4     2.705439169640   119.08108751   178.38617657
 H      1   2   3     2.055065082839   110.49836802   299.95427502
 H      1   2   3     2.055160527726   110.45106013    59.70977889
 H      1   2   3     2.053969734204   110.57093231   179.82556779
 H      2   1   3     2.063037260520   109.41159886   121.04187645
 H      2   1   3     2.063022229197   109.37833110   238.94095239
 H      3   2   1     2.063487725787   109.66134254    58.35786276
 H      3   2   1     2.063256113993   109.94695777   300.69943652
 H      4   3   2     2.065680854043   109.86172422    56.80990750
 H      4   3   2     2.060201174241   111.61799280   297.58843731
 H      8   7   5     2.060773927776   109.84646879   349.16690006
 H      8   7   5     2.055002726397   107.09217177   228.62291364
 H      8   7   5     2.058013534061   108.31515315   109.52568560

---------------------
BASIS SET INFORMATION
---------------------
There are 3 groups of distinct atoms

 Group   1 Type C   : 7s4p1d contracted to 3s2p1d pattern {511/31/1}
 Group   2 Type O   : 7s4p1d contracted to 3s2p1d pattern {511/31/1}
 Group   3 Type H   : 4s contracted to 2s pattern {31}

Atom   0C    basis set group =>   1
Atom   1C    basis set group =>   1
Atom   2C    basis set group =>   1
Atom   3C    basis set group =>   1
Atom   4C    basis set group =>   1
Atom   5O    basis set group =>   2
Atom   6O    basis set group =>   2
Atom   7C    basis set group =>   1
Atom   8H    basis set group =>   3
Atom   9H    basis set group =>   3
Atom  10H    basis set group =>   3
Atom  11H    basis set group =>   3
Atom  12H    basis set group =>   3
Atom  13H    basis set group =>   3
Atom  14H    basis set group =>   3
Atom  15H    basis set group =>   3
Atom  16H    basis set group =>   3
Atom  17H    basis set group =>   3
Atom  18H    basis set group =>   3
Atom  19H    basis set group =>   3
---------------------------------
AUXILIARY/J BASIS SET INFORMATION
---------------------------------
There are 3 groups of distinct atoms

 Group   1 Type C   : 12s5p4d2f1g contracted to 6s4p3d1f1g pattern {711111/2111/211/2/1}
 Group   2 Type O   : 12s5p4d2f1g contracted to 6s4p3d1f1g pattern {711111/2111/211/2/1}
 Group   3 Type H   : 5s2p1d contracted to 3s1p1d pattern {311/2/1}

Atom   0C    basis set group =>   1
Atom   1C    basis set group =>   1
Atom   2C    basis set group =>   1
Atom   3C    basis set group =>   1
Atom   4C    basis set group =>   1
Atom   5O    basis set group =>   2
Atom   6O    basis set group =>   2
Atom   7C    basis set group =>   1
Atom   8H    basis set group =>   3
Atom   9H    basis set group =>   3
Atom  10H    basis set group =>   3
Atom  11H    basis set group =>   3
Atom  12H    basis set group =>   3
Atom  13H    basis set group =>   3
Atom  14H    basis set group =>   3
Atom  15H    basis set group =>   3
Atom  16H    basis set group =>   3
Atom  17H    basis set group =>   3
Atom  18H    basis set group =>   3
Atom  19H    basis set group =>   3
------------------------------------------------------------------------------
                             ORCA STARTUP CALCULATIONS
                           -- RI-GTO INTEGRALS CHOSEN --
------------------------------------------------------------------------------
------------------------------------------------------------------------------
                   ___                                                        
                  /   \      - P O W E R E D   B Y -                         
                 /     \                                                     
                 |  |  |   _    _      __       _____    __    __             
                 |  |  |  | |  | |    /  \     |  _  \  |  |  /  |          
                  \  \/   | |  | |   /    \    | | | |  |  | /  /          
                 / \  \   | |__| |  /  /\  \   | |_| |  |  |/  /          
                |  |  |   |  __  | /  /__\  \  |    /   |      \           
                |  |  |   | |  | | |   __   |  |    \   |  |\   \          
                \     /   | |  | | |  |  |  |  | |\  \  |  | \   \       
                 \___/    |_|  |_| |__|  |__|  |_| \__\ |__|  \__/        
                                                                              
                      - O R C A' S   B I G   F R I E N D -                    
                                      &                                       
                       - I N T E G R A L  F E E D E R -                       
                                                                              
 v1 FN, 2020, v2 2021, v3 2022-2024                                           
------------------------------------------------------------------------------


----------------------
SHARK INTEGRAL PACKAGE
----------------------

Number of atoms                             ...     20
Number of basis functions                   ...    136
Number of shells                            ...     72
Maximum angular momentum                    ...      2
Integral batch strategy                     ... SHARK/LIBINT Hybrid
RI-J (if used) integral strategy            ... SPLIT-RIJ (Revised 2003 algorithm where possible)
Printlevel                                  ...      1
Contraction scheme used                     ... SEGMENTED contraction
Prescreening option                         ... SCHWARTZ
   Thresh                                   ... 1.000e-09
   Tcut                                     ... 1.000e-10
   Tpresel                                  ... 1.000e-10 
Coulomb Range Separation                    ... NOT USED
Exchange Range Separation                   ... NOT USED
Multipole approximations                    ... NOT USED
Finite Nucleus Model                        ... NOT USED
CABS basis                                  ... NOT available
Auxiliary Coulomb fitting basis             ... AVAILABLE
   # of basis functions in Aux-J            ...    524
   # of shells in Aux-J                     ...    180
   Maximum angular momentum in Aux-J        ...      4
Auxiliary J/K fitting basis                 ... NOT available
Auxiliary Correlation fitting basis         ... NOT available
Auxiliary 'external' fitting basis          ... NOT available

Checking pre-screening integrals            ... done (  0.0 sec) Dimension = 72
Check shell pair data                       ... done (  0.0 sec)
Shell pair information
Shell pair cut-off parameter TPreSel        ...   1.0e-10
Total number of shell pairs                 ...      2628
Shell pairs after pre-screening             ...      2319
Total number of primitive shell pairs       ...     10580
Primitive shell pairs kept                  ...      6420
          la=0 lb=0:   1025 shell pairs
          la=1 lb=0:    702 shell pairs
          la=1 lb=1:    131 shell pairs
          la=2 lb=0:    319 shell pairs
          la=2 lb=1:    114 shell pairs
          la=2 lb=2:     28 shell pairs

Calculating one electron integrals          ... done (  0.0 sec)
Calculating RI/J V-Matrix + Cholesky decomp.... done (  0.1 sec)
Calculating Nuclear repulsion               ... done (  0.0 sec) ENN=    380.152717597429 Eh

Diagonalization of the overlap matrix:
Smallest eigenvalue                        ... 1.167e-03
Time for diagonalization                   ...    0.002 sec
Threshold for overlap eigenvalues          ... 1.000e-07
Number of eigenvalues below threshold      ... 0
Time for construction of square roots      ...    0.016 sec
Total time needed                          ...    0.026 sec

-------------------
DFT GRID GENERATION
-------------------

General Integration Accuracy     IntAcc      ... 4.159
Radial Grid Type                 RadialGrid  ... OptM3 with GC (2021)
Angular Grid (max. ang.)         AngularGrid ... 3 (Lebedev-194)
Angular grid pruning method      GridPruning ... 4 (adaptive)
Weight generation scheme         WeightScheme... mBecke (2022)
Basis function cutoff            BFCut       ... 1.0000e-10
Integration weight cutoff        WCut        ... 1.0000e-14
Partially contracted basis set               ... off
Rotationally invariant grid construction     ... off
Angular grids for H and He will be reduced by one unit

Total number of grid points                  ...    43059
Total number of batches                      ...      684
Average number of points per batch           ...       62
Average number of grid points per atom       ...     2153
Initializing property integral containers    ... done (  0.0 sec)

SHARK setup successfully completed in   0.7 seconds

Maximum memory used throughout the entire STARTUP-calculation: 21.0 MB
-------------------------------------------------------------------------------
                                 ORCA GUESS
                   Start orbitals & Density for SCF / CASSCF
-------------------------------------------------------------------------------

------------
SCF SETTINGS
------------
Hamiltonian:
 Density Functional     Method          .... DFT(GTOs)
 Exchange Functional    Exchange        .... PBE
   PBE kappa parameter   XKappa         ....  0.804000
   PBE mue parameter    XMuePBE         ....  0.219520
 Correlation Functional Correlation     .... PBE
   PBE beta parameter  CBetaPBE         ....  0.066725
 LDA part of GGA corr.  LDAOpt          .... PW91-LDA
 Gradients option       PostSCFGGA      .... off
   NL short-range parameter             ....  6.400000
 RI-approximation to the Coulomb term is turned on
   Number of AuxJ basis functions       .... 524


General Settings:
 Integral files         IntName         .... sp
 Hartree-Fock type      HFTyp           .... RHF
 Total Charge           Charge          ....    0
 Multiplicity           Mult            ....    1
 Number of Electrons    NEL             ....   64
 Basis Dimension        Dim             ....  136
 Nuclear Repulsion      ENuc            ....    380.1527175974 Eh

Convergence Acceleration:
 AO-DIIS                CNVDIIS         .... on
   Start iteration      DIISMaxIt       ....    12
   Startup error        DIISStart       ....  0.200000
   # of expansion vecs  DIISMaxEq       ....     5
   Bias factor          DIISBfac        ....   1.050
   Max. coefficient     DIISMaxC        ....  10.000
 MO-DIIS                CNVKDIIS        .... off
 Trust-Rad. Augm. Hess. CNVTRAH         .... auto
   Auto Start mean grad. ratio tolernc. ....  1.125000
   Auto Start start iteration           ....    50
   Auto Start num. interpolation iter.  ....    10
   Max. Number of Micro iterations      ....    24
   Max. Number of Macro iterations      .... Maxiter - #DIIS iter
   Number of Davidson start vectors     ....     2
   Converg. threshold    (grad. norm)   ....   1.000e-04
   Grad. Scal. Fac. for Micro threshold ....   0.100
   Minimum threshold for Micro iter.    ....   1.000e-02
   NR start threshold (gradient norm)   ....   1.000e-04
   Initial trust radius                 ....   0.400
   Minimum AH scaling param. (alpha)    ....   1.000
   Maximum AH scaling param. (alpha)    .... 1000.000
   Quad. conv. algorithm                .... NR
   White noise on init. David. guess    .... on
   Maximum white noise                  ....   0.010
   Pseudo random numbers                .... off
   Inactive MOs                         .... canonical
   Orbital update algorithm             .... Taylor
   Preconditioner                       .... Diag
   Full preconditioner red. dimension   ....   250
 SOSCF                  CNVSOSCF        .... on
   Start iteration      SOSCFMaxIt      ....   150
   Startup grad/error   SOSCFStart      ....  0.003300
   Hessian update       SOSCFHessUp     .... L-BFGS
 Level Shifting         CNVShift        .... on
   Level shift para.    LevelShift      ....    0.2500
   Turn off err/grad.   ShiftErr        ....    0.0010
 Zerner damping         CNVZerner       .... off
 Static damping         CNVDamp         .... on
   Fraction old density DampFac         ....    0.7000
   Max. Damping (<1)    DampMax         ....    0.9800
   Min. Damping (>=0)   DampMin         ....    0.0000
   Turn off err/grad.   DampErr         ....    0.1000

SCF Procedure:
 Maximum # iterations   MaxIter         ....   125
 SCF integral mode      SCFMode         .... Direct
   Integral package                     .... SHARK and LIBINT hybrid scheme
 Reset frequency        DirectResetFreq ....    20
 Integral Threshold     Thresh          ....  1.000e-09 Eh
 Primitive CutOff       TCut            ....  1.000e-10 Eh

Convergence Tolerance:
 Convergence Check Mode ConvCheckMode   .... Total+1el-Energy
 Convergence forced     ConvForced      .... 0
 Energy Change          TolE            ....  1.000e-05 Eh
 1-El. energy change                    ....  1.000e-02 Eh
 Orbital Gradient       TolG            ....  1.000e-04
 Orbital Rotation angle TolX            ....  1.000e-04
 DIIS Error             TolErr          ....  5.000e-04

------------------------------
INITIAL GUESS: MODEL POTENTIAL
------------------------------
Loading Hartree-Fock densities                     ... done
Calculating cut-offs                               ... done
Initializing the effective Hamiltonian             ... done
Setting up the integral package (SHARK)            ... done
Starting the Coulomb interaction                   ... done (   0.1 sec)
Making the grid                                    ... done (   0.2 sec)
Mapping shells                                     ... done
Starting the XC term evaluation                    ... done (   0.1 sec)
  promolecular density results
     # of electrons  =     63.992518652
     EX              =    -50.543819450
     EC              =     -2.106752764
     EX+EC           =    -52.650572215
Transforming the Hamiltonian                       ... done (   0.0 sec)
Diagonalizing the Hamiltonian                      ... done (   0.0 sec)
Back transforming the eigenvectors                 ... done (   0.0 sec)
Now organizing SCF variables                       ... done
                      ------------------
                      INITIAL GUESS DONE (   0.5 sec)
                      ------------------
             **** ENERGY FILE WAS UPDATED (sp.en.tmp) ****
Finished Guess after   0.7 sec
Maximum memory used throughout the entire GUESS-calculation: 16.0 MB

-------------------------------------------------------------------------------------------
                                      ORCA LEAN-SCF
                              memory conserving SCF solver
-------------------------------------------------------------------------------------------

----------------------------------------D-I-I-S--------------------------------------------
Iteration    Energy (Eh)           Delta-E    RMSDP     MaxDP     DIISErr   Damp  Time(sec)
-------------------------------------------------------------------------------------------
               ***  Starting incremental Fock matrix formation  ***
    1    -385.2858820593318683     0.00e+00  5.20e-03  1.22e-01  2.45e-01  0.700   0.8
    2    -385.4083040285126458    -1.22e-01  3.23e-03  7.02e-02  7.35e-02  0.700   0.8
                               ***Turning on AO-DIIS***
    3    -385.4456641665807979    -3.74e-02  1.28e-03  1.45e-02  2.43e-02  0.700   0.7
    4    -385.4702618222002570    -2.46e-02  1.81e-03  2.31e-02  1.64e-02  0.000   0.8
    5    -385.5273945114126377    -5.71e-02  5.87e-04  9.31e-03  8.69e-03  0.000   0.8
    6    -385.5281393214611967    -7.45e-04  2.21e-04  2.82e-03  3.32e-03  0.000   0.7
                              *** Initializing SOSCF ***
---------------------------------------S-O-S-C-F--------------------------------------
Iteration    Energy (Eh)           Delta-E    RMSDP     MaxDP     MaxGrad    Time(sec)
--------------------------------------------------------------------------------------
    7    -385.5281960617582513    -5.67e-05  7.57e-05  1.08e-03  1.37e-03     0.7
               *** Restarting incremental Fock matrix formation ***
    8    -385.5282035814311143    -7.52e-06  5.24e-05  7.25e-04  1.18e-04     0.8
    9    -385.5282028348978542     7.47e-07  2.38e-05  5.55e-04  3.67e-04     0.7
                 **** Energy Check signals convergence ****

               *****************************************************
               *                     SUCCESS                       *
               *           SCF CONVERGED AFTER   9 CYCLES          *
               *****************************************************

             **** ENERGY FILE WAS UPDATED (sp.en.tmp) ****

----------------
TOTAL SCF ENERGY
----------------

Total Energy       :       -385.52820283489785 Eh          -10490.75574 eV

Components:
Nuclear Repulsion  :        380.15271759742910 Eh           10344.48135 eV
Electronic Energy  :       -765.68092043232696 Eh          -20835.23709 eV
One Electron Energy:      -1276.84716103663527 Eh          -34744.77764 eV
Two Electron Energy:        511.16624060430837 Eh           13909.54055 eV

Virial components:
Potential Energy   :       -767.92405843725123 Eh          -20896.27598 eV
Kinetic Energy     :        382.39585560235344 Eh           10405.52024 eV
Virial Ratio       :          2.00819137338089

DFT components:
N(Alpha)           :       31.999639367046 electrons
N(Beta)            :       31.999639367046 electrons
N(Total)           :       63.999278734092 electrons
E(X)               :      -51.601464014332 Eh       
E(C)               :       -2.123509378462 Eh       
E(XC)              :      -53.724973392794 Eh       

---------------
SCF CONVERGENCE
---------------

  Last Energy change         ...   -7.4653e-07  Tolerance :   1.0000e-05
  Last MAX-Density change    ...    5.5531e-04  Tolerance :   1.0000e-03
  Last RMS-Density change    ...    2.3847e-05  Tolerance :   1.0000e-04
  Last DIIS Error            ...    1.3746e-03  Tolerance :   5.0000e-04
  Last Orbital Gradient      ...    3.6674e-04  Tolerance :   1.0000e-04
  Last Orbital Rotation      ...    5.7850e-04  Tolerance :   1.0000e-04


----------------
ORBITAL ENERGIES
----------------

  NO   OCC          E(Eh)            E(eV) 
   0   2.0000     -18.796832      -511.4878 
   1   2.0000     -18.734572      -509.7936 
   2   2.0000     -10.003478      -272.2085 
   3   2.0000      -9.937807      -270.4215 
   4   2.0000      -9.895750      -269.2771 
   5   2.0000      -9.884939      -268.9829 
   6   2.0000      -9.884315      -268.9659 
   7   2.0000      -9.873232      -268.6643 
   8   2.0000      -1.002485       -27.2790 
   9   2.0000      -0.909355       -24.7448 
  10   2.0000      -0.728207       -19.8155 
  11   2.0000      -0.686092       -18.6695 
  12   2.0000      -0.645735       -17.5714 
  13   2.0000      -0.575633       -15.6638 
  14   2.0000      -0.519970       -14.1491 
  15   2.0000      -0.499287       -13.5863 
  16   2.0000      -0.444330       -12.0908 
  17   2.0000      -0.443381       -12.0650 
  18   2.0000      -0.422282       -11.4909 
  19   2.0000      -0.411199       -11.1893 
  20   2.0000      -0.386606       -10.5201 
  21   2.0000      -0.377223       -10.2648 
  22   2.0000      -0.369973       -10.0675 
  23   2.0000      -0.344093        -9.3632 
  24   2.0000      -0.335483        -9.1289 
  25   2.0000      -0.309709        -8.4276 
  26   2.0000      -0.301387        -8.2012 
  27   2.0000      -0.295289        -8.0352 
  28   2.0000      -0.285945        -7.7810 
  29   2.0000      -0.284923        -7.7531 
  30   2.0000      -0.254825        -6.9341 
  31   2.0000      -0.220782        -6.0078 
  32   0.0000      -0.016631        -0.4526 
  33   0.0000       0.037798         1.0285 
  34   0.0000       0.055828         1.5192 
  35   0.0000       0.067871         1.8469 
  36   0.0000       0.072361         1.9690 
  37   0.0000       0.082871         2.2550 
  38   0.0000       0.093789         2.5521 
  39   0.0000       0.106631         2.9016 
  40   0.0000       0.115155         3.1335 
  41   0.0000       0.122579         3.3355 
  42   0.0000       0.128526         3.4974 
*Only the first 10 virtual orbitals were printed.

                    ********************************
                    * MULLIKEN POPULATION ANALYSIS *
                    ********************************

-----------------------
MULLIKEN ATOMIC CHARGES
-----------------------
   0 C :   -0.255122
   1 C :   -0.175607
   2 C :   -0.202387
   3 C :   -0.152370
   4 C :    0.122342
   5 O :   -0.203108
   6 O :   -0.243695
   7 C :   -0.130146
   8 H :    0.097880
   9 H :    0.098962
  10 H :    0.101197
  11 H :    0.081536
  12 H :    0.081645
  13 H :    0.089130
  14 H :    0.100059
  15 H :    0.110950
  16 H :    0.102694
  17 H :    0.133017
  18 H :    0.121640
  19 H :    0.121384
Sum of atomic charges:   -0.0000000

--------------------------------
MULLIKEN REDUCED ORBITAL CHARGES
--------------------------------
  0 C s       :     3.077459  s :     3.077459
      pz      :     1.055236  p :     3.148249
      px      :     1.034035
      py      :     1.058978
      dz2     :     0.009181  d :     0.029414
      dxz     :     0.005005
      dyz     :     0.002189
      dx2y2   :     0.009161
      dxy     :     0.003878

  1 C s       :     3.055554  s :     3.055554
      pz      :     1.048650  p :     3.082863
      px      :     0.989989
      py      :     1.044224
      dz2     :     0.011621  d :     0.037190
      dxz     :     0.006180
      dyz     :     0.002464
      dx2y2   :     0.011498
      dxy     :     0.005427

  2 C s       :     3.092283  s :     3.092283
      pz      :     1.060827  p :     3.073979
      px      :     0.964342
      py      :     1.048810
      dz2     :     0.010913  d :     0.036125
      dxz     :     0.006339
      dyz     :     0.002623
      dx2y2   :     0.010826
      dxy     :     0.005423

  3 C s       :     2.994062  s :     2.994062
      pz      :     1.067358  p :     3.124750
      px      :     0.980281
      py      :     1.077110
      dz2     :     0.009672  d :     0.033558
      dxz     :     0.006322
      dyz     :     0.002668
      dx2y2   :     0.010394
      dxy     :     0.004502

  4 C s       :     3.043552  s :     3.043552
      pz      :     0.905432  p :     2.703306
      px      :     0.933707
      py      :     0.864167
      dz2     :     0.029554  d :     0.130800
      dxz     :     0.051635
      dyz     :     0.023585
      dx2y2   :     0.011510
      dxy     :     0.014516

  5 O s       :     3.748252  s :     3.748252
      pz      :     1.325465  p :     4.437276
      px      :     1.718628
      py      :     1.393183
      dz2     :     0.007186  d :     0.017580
      dxz     :     0.003668
      dyz     :     0.005627
      dx2y2   :     0.000664
      dxy     :     0.000434

  6 O s       :     3.729695  s :     3.729695
      pz      :     1.608143  p :     4.497852
      px      :     1.183466
      py      :     1.706242
      dz2     :     0.002762  d :     0.016148
      dxz     :     0.005967
      dyz     :     0.002145
      dx2y2   :     0.002423
      dxy     :     0.002850

  7 C s       :     3.131372  s :     3.131372
      pz      :     1.088377  p :     2.948168
      px      :     0.783185
      py      :     1.076606
      dz2     :     0.010981  d :     0.050606
      dxz     :     0.009765
      dyz     :     0.004325
      dx2y2   :     0.011488
      dxy     :     0.014047

  8 H s       :     0.902120  s :     0.902120

  9 H s       :     0.901038  s :     0.901038

 10 H s       :     0.898803  s :     0.898803

 11 H s       :     0.918464  s :     0.918464

 12 H s       :     0.918355  s :     0.918355

 13 H s       :     0.910870  s :     0.910870

 14 H s       :     0.899941  s :     0.899941

 15 H s       :     0.889050  s :     0.889050

 16 H s       :     0.897306  s :     0.897306

 17 H s       :     0.866983  s :     0.866983

 18 H s       :     0.878360  s :     0.878360

 19 H s       :     0.878616  s :     0.878616


------------------------
MULLIKEN OVERLAP CHARGES
------------------------
B(  0-C ,  1-C ) :   0.9085 B(  0-C ,  2-C ) :  -0.1205 B(  0-C ,  8-H ) :   0.7568 
B(  0-C ,  9-H ) :   0.7552 B(  0-C , 10-H ) :   0.7346 B(  1-C ,  2-C ) :   0.8502 
B(  1-C ,  3-C ) :  -0.0945 B(  1-C , 11-H ) :   0.7043 B(  1-C , 12-H ) :   0.7091 
B(  1-C , 13-H ) :  -0.0562 B(  2-C ,  3-C ) :   0.6248 B(  2-C , 13-H ) :   0.7327 
B(  2-C , 14-H ) :   0.6952 B(  3-C ,  4-C ) :   0.3726 B(  3-C ,  5-O ) :  -0.2566 
B(  3-C ,  6-O ) :  -0.2880 B(  3-C , 13-H ) :  -0.0622 B(  3-C , 15-H ) :   0.5859 
B(  3-C , 16-H ) :   0.6031 B(  4-C ,  5-O ) :   1.4129 B(  4-C ,  6-O ) :   0.7730 
B(  4-C ,  7-C ) :  -0.0804 B(  5-O ,  6-O ) :  -0.1604 B(  5-O , 17-H ) :   0.0815 
B(  6-O ,  7-C ) :   0.5536 B(  6-O , 17-H ) :  -0.0682 B(  6-O , 18-H ) :  -0.0559 
B(  6-O , 19-H ) :  -0.0558 B(  7-C , 17-H ) :   0.7210 B(  7-C , 18-H ) :   0.7699 
B(  7-C , 19-H ) :   0.7790 B(  8-H ,  9-H ) :  -0.0522 B( 11-H , 12-H ) :  -0.0712 
B( 13-H , 14-H ) :  -0.0650 B( 18-H , 19-H ) :  -0.0559 


                     *******************************
                     * LOEWDIN POPULATION ANALYSIS *
                     *******************************

----------------------
LOEWDIN ATOMIC CHARGES
----------------------
   0 C :   -0.339023
   1 C :   -0.233615
   2 C :   -0.223300
   3 C :   -0.248594
   4 C :    0.038368
   5 O :   -0.168087
   6 O :   -0.078646
   7 C :   -0.209033
   8 H :    0.117447
   9 H :    0.118053
  10 H :    0.118387
  11 H :    0.113115
  12 H :    0.113596
  13 H :    0.118798
  14 H :    0.123011
  15 H :    0.142425
  16 H :    0.133274
  17 H :    0.123912
  18 H :    0.120233
  19 H :    0.119680

-------------------------------
LOEWDIN REDUCED ORBITAL CHARGES
-------------------------------
  0 C s       :     2.944853  s :     2.944853
      pz      :     1.116676  p :     3.323182
      px      :     1.086988
      py      :     1.119518
      dz2     :     0.021375  d :     0.070988
      dxz     :     0.012645
      dyz     :     0.005537
      dx2y2   :     0.022128
      dxy     :     0.009303

  1 C s       :     2.906488  s :     2.906488
      pz      :     1.092654  p :     3.237870
      px      :     1.049859
      py      :     1.095357
      dz2     :     0.026633  d :     0.089257
      dxz     :     0.016295
      dyz     :     0.005843
      dx2y2   :     0.027425
      dxy     :     0.013060

  2 C s       :     2.908719  s :     2.908719
      pz      :     1.100018  p :     3.226819
      px      :     1.027956
      py      :     1.098845
      dz2     :     0.025184  d :     0.087762
      dxz     :     0.016571
      dyz     :     0.006239
      dx2y2   :     0.026742
      dxy     :     0.013025

  3 C s       :     2.914956  s :     2.914956
      pz      :     1.097332  p :     3.248809
      px      :     1.047797
      py      :     1.103680
      dz2     :     0.022939  d :     0.084830
      dxz     :     0.018149
      dyz     :     0.006568
      dx2y2   :     0.025865
      dxy     :     0.011309

  4 C s       :     2.846481  s :     2.846481
      pz      :     1.000112  p :     2.817748
      px      :     0.960558
      py      :     0.857077
      dz2     :     0.069512  d :     0.297404
      dxz     :     0.123786
      dyz     :     0.049773
      dx2y2   :     0.024717
      dxy     :     0.029616

  5 O s       :     3.550006  s :     3.550006
      pz      :     1.455294  p :     4.587048
      px      :     1.725451
      py      :     1.406303
      dz2     :     0.014498  d :     0.031033
      dxz     :     0.005873
      dyz     :     0.009114
      dx2y2   :     0.000866
      dxy     :     0.000681

  6 O s       :     3.449750  s :     3.449750
      pz      :     1.647556  p :     4.596051
      px      :     1.259133
      py      :     1.689362
      dz2     :     0.004670  d :     0.032845
      dxz     :     0.013526
      dyz     :     0.002566
      dx2y2   :     0.006764
      dxy     :     0.005319

  7 C s       :     2.966704  s :     2.966704
      pz      :     1.139277  p :     3.130393
      px      :     0.859748
      py      :     1.131369
      dz2     :     0.026071  d :     0.111936
      dxz     :     0.020280
      dyz     :     0.009523
      dx2y2   :     0.024086
      dxy     :     0.031976

  8 H s       :     0.882553  s :     0.882553

  9 H s       :     0.881947  s :     0.881947

 10 H s       :     0.881613  s :     0.881613

 11 H s       :     0.886885  s :     0.886885

 12 H s       :     0.886404  s :     0.886404

 13 H s       :     0.881202  s :     0.881202

 14 H s       :     0.876989  s :     0.876989

 15 H s       :     0.857575  s :     0.857575

 16 H s       :     0.866726  s :     0.866726

 17 H s       :     0.876088  s :     0.876088

 18 H s       :     0.879767  s :     0.879767

 19 H s       :     0.880320  s :     0.880320


---------------------------------
LOEWDIN BOND ORDERS (THRESH 0.050000)
---------------------------------
B(  0-C ,  1-C ) :   1.1309 B(  0-C ,  2-C ) :   0.0576 B(  0-C ,  8-H ) :   0.9410 
B(  0-C ,  9-H ) :   0.9409 B(  0-C , 10-H ) :   0.9395 B(  1-C ,  2-C ) :   1.0933 
B(  1-C ,  3-C ) :   0.0585 B(  1-C , 11-H ) :   0.9077 B(  1-C , 12-H ) :   0.9076 
B(  2-C ,  3-C ) :   1.0798 B(  2-C ,  4-C ) :   0.0610 B(  2-C , 13-H ) :   0.9050 
B(  2-C , 14-H ) :   0.9005 B(  3-C ,  4-C ) :   1.0592 B(  3-C ,  5-O ) :   0.0930 
B(  3-C ,  6-O ) :   0.0761 B(  3-C , 15-H ) :   0.8795 B(  3-C , 16-H ) :   0.8913 
B(  4-C ,  5-O ) :   2.2009 B(  4-C ,  6-O ) :   1.4013 B(  4-C ,  7-C ) :   0.0760 
B(  5-O ,  6-O ) :   0.2095 B(  6-O ,  7-C ) :   1.1038 B(  7-C , 17-H ) :   0.9333 
B(  7-C , 18-H ) :   0.9526 B(  7-C , 19-H ) :   0.9515 

------------------------------------------
LOEWDIN REDUCED ORBITAL POPULATIONS PER MO
-------------------------------------------
THRESHOLD FOR PRINTING IS 0.1%%
                      0         1         2         3         4         5   
                 -18.79683 -18.73457 -10.00348  -9.93781  -9.89575  -9.88494
                   2.00000   2.00000   2.00000   2.00000   2.00000   2.00000
                  --------  --------  --------  --------  --------  --------
 1 C  s               0.0       0.0       0.0       0.0       0.0      99.5
 2 C  s               0.0       0.0       0.0       0.0       0.0       0.1
 3 C  s               0.0       0.0       0.0       0.0      99.6       0.0
 4 C  s               0.0       0.0      99.3       0.0       0.0       0.0
 5 O  s               0.0      99.9       0.0       0.0       0.0       0.0
 5 O  pz              0.0       0.0       0.3       0.0       0.0       0.0
 6 O  s              99.9       0.0       0.0       0.0       0.0       0.0
 6 O  px              0.0       0.0       0.1       0.1       0.0       0.0
 7 C  s               0.0       0.0       0.0      99.7       0.0       0.0

                      6         7         8         9        10        11   
                  -9.88432  -9.87323  -1.00249  -0.90935  -0.72821  -0.68609
                   2.00000   2.00000   2.00000   2.00000   2.00000   2.00000
                  --------  --------  --------  --------  --------  --------
 0 C  s               0.0      99.7       0.0       0.0       5.3      10.3
 0 C  pz              0.0       0.0       0.0       0.0       0.2       0.2
 0 C  px              0.0       0.0       0.0       0.0       1.3       0.8
 0 C  py              0.0       0.0       0.0       0.0       0.1       0.1
 1 C  s               0.1       0.0       0.0       0.0      14.4      11.3
 1 C  pz              0.0       0.0       0.0       0.0       0.5       0.3
 1 C  px              0.1       0.1       0.0       0.0       0.8       0.7
 1 C  py              0.0       0.0       0.0       0.0       0.4       0.2
 2 C  s              99.5       0.0       0.1       0.1      20.1       0.9
 2 C  pz              0.0       0.0       0.0       0.0       1.0       0.0
 2 C  px              0.0       0.0       0.1       0.1       0.0       4.4
 2 C  py              0.0       0.0       0.0       0.0       0.6       0.0
 3 C  s               0.0       0.0       1.0       0.3      17.3       6.4
 3 C  pz              0.0       0.0       0.2       0.5       0.4       0.0
 3 C  px              0.1       0.0       1.5       0.1       0.8       2.8
 3 C  py              0.0       0.0       0.1       0.1       0.2       0.0
 4 C  s               0.0       0.0      18.7       4.9       1.8       4.6
 4 C  pz              0.0       0.0       0.1      20.8       2.6       5.2
 4 C  px              0.0       0.0       5.0       1.9       3.6       1.3
 4 C  py              0.0       0.0       0.1       1.6       0.5       0.8
 4 C  dz2             0.0       0.0       0.3       1.0       0.0       0.0
 4 C  dxz             0.0       0.0       0.4       0.4       0.0       0.0
 4 C  dyz             0.0       0.0       0.2       0.3       0.0       0.0
 4 C  dx2y2           0.0       0.0       0.3       0.2       0.0       0.0
 5 O  s               0.0       0.0      11.6      41.4       1.0       1.2
 5 O  pz              0.0       0.0       2.5       3.8       0.1       0.2
 5 O  py              0.0       0.0       0.2       0.4       0.0       0.0
 5 O  dz2             0.0       0.0       0.1       0.1       0.0       0.0
 6 O  s               0.0       0.0      41.3      16.0       0.0       0.0
 6 O  pz              0.0       0.0       2.7       0.2       0.0       0.0
 6 O  px              0.0       0.0       0.2       0.5       2.2      14.1
 6 O  py              0.0       0.0       0.2       0.0       0.0       0.2
 6 O  dxz             0.0       0.0       0.0       0.0       0.0       0.1
 7 C  s               0.0       0.0       4.7       2.3       1.3      11.7
 7 C  pz              0.0       0.0       0.3       0.4       0.0       0.1
 7 C  px              0.0       0.0       5.0       1.3       0.1       0.2
 7 C  py              0.0       0.0       0.2       0.1       0.0       0.0
 7 C  dxz             0.0       0.0       0.1       0.1       0.0       0.0
 7 C  dx2y2           0.0       0.0       0.3       0.1       0.0       0.0
 8 H  s               0.0       0.1       0.0       0.0       1.0       2.1
 9 H  s               0.0       0.1       0.0       0.0       1.0       2.1
10 H  s               0.0       0.1       0.0       0.0       0.9       2.0
11 H  s               0.0       0.0       0.0       0.0       2.7       2.1
12 H  s               0.0       0.0       0.0       0.0       2.7       2.1
13 H  s               0.1       0.0       0.0       0.0       3.6       0.2
14 H  s               0.1       0.0       0.0       0.0       3.5       0.2
15 H  s               0.0       0.0       0.1       0.0       3.4       1.4
16 H  s               0.0       0.0       0.2       0.0       3.3       1.5
17 H  s               0.0       0.0       0.9       0.1       0.3       2.3
18 H  s               0.0       0.0       0.5       0.3       0.2       2.7
19 H  s               0.0       0.0       0.5       0.3       0.2       2.6

                     12        13        14        15        16        17   
                  -0.64574  -0.57563  -0.51997  -0.49929  -0.44433  -0.44338
                   2.00000   2.00000   2.00000   2.00000   2.00000   2.00000
                  --------  --------  --------  --------  --------  --------
 0 C  s              11.8      14.4       4.5       0.0       0.3       0.0
 0 C  pz              0.1       0.2       2.8       0.2       0.8       0.4
 0 C  px              0.0       2.1       2.3       0.0       0.9       0.2
 0 C  py              0.0       0.1       1.9       0.2       0.2       0.9
 1 C  s               2.9       2.5      12.0       0.4       1.0       0.1
 1 C  pz              0.1       0.1       5.3       1.2       0.2       2.7
 1 C  px              4.7       7.9       0.0       0.3       1.1       0.0
 1 C  py              0.1       0.0       3.6       1.0       0.0       2.2
 1 C  dxz             0.1       0.2       0.0       0.0       0.0       0.0
 1 C  dxy             0.0       0.1       0.0       0.0       0.0       0.0
 2 C  s               4.4       9.4       6.3       2.6       0.1       0.0
 2 C  pz              0.1       0.1       4.0       1.8       1.1       6.7
 2 C  px              3.6       2.5       2.2       0.5       0.0       0.2
 2 C  py              0.1       0.1       2.7       1.9       2.4       3.4
 3 C  s               7.8       6.4       0.1       2.6       1.5       0.4
 3 C  pz              0.2       0.4       1.7       1.3       4.3      10.1
 3 C  px              1.4       5.2       1.5       0.4       8.6       1.3
 3 C  py              0.0       0.5       1.3       2.0       7.2       6.4
 3 C  dxz             0.0       0.1       0.1       0.0       0.2       0.0
 3 C  dx2y2           0.0       0.0       0.0       0.1       0.1       0.0
 4 C  s               0.6       1.4       0.7       2.4       2.2       0.5
 4 C  pz              0.6       0.8       0.4       1.9       1.2       1.0
 4 C  px              4.3       4.6       0.1       2.3      12.5       0.5
 4 C  py              0.0       0.6       0.3       0.1       0.8      12.5
 4 C  dxz             0.3       0.2       0.0       0.1       0.0       0.0
 5 O  s               0.0       0.2       0.0       1.6       0.3       0.5
 5 O  pz              0.1       0.1       0.1       1.1       0.9       0.0
 5 O  px              0.2       0.2       0.2       0.6       7.7       0.5
 5 O  py              0.0       0.0       0.0       0.0       0.1       4.7
 5 O  dxz             0.0       0.0       0.0       0.0       0.1       0.0
 6 O  s               0.7       1.4       1.2       3.7       0.7       0.0
 6 O  pz              0.3       0.1       0.6       6.2      12.5       0.4
 6 O  px             11.4       0.0       2.4      17.2       0.0       0.2
 6 O  py              0.1       0.0       0.0       0.2       0.3      13.6
 6 O  dz2             0.0       0.0       0.0       0.0       0.1       0.0
 6 O  dxz             0.1       0.0       0.0       0.1       0.0       0.0
 7 C  s              16.6       5.1       1.7       4.5       0.1       0.0
 7 C  pz              0.1       0.1       1.1       7.6      11.0       0.0
 7 C  px              0.4       1.8       2.3       8.7       1.9       0.5
 7 C  py              0.0       0.0       0.2       1.8       0.2       9.6
 7 C  dxz             0.0       0.0       0.1       0.4       0.0       0.0
 7 C  dx2y2           0.0       0.1       0.1       0.2       0.0       0.0
 8 H  s               2.6       4.3       3.2       0.0       0.3       0.5
 9 H  s               2.6       4.3       3.1       0.0       0.5       0.2
10 H  s               2.8       5.3       1.6       0.1       0.2       0.1
11 H  s               0.6       0.7       7.2       0.6       0.7       1.1
12 H  s               0.6       0.7       7.3       0.7       0.2       1.1
13 H  s               0.9       2.7       4.5       2.4       0.5       1.1
14 H  s               0.9       2.5       4.3       1.7       0.0       3.1
15 H  s               1.8       2.3       0.5       2.8       5.8       1.3
16 H  s               1.5       2.1       0.4       1.7       1.7       6.8
17 H  s               3.5       1.6       1.7       7.4       3.6       0.0
18 H  s               4.7       2.2       0.9       1.8       0.9       2.8
19 H  s               4.4       2.1       1.0       3.2       2.3       2.0

                     18        19        20        21        22        23   
                  -0.42228  -0.41120  -0.38661  -0.37722  -0.36997  -0.34409
                   2.00000   2.00000   2.00000   2.00000   2.00000   2.00000
                  --------  --------  --------  --------  --------  --------
 0 C  pz              1.8       2.6       0.7      12.4       0.0       0.0
 0 C  px              0.1       0.4       3.7      10.7       8.4       0.5
 0 C  py              3.9       0.1      12.5       0.0       0.6      15.1
 0 C  dx2y2           0.0       0.0       0.0       0.0       0.0       0.2
 1 C  s               0.0       0.0       0.0       0.1       0.4       0.0
 1 C  pz              3.8       4.0       0.2       9.8       1.9       0.2
 1 C  px              0.0       0.7       0.5       1.3       3.6       1.3
 1 C  py              9.4       0.2      12.2       0.3       0.5       0.1
 2 C  s               0.0       0.1       0.0       0.4       0.4       0.1
 2 C  pz              3.4       0.7       0.0       0.8       2.9       0.2
 2 C  px              0.2       2.3       3.9       7.1       0.7       0.1
 2 C  py              8.1       0.6       0.0       0.0       2.8      10.8
 2 C  dxz             0.0       0.0       0.1       0.0       0.0       0.0
 2 C  dx2y2           0.0       0.0       0.0       0.0       0.0       0.1
 3 C  s               0.0       0.0       0.0       0.0       0.2       0.0
 3 C  pz              2.5       4.5       0.9       6.9       0.1       3.1
 3 C  px              0.2       0.0       0.7       0.8       9.6       0.2
 3 C  py              1.4       1.7      12.7       0.3       0.4       0.0
 3 C  dxy             0.0       0.0       0.0       0.0       0.0       0.1
 4 C  s               0.1       2.2       0.1       0.8       0.4       0.0
 4 C  pz              0.0       2.5       0.6       1.8       1.8       2.0
 4 C  px              0.0       0.9       0.0       0.0       4.9       1.0
 4 C  py              2.3       0.1       4.3       1.3       0.5      10.1
 4 C  dz2             0.0       0.4       0.0       0.0       0.1       0.1
 4 C  dxz             0.0       0.1       0.0       0.1       0.1       0.1
 4 C  dxy             0.1       0.0       0.1       0.0       0.0       0.0
 5 O  s               0.8      11.9       0.1       3.0       2.0       0.1
 5 O  pz              1.6      20.0       0.0      13.0      10.0       0.0
 5 O  px              0.0       0.3       0.0       0.0       0.3       0.8
 5 O  py              0.3       2.4       3.0       0.2       0.8      14.0
 5 O  dz2             0.0       0.2       0.0       0.1       0.1       0.0
 6 O  s               0.1       1.2       0.0       0.4       0.0       0.0
 6 O  pz              0.0      11.2       0.1       0.2       0.2       0.4
 6 O  px              0.0       6.5       0.0       1.0       2.6       0.1
 6 O  py             14.2       0.6       0.4       0.1       0.1       2.7
 6 O  dxz             0.0       0.0       0.0       0.0       0.1       0.0
 7 C  s               0.0       0.1       0.0       0.0       0.0       0.0
 7 C  pz              0.2       2.8       1.9       0.8      13.0       2.3
 7 C  px              1.8       7.3       0.1       0.0       9.1       0.0
 7 C  py             17.0       0.3      10.3       2.1       0.4       6.1
 7 C  dz2             0.0       0.0       0.0       0.0       0.2       0.0
 7 C  dyz             0.1       0.0       0.1       0.0       0.0       0.1
 7 C  dx2y2           0.0       0.1       0.0       0.0       0.1       0.0
 7 C  dxy             0.0       0.0       0.1       0.0       0.1       0.2
 8 H  s               1.4       0.1       5.0       0.0       0.5       8.0
 9 H  s               1.3       1.0       1.5       4.4       0.0       0.6
10 H  s               0.1       0.5       2.8       8.8       2.7       2.0
11 H  s               2.6       1.9       0.8       2.8       0.1       0.2
12 H  s               3.6       0.0       4.6       0.0       0.0       0.0
13 H  s               3.1       0.1       0.0       0.1       0.5       6.4
14 H  s               1.9       0.7       0.0       1.1       0.3       0.4
15 H  s               0.7       0.6       5.5       0.1       0.1       0.0
16 H  s               1.2       1.2       1.7       3.8       0.3       1.7
17 H  s               0.0       0.5       0.5       0.8       7.6       0.9
18 H  s               6.2       1.6       2.8       0.9       5.8       1.9
19 H  s               3.9       2.3       5.1       0.4       2.1       4.9

                     24        25        26        27        28        29   
                  -0.33548  -0.30971  -0.30139  -0.29529  -0.28594  -0.28492
                   2.00000   2.00000   2.00000   2.00000   2.00000   2.00000
                  --------  --------  --------  --------  --------  --------
 0 C  s               0.0       0.0       0.1       0.5       0.0       0.1
 0 C  pz             18.1       5.5       0.0       6.2       3.3       0.2
 0 C  px              0.7       0.6       7.0       3.8       0.2      10.4
 0 C  py              1.8       8.4       1.1       6.0       2.2       0.5
 0 C  dz2             0.1       0.3       0.0       0.0       0.4       0.0
 0 C  dxz             0.0       0.0       0.1       0.0       0.0       0.1
 0 C  dx2y2           0.1       0.1       0.1       0.3       0.0       0.2
 0 C  dxy             0.0       0.0       0.1       0.0       0.0       0.1
 1 C  s               0.0       0.0       0.0       0.2       0.0       0.1
 1 C  pz              1.8       1.8       0.1      10.3       9.7       0.6
 1 C  px              8.6       0.4       5.1       0.7       0.5      14.0
 1 C  py              1.0       3.4       0.6      10.3       7.3       1.8
 1 C  dz2             0.0       0.1       0.0       0.1       1.0       0.0
 1 C  dxz             0.0       0.1       0.1       0.0       0.0       0.2
 1 C  dx2y2           0.0       0.0       0.0       0.8       0.1       0.1
 1 C  dxy             0.0       0.0       0.1       0.0       0.0       0.1
 2 C  s               0.0       0.0       0.1       0.3       0.0       0.2
 2 C  pz             11.1       2.8       0.0       9.0       8.7       0.4
 2 C  px              0.4       0.3       6.6       0.2       0.5      15.4
 2 C  py              0.7       4.4       0.1       7.9       6.2       1.8
 2 C  dz2             0.1       0.2       0.0       0.1       0.8       0.0
 2 C  dxz             0.0       0.0       0.1       0.0       0.0       0.2
 2 C  dx2y2           0.1       0.0       0.0       0.6       0.1       0.1
 2 C  dxy             0.0       0.1       0.0       0.0       0.0       0.1
 3 C  s               0.1       0.0       0.8       0.4       0.0       0.0
 3 C  pz              4.1       6.3       0.9       2.6       1.3       0.1
 3 C  px              0.3       0.1       0.6       5.1       0.1       7.5
 3 C  py              4.8       7.6       4.1       2.2       1.1       0.1
 3 C  dz2             0.0       0.5       0.0       0.0       0.3       0.0
 3 C  dxz             0.0       0.0       0.0       0.0       0.0       0.1
 3 C  dx2y2           0.3       0.2       0.0       0.2       0.0       0.2
 4 C  s               0.1       0.0       0.0       0.0       0.0       1.1
 4 C  pz              0.3       1.0       2.3       0.0       0.1       2.4
 4 C  px              1.5       0.1       1.1       0.0       0.2       1.3
 4 C  py              3.5       1.5       0.8       0.0       0.0       0.3
 4 C  dz2             0.0       0.3       0.4       0.0       0.0       0.1
 4 C  dyz             0.1       0.0       0.1       0.0       0.0       0.0
 4 C  dx2y2           0.0       0.0       0.3       0.0       0.0       0.0
 4 C  dxy             0.1       0.1       0.0       0.0       0.0       0.0
 5 O  s               0.2       0.2       0.8       0.0       0.0       0.5
 5 O  pz              3.4       0.2       7.9       0.0       0.0       3.5
 5 O  px              0.9       0.0       1.5       0.0       0.0       0.3
 5 O  py              2.8       8.3       0.1       0.4       1.2       0.2
 6 O  s               0.3       0.1       2.3       0.5       0.0       2.2
 6 O  pz              0.4       0.8      24.1       1.4       0.0      10.5
 6 O  px              0.0       0.1       0.3       0.4       0.0       1.5
 6 O  py              1.8       2.6       0.5       0.3       0.0       2.5
 7 C  s               0.0       0.0       0.1       0.0       0.0       0.2
 7 C  pz              1.2       0.3      10.1       0.4       0.0       2.2
 7 C  px              0.3       0.1       0.1       0.2       0.0       1.2
 7 C  py              2.3       1.1       0.1       0.1       0.0       0.6
 7 C  dz2             0.1       0.0       0.5       0.0       0.0       0.1
 7 C  dxz             0.0       0.0       0.1       0.0       0.0       0.0
 8 H  s               0.8       6.0       1.2       3.3       3.0       0.9
 9 H  s               8.1       6.4       0.1       1.7       5.1       0.2
10 H  s               1.6       0.2       4.3       0.4       0.4       7.5
11 H  s               0.7       2.0       0.1       3.8      13.4       0.1
12 H  s               0.5       2.2       0.6       7.3       8.6       1.4
13 H  s               0.4       2.8       0.3       5.7       7.4       1.2
14 H  s               4.6       3.4       0.0       3.2      11.6       0.0
15 H  s               3.9       7.0       1.4       1.5       1.6       0.6
16 H  s               1.7       7.8       0.1       0.7       3.0       0.1
17 H  s               1.1       0.4       7.7       0.4       0.0       1.8
18 H  s               2.2       1.2       1.0       0.1       0.0       0.3
19 H  s               0.4       0.3       1.1       0.0       0.0       0.0

                     30        31        32        33        34        35   
                  -0.25482  -0.22078  -0.01663   0.03780   0.05583   0.06787
                   2.00000   2.00000   0.00000   0.00000   0.00000   0.00000
                  --------  --------  --------  --------  --------  --------
 0 C  s               0.0       0.0       0.0       4.9       6.4       7.0
 0 C  pz              0.0       0.0       0.0       0.5       0.2       0.0
 0 C  px              0.0       0.1       0.0       1.0       0.6       0.2
 0 C  py              0.0       0.0       0.0       0.4       0.1       0.6
 0 C  dxz             0.0       0.0       0.0       0.1       0.0       0.0
 0 C  dyz             0.0       0.0       0.0       0.1       0.0       0.0
 1 C  s               0.0       0.0       0.0       7.3       1.3       0.2
 1 C  pz              0.0       0.1       0.0       2.5       0.1       0.1
 1 C  px              0.0       0.1       0.0       0.1       0.2       0.4
 1 C  py              0.1       0.0       0.2       1.2       0.1       0.8
 1 C  dxz             0.0       0.0       0.0       0.0       0.1       0.1
 1 C  dyz             0.0       0.0       0.0       0.2       0.0       0.0
 2 C  s               0.0       0.2       0.4       4.9       0.1       0.1
 2 C  pz              0.0       0.1       0.1       1.0       0.1       0.0
 2 C  px              0.0       0.1       0.3       0.1       0.4       0.6
 2 C  py              0.2       0.1       0.0       1.1       0.1       0.4
 2 C  dxz             0.0       0.0       0.0       0.0       0.2       0.1
 2 C  dyz             0.0       0.0       0.0       0.3       0.0       0.1
 2 C  dxy             0.0       0.0       0.0       0.0       0.1       0.1
 3 C  s               0.0       0.6       0.1       3.9       2.8       7.1
 3 C  pz              0.1       2.6       0.0       2.4       0.2       0.7
 3 C  px              0.0       3.6       0.1       0.3       0.0       0.1
 3 C  py              0.0       1.0       0.4       1.1       0.1       2.4
 3 C  dz2             0.0       0.0       0.4       0.0       0.0       0.0
 3 C  dxz             0.0       0.0       0.0       0.1       0.0       0.0
 3 C  dyz             0.0       0.0       0.1       0.3       0.0       0.0
 3 C  dx2y2           0.0       0.0       0.6       0.0       0.0       0.0
 3 C  dxy             0.0       0.0       0.8       0.0       0.0       0.0
 4 C  s               0.0       0.4       0.0       0.5       1.4       0.1
 4 C  pz              0.0       0.5       4.4       0.5       0.4       0.0
 4 C  px              0.0       0.8       0.7       0.3       0.2       0.2
 4 C  py              0.5       0.1      42.3       0.4       0.0       0.1
 4 C  dz2             0.5       0.1       0.1       0.2       0.1       0.0
 4 C  dxz             0.0       4.1       0.1       0.0       0.0       0.0
 4 C  dyz             1.5       0.0       0.5       0.2       0.1       0.0
 4 C  dxy             0.5       0.4       0.3       0.0       0.0       0.1
 5 O  s               0.0       0.0       0.0       0.3       0.5       0.0
 5 O  pz              3.0       0.8       2.5       0.0       0.0       0.0
 5 O  px              1.3      71.2       0.4       0.0       0.3       0.2
 5 O  py             29.9       1.1      22.9       0.5       0.0       0.2
 5 O  dz2             0.0       0.0       0.1       0.0       0.0       0.0
 5 O  dyz             0.0       0.0       0.4       0.0       0.0       0.0
 6 O  s               0.0       0.4       0.0       0.2       1.0       0.5
 6 O  pz              4.8       5.4       0.7       0.0       0.1       0.1
 6 O  px              0.7       1.3       0.2       0.0       0.3       0.4
 6 O  py             43.0       0.8       9.1       0.0       0.0       0.0
 6 O  dxy             0.0       0.0       0.3       0.0       0.0       0.0
 7 C  s               0.0       0.2       0.0       1.0      12.5      10.1
 7 C  pz              0.3       0.8       0.0       0.0       0.1       0.3
 7 C  px              0.1       0.6       0.0       0.4       6.5       1.0
 7 C  py              3.9       0.0       0.1       0.0       0.3       0.1
 7 C  dx2y2           0.1       0.0       0.1       0.0       0.2       0.0
 7 C  dxy             0.9       0.0       0.3       0.0       0.1       0.0
 8 H  s               0.0       0.0       0.0       4.4       4.8       8.7
 9 H  s               0.0       0.0       0.0       3.7       4.7       3.8
10 H  s               0.0       0.0       0.0       3.5       4.9       4.1
11 H  s               0.0       0.1       0.0      10.7       0.8       0.1
12 H  s               0.1       0.0       0.4       8.8       0.9       2.8
13 H  s               0.2       0.1       0.2       6.8       0.3       1.4
14 H  s               0.1       0.2       0.0       4.8       0.4       0.0
15 H  s               0.0       0.3       6.0       6.5       3.6      16.3
16 H  s               0.0       0.7       1.9       9.2       3.5       5.9
17 H  s               0.3       0.6       0.0       0.5       4.8       3.2
18 H  s               3.0       0.0       0.5       1.1      16.2       8.5
19 H  s               4.7       0.0       1.1       1.2      17.2       9.9

                     36        37        38        39        40        41   
                   0.07236   0.08287   0.09379   0.10663   0.11516   0.12258
                   0.00000   0.00000   0.00000   0.00000   0.00000   0.00000
                  --------  --------  --------  --------  --------  --------
 0 C  s               0.8       0.0       1.2       0.0       3.7       4.7
 0 C  pz              1.7       2.8       1.5       0.0       0.7       2.0
 0 C  px              0.1       0.5       2.0       0.1       1.5       1.7
 0 C  py              2.6       1.4       0.3       0.3       0.1       0.6
 0 C  dz2             0.2       0.1       0.0       0.0       0.0       0.1
 0 C  dxz             0.0       0.1       0.1       0.0       0.3       0.1
 0 C  dyz             0.0       0.0       0.0       0.0       0.0       0.2
 0 C  dx2y2           0.1       0.2       0.0       0.0       0.0       0.0
 0 C  dxy             0.1       0.0       0.0       0.0       0.1       0.1
 1 C  s               0.1       1.4       1.5       0.1       4.6       6.9
 1 C  pz              2.6       2.0       0.7       0.1       0.4       0.0
 1 C  px              0.1       0.1       0.3       0.0       0.3       0.1
 1 C  py              4.7       0.6       0.1       0.1       0.3       0.6
 1 C  dz2             0.4       0.2       0.1       0.0       0.0       0.1
 1 C  dxz             0.0       0.0       0.1       0.0       0.2       0.0
 1 C  dx2y2           0.2       0.4       0.0       0.0       0.0       0.0
 2 C  s               0.2       1.5       5.9       0.0       0.9       0.8
 2 C  pz              2.4       3.3       1.0       0.0       0.1       0.4
 2 C  px              0.0       0.3       0.2       0.0       0.3       0.6
 2 C  py              4.5       2.2       0.3       0.1       0.1       0.1
 2 C  dz2             0.5       0.2       0.0       0.0       0.1       0.0
 2 C  dxz             0.0       0.1       0.1       0.0       0.3       0.1
 2 C  dx2y2           0.2       0.4       0.0       0.0       0.1       0.2
 2 C  dxy             0.0       0.0       0.0       0.0       0.0       0.3
 3 C  s               0.3       0.4       0.1       0.0       1.1       2.4
 3 C  pz              2.8       1.5       0.3       0.0       3.3       0.1
 3 C  px              0.0       0.5       0.3       0.1       2.9       0.8
 3 C  py              3.5       0.3       0.4       0.3       0.2       3.3
 3 C  dz2             0.2       0.2       0.0       0.0       0.1       0.0
 3 C  dxz             0.0       0.0       0.1       0.0       0.5       0.1
 3 C  dyz             0.0       0.0       0.1       0.0       0.0       0.0
 3 C  dx2y2           0.0       0.3       0.1       0.0       0.3       0.2
 3 C  dxy             0.1       0.0       0.0       0.0       0.2       0.1
 4 C  s               0.0       1.5       0.0       0.2       2.9       0.6
 4 C  pz              0.0       0.6       0.8       0.0       1.1       0.3
 4 C  px              0.0       0.7       0.2       0.0       0.1       0.7
 4 C  py              0.7       0.1       0.0       0.3       0.1       0.2
 4 C  dz2             0.0       0.2       0.5       0.0       0.0       0.1
 4 C  dyz             0.0       0.0       0.1       0.0       0.0       0.1
 4 C  dx2y2           0.0       0.8       0.2       0.0       0.3       0.0
 4 C  dxy             0.0       0.0       0.0       0.0       0.1       0.2
 5 O  s               0.0       0.2       0.2       0.0       0.6       0.4
 5 O  pz              0.1       0.0       0.1       0.0       0.0       0.0
 5 O  px              0.1       0.2       0.8       0.0       0.6       0.5
 5 O  py              0.3       0.0       0.1       0.2       0.0       0.1
 6 O  s               0.0       6.1       5.4       0.1       0.3       0.1
 6 O  pz              0.1       1.8       1.1       0.1       0.1       0.1
 6 O  px              0.0       2.4       5.4       0.0       0.0       0.1
 6 O  py              0.2       0.3       0.5       0.7       0.0       0.1
 6 O  dxz             0.0       0.0       0.1       0.0       0.3       0.1
 6 O  dyz             0.0       0.0       0.0       0.1       0.0       0.0
 6 O  dx2y2           0.0       0.3       0.3       0.1       0.2       0.0
 6 O  dxy             0.0       0.0       0.1       0.1       0.0       0.0
 7 C  s               0.7       3.4       2.3       0.0       0.4       0.1
 7 C  pz              0.0       2.1       1.4       0.0      12.6       5.8
 7 C  px              0.2      15.1      24.4       0.8       0.0       0.8
 7 C  py              0.1       0.9       0.7      25.9       0.1       0.1
 7 C  dz2             0.0       0.5       0.2       0.2       1.1       0.4
 7 C  dxz             0.0       0.6       0.9       0.0       0.0       0.0
 7 C  dyz             0.0       0.0       0.1       0.8       0.1       0.0
 7 C  dx2y2           0.0       1.4       2.3       0.0       0.0       0.1
 7 C  dxy             0.0       0.3       0.5       0.5       0.0       0.0
 8 H  s               3.0       2.3       0.0       0.7       1.8       7.0
 9 H  s               8.8       3.5       0.5       0.1       6.0       0.3
10 H  s               1.0       5.6      10.7       0.1       0.3      10.4
11 H  s               8.2       6.5       3.5       0.1       5.1       3.7
12 H  s              11.2       3.9       1.3       0.4       1.6       8.8
13 H  s              11.7       7.7       5.9       0.3       0.8       0.9
14 H  s               7.2       7.5       8.0       0.0       0.7       1.8
15 H  s               4.5       0.1       0.4       0.7       1.4      12.8
16 H  s              10.9       1.0       0.2       0.2       7.0       0.1
17 H  s               0.5       0.4       2.1       0.7      26.0      12.1
18 H  s               1.7       0.4       1.1      36.1       0.6       2.4
19 H  s               0.1       0.3       0.3      28.6       4.0       1.7

                     42        43        44        45        46        47   
                   0.12853   0.13240   0.14001   0.15697   0.17994   0.20150
                   0.00000   0.00000   0.00000   0.00000   0.00000   0.00000
                  --------  --------  --------  --------  --------  --------
 0 C  s               0.0       0.8       0.0       0.0       0.6       0.7
 0 C  pz              0.1       8.2       0.6       3.3       3.1       4.1
 0 C  px              4.4       3.3       0.2       0.0       6.5      10.9
 0 C  py             11.3       0.5       1.7       3.9       2.1       3.1
 0 C  dz2             0.1       0.3       0.0       0.7       0.2       0.1
 0 C  dxz             0.1       0.1       0.6       0.0       0.7       1.0
 0 C  dyz             0.1       0.2       0.0       0.1       0.0       0.7
 0 C  dx2y2           0.7       0.0       0.0       0.1       0.5       0.9
 0 C  dxy             0.1       0.4       0.5       0.0       0.6       0.7
 1 C  s               1.8       0.0       0.0       0.1       1.6       0.7
 1 C  pz              1.1       0.8       5.9       0.1       8.5       0.6
 1 C  px              0.4       0.5       0.0       0.0       1.4      13.5
 1 C  py              0.1       0.2      11.7       0.1       4.4       0.3
 1 C  dz2             0.0       0.1       0.3       0.0       0.1       0.2
 1 C  dxz             0.0       0.4       0.0       0.7       0.1       2.2
 1 C  dyz             0.3       0.1       0.0       0.0       1.7       0.0
 1 C  dx2y2           0.2       0.0       0.1       0.0       0.9       0.5
 1 C  dxy             0.4       0.0       0.0       1.0       0.1       1.2
 2 C  s               2.9       3.7       0.2       0.3       0.4       1.2
 2 C  pz              0.5       0.1       2.2       5.1       2.9       0.9
 2 C  px              0.1       0.1       0.0       0.1       7.0      15.6
 2 C  py              0.1       1.0       2.6       9.3       1.6       0.2
 2 C  dz2             0.1       0.1       0.0       0.4       0.2       0.2
 2 C  dxz             0.1       0.0       0.5       0.1       0.7       2.5
 2 C  dyz             0.1       0.0       0.0       0.0       1.4       0.0
 2 C  dx2y2           0.0       0.0       0.0       0.2       0.1       0.4
 2 C  dxy             0.1       0.0       0.6       0.3       0.5       1.4
 3 C  s               0.1       0.4       0.0       0.0       0.6       2.8
 3 C  pz              2.5       2.0       0.7       2.6       0.6       3.6
 3 C  px              0.5       0.1       0.0       0.1      13.5       8.9
 3 C  py              2.8       2.6       1.2       2.5       0.3       3.2
 3 C  dz2             0.2       0.1       0.4       0.0       0.0       0.1
[...]
 1 C  dx2y2           2.0       1.6       0.0       0.0       0.0       0.0
 1 C  dxy             0.0       8.4       0.0       0.0       0.4       0.0
 2 C  s               0.3       0.2       0.0       0.0       0.0       0.0
 2 C  px              0.8       4.1       0.0       0.0       0.4       0.0
 2 C  dz2             1.3       0.5       0.0       0.1       0.1       0.0
 2 C  dxz             3.7      14.4       0.1       0.0       1.7       0.0
 2 C  dyz             0.0       0.0       0.0       0.0       0.2       0.1
 2 C  dx2y2           3.1       1.2       0.0       0.0       0.1       0.0
 2 C  dxy             2.3       9.4       0.1       0.0       0.9       0.0
 3 C  s               0.0       0.7       0.0       0.0       0.1       0.3
 3 C  pz              0.1       0.2       0.0       0.0       0.1       0.0
 3 C  px              1.9       1.1       0.0       0.0       0.3       0.2
 3 C  dz2             0.0       0.5       0.1       0.4       1.8       0.7
 3 C  dxz             7.3       2.2       0.0       0.3       2.5       0.0
 3 C  dyz             0.3       0.0       0.1       0.2       0.5       0.0
 3 C  dx2y2           0.3       2.1       0.2       0.2       1.4       1.1
 3 C  dxy             4.1       1.3       0.2       0.2       0.8       0.1
 4 C  s               0.4       0.2       0.0       0.0       0.3       1.1
 4 C  pz              0.3       0.0       0.0       0.1       0.2       1.6
 4 C  px              0.9       0.0       0.0       0.1       0.3       1.6
 4 C  py              0.1       0.0       0.1       1.1       0.0       0.1
 4 C  dz2             0.0       0.0       0.0       0.1       5.4       0.6
 4 C  dxz             0.2       0.0       0.1       1.5       0.8       3.1
 4 C  dyz             0.7       0.1       0.1       0.1       0.3       0.8
 4 C  dx2y2           2.3       0.3       0.0       0.2       6.0       0.8
 4 C  dxy             0.3       0.0       0.8      11.0       0.1       0.7
 5 O  s               0.0       0.0       0.0       0.0       1.1       0.5
 5 O  pz              0.0       0.0       0.0       0.1       0.4       0.3
 5 O  px              0.0       0.1       0.0       0.0       0.2       0.5
 5 O  py              0.0       0.0       0.0       0.2       0.1       0.1
 5 O  dz2             0.3       0.6       1.4       4.2       0.1       0.1
 5 O  dxz             0.8       0.1       0.5       0.0       6.2      24.7
 5 O  dyz             2.8       1.9       3.3      10.4       2.3       0.3
 5 O  dx2y2          41.8      16.5       0.5       0.6       2.6       0.0
 5 O  dxy             3.8       0.0       3.2      10.8       0.7       2.3
 6 O  s               0.1       0.0       0.0       0.0       0.7       6.9
 6 O  pz              0.5       0.0       0.1       0.0       1.1       0.8
 6 O  px              0.1       0.0       0.0       0.0       1.5       0.2
 6 O  py              0.0       0.0       0.7       0.6       0.1       0.1
 6 O  dz2             6.5       3.8       7.0       3.8      23.5       0.0
 6 O  dxz             0.3       0.5       5.7       1.6       6.4       4.9
 6 O  dyz             5.1       0.4      22.2      28.1       8.9       3.1
 6 O  dx2y2           0.3       0.0      10.1       0.0       5.7      36.8
 6 O  dxy             0.0       0.1      31.2      23.1       5.9       0.6
 7 C  s               0.1       0.0       0.0       0.0       0.8       0.4
 7 C  pz              0.0       0.0       0.0       0.0       0.0       0.1
 7 C  px              0.1       0.0       0.0       0.0       0.9       0.6
 7 C  py              0.0       0.0       0.4       0.0       0.0       0.0
 7 C  dz2             0.3       0.1       0.2       0.3       1.2       0.0
 7 C  dxz             0.5       0.3       0.9       0.1       0.2       1.4
 7 C  dyz             0.0       0.0       0.4       0.3       0.0       0.2
 7 C  dx2y2           0.1       0.0       1.1       0.0       3.7       0.8
 7 C  dxy             0.1       0.0       8.8       0.1       0.1       0.4
14 H  s               0.1       0.0       0.0       0.0       0.0       0.0
19 H  s               0.0       0.0       0.1       0.0       0.0       0.1

                    132       133       134       135   
                   3.11080   3.31312   3.49874   3.55948
                   0.00000   0.00000   0.00000   0.00000
                  --------  --------  --------  --------
 2 C  dx2y2           0.0       0.0       0.1       0.0
 3 C  s               0.0       0.2       0.1       0.0
 3 C  px              0.0       0.1       0.3       0.2
 3 C  dz2             0.1       0.1       0.8       0.0
 3 C  dxz             0.0       0.7       0.1       0.6
 3 C  dx2y2           0.1       0.1       0.9       0.0
 3 C  dxy             0.5       0.1       0.2       0.1
 4 C  s               0.0       3.9       0.1       6.0
 4 C  pz              0.1       0.2       2.9       3.5
 4 C  px              0.0       1.4       0.8       0.1
 4 C  py              0.3       0.1       0.2       0.4
 4 C  dz2             4.8       2.6       0.0       8.6
 4 C  dxz             0.1       0.6      18.2       2.5
 4 C  dyz            14.1       0.1       0.3       1.8
 4 C  dx2y2           1.4       2.7       0.6       0.4
 4 C  dxy             0.5       0.4       1.5       0.4
 5 O  s               0.0       1.7       1.0       4.0
 5 O  pz              0.1       0.7       0.7       2.7
 5 O  px              0.0       0.1       0.5       0.3
 5 O  py              0.9       0.1       0.0       0.3
 5 O  dz2            13.8      11.9      11.4      29.0
 5 O  dxz             1.0       4.8      13.5       8.9
 5 O  dyz            38.5       3.3       1.4      12.6
 5 O  dx2y2           6.0       0.0       0.5       0.3
 5 O  dxy             0.6       0.4       1.6       0.9
 6 O  s               0.0       0.1       0.9       0.4
 6 O  pz              0.0       0.2       0.4       0.1
 6 O  px              0.0       2.3       3.1       0.1
 6 O  dz2             0.3      15.5       0.0       5.3
 6 O  dxz             1.4      23.4      29.4       0.4
 6 O  dyz             1.0       0.4       0.0       0.2
 6 O  dx2y2           0.2       8.3       4.6       8.0
 6 O  dxy            13.3       5.0       1.3       0.3
 7 C  s               0.0       1.1       0.2       0.0
 7 C  pz              0.0       0.3       0.0       0.0
 7 C  px              0.0       1.4       0.3       0.1
 7 C  dz2             0.1       0.5       0.6       0.0
 7 C  dxz             0.1       2.0       0.0       0.6
 7 C  dx2y2           0.1       1.9       0.5       0.1
 7 C  dxy             0.4       0.7       0.0       0.1


                      *****************************
                      * MAYER POPULATION ANALYSIS *
                      *****************************

  NA   - Mulliken gross atomic population
  ZA   - Total nuclear charge
  QA   - Mulliken gross atomic charge
  VA   - Mayer's total valence
  BVA  - Mayer's bonded valence
  FA   - Mayer's free valence

  ATOM       NA         ZA         QA         VA         BVA        FA
  0 C      6.2551     6.0000    -0.2551     4.0192     4.0192    -0.0000
  1 C      6.1756     6.0000    -0.1756     4.1484     4.1484    -0.0000
  2 C      6.2024     6.0000    -0.2024     4.1448     4.1448    -0.0000
  3 C      6.1524     6.0000    -0.1524     3.9086     3.9086    -0.0000
  4 C      5.8777     6.0000     0.1223     4.3716     4.3716    -0.0000
  5 O      8.2031     8.0000    -0.2031     2.3078     2.3078     0.0000
  6 O      8.2437     8.0000    -0.2437     2.2618     2.2618    -0.0000
  7 C      6.1301     6.0000    -0.1301     3.8406     3.8406     0.0000
  8 H      0.9021     1.0000     0.0979     0.9573     0.9573    -0.0000
  9 H      0.9010     1.0000     0.0990     0.9579     0.9579    -0.0000
 10 H      0.8988     1.0000     0.1012     0.9498     0.9498    -0.0000
 11 H      0.9185     1.0000     0.0815     0.9452     0.9452    -0.0000
 12 H      0.9184     1.0000     0.0816     0.9476     0.9476    -0.0000
 13 H      0.9109     1.0000     0.0891     0.9525     0.9525     0.0000
 14 H      0.8999     1.0000     0.1001     0.9663     0.9663    -0.0000
 15 H      0.8890     1.0000     0.1110     0.9589     0.9589     0.0000
 16 H      0.8973     1.0000     0.1027     0.9697     0.9697     0.0000
 17 H      0.8670     1.0000     0.1330     0.9967     0.9967    -0.0000
 18 H      0.8784     1.0000     0.1216     0.9554     0.9554    -0.0000
 19 H      0.8786     1.0000     0.1214     0.9542     0.9542    -0.0000

  Mayer bond orders larger than 0.100000
B(  0-C ,  1-C ) :   1.1625 B(  0-C ,  8-H ) :   0.9543 B(  0-C ,  9-H ) :   0.9540 
B(  0-C , 10-H ) :   0.9531 B(  1-C ,  2-C ) :   1.1322 B(  1-C , 11-H ) :   0.9238 
B(  1-C , 12-H ) :   0.9249 B(  2-C ,  3-C ) :   1.1293 B(  2-C , 13-H ) :   0.9292 
B(  2-C , 14-H ) :   0.9163 B(  3-C ,  4-C ) :   1.0082 B(  3-C , 15-H ) :   0.8858 
B(  3-C , 16-H ) :   0.9056 B(  4-C ,  5-O ) :   2.0659 B(  4-C ,  6-O ) :   1.2159 
B(  6-O ,  7-C ) :   0.9366 B(  7-C , 17-H ) :   0.9301 B(  7-C , 18-H ) :   0.9613 
B(  7-C , 19-H ) :   0.9608 

-------
TIMINGS
-------

Total SCF time: 0 days 0 hours 0 min 7 sec 

Total time                  ....       7.075 sec
Sum of individual times     ....       6.640 sec  ( 93.8%)

SCF preparation             ....       0.164 sec  (  2.3%)
Fock matrix formation       ....       5.730 sec  ( 81.0%)
  Startup                   ....       0.054 sec  (  0.9% of F)
  Split-RI-J                ....       1.955 sec  ( 34.1% of F)
  XC integration            ....       3.258 sec  ( 56.9% of F)
    XC Preparation          ....       0.000 sec  (  0.0% of XC)
    Basis function eval.    ....       1.168 sec  ( 35.8% of XC)
    Density eval.           ....       0.401 sec  ( 12.3% of XC)
    XC-Functional eval.     ....       0.323 sec  (  9.9% of XC)
    XC-Potential eval.      ....       0.643 sec  ( 19.7% of XC)
Diagonalization             ....       0.000 sec  (  0.0%)
Density matrix formation    ....       0.157 sec  (  2.2%)
Total Energy calculation    ....       0.036 sec  (  0.5%)
Population analysis         ....       0.072 sec  (  1.0%)
Orbital Transformation      ....       0.046 sec  (  0.6%)
Orbital Orthonormalization  ....       0.000 sec  (  0.0%)
DIIS solution               ....       0.347 sec  (  4.9%)
  MO trafo                  ....       0.000 sec  (  0.0 % of DIIS)
  Orb grad                  ....       0.000 sec  (  0.0 % of DIIS)
  Energy W gradient         ....       0.000 sec  (  0.0 % of DIIS)
  DIIS error                ....       0.003 sec  (  1.0 % of DIIS)
  DIIS work                 ....       0.300 sec  ( 86.5 % of DIIS)
  Form Q                    ....       0.000 sec  (  0.0 % of DIIS)
  Form QpQm                 ....       0.000 sec  (  0.0 % of DIIS)
  Exp/Cayley                ....       0.000 sec  (  0.0 % of DIIS)
  Orb update                ....       0.000 sec  (  0.0 % of DIIS)
  Wake-sleep                ....       0.019 sec  (  5.4 % of DIIS)
SOSCF solution              ....       0.089 sec  (  1.3%)
  MO trafo                  ....       0.043 sec  ( 48.7 % of SOSCF)
  Orb grad                  ....       0.001 sec  (  1.4 % of SOSCF)
  Rot update                ....       0.024 sec  ( 26.7 % of SOSCF)
  Step                      ....       0.021 sec  ( 23.1 % of SOSCF)
Finished LeanSCF after   7.2 sec

Maximum memory used throughout the entire LEANSCF-calculation: 12.4 MB


-------------------------------------------------------------------------------
                          DFT DISPERSION CORRECTION                            
                                                                               
                                DFTD4 V3.4.0                                   
-------------------------------------------------------------------------------
The PBE functional is recognized
Active option DFTDOPT                   ...         5   

-------------------------   ----------------
Dispersion correction           -0.014365965
-------------------------   ----------------

------------------   -----------------
gCP correction             0.089781760
------------------   -----------------

-------------------------   --------------------
FINAL SINGLE POINT ENERGY      -385.452787039105
-------------------------   --------------------


------------------------------------------------------------------------------
                              ORCA PROPERTY CALCULATIONS
------------------------------------------------------------------------------

GBWName                                 ... sp.gbw
Number of atoms                         ...     20
Number of basis functions               ...    136
Max core memory                         ...   1024 MB

Electric properties:
Dipole moment                           ... YES
Quadrupole moment                       ...  NO
Static polarizability (Dipole/Dipole)   ...  NO
Static polarizability (Dipole/Quad.)    ...  NO
Static polarizability (Quad./Quad.)     ...  NO
Static polarizability (Velocity)        ...  NO

Atomic electric properties:
Dipole moment                           ...  NO
Quadrupole moment                       ...  NO
Static polarizability                   ...  NO

Choice of electric origin               ... Center of mass
Position of electric origin             ...    -0.000038    -0.000002     0.000007

General magnetic properties:
Magnetizability                         ...  NO

EPR properties:
g-Tensor (aka g-matrix)                 ...  NO
Zero-Field splitting spin-orbit         ...  NO
Zero-field splitting spin-spin          ...  NO
Hyperfine couplings                     ...  NO (   0 nuclei)
Quadrupole couplings                    ...  NO (   0 nuclei)
Contact density                         ...  NO (   0 nuclei)

NMR properties:
Chemical shifts                         ...  NO (   0 nuclei)
Spin-rotation constants                 ...  NO (   0 nuclei)
Spin-spin couplings                     ...  NO (   0 nuclei,    0 pairs)

Choice of magnetic origin               ... GIAO
Position of magnetic origin             ...     0.000000     0.000000     0.000000

Properties with geometric perturbations:
SCF Hessian                             ...  NO
IR spectrum                             ...  NO
VCD spectrum                            ...  NO
X-ray spectroscopy properties:
SCF XES/XAS/RIXS spectra                ...  NO


-------------
DIPOLE MOMENT
-------------

Method             : SCF
Type of density    : Electron Density
Multiplicity       :   1
Irrep              :   0
Energy             :  -385.5282028348978542 Eh
Relativity type    : 
Basis              : AO
                                X                 Y                 Z
Electronic contribution:      9.460462474       0.082215901      -1.047143365
Nuclear contribution   :     -9.212275857      -0.273604689       1.653519108
                        -----------------------------------------
Total Dipole Moment    :      0.248186616      -0.191388788       0.606375744
                        -----------------------------------------
Magnitude (a.u.)       :      0.682581722
Magnitude (Debye)      :      1.734984857



--------------------
Rotational spectrum 
--------------------
 
Rotational constants in cm-1:             0.246451             0.024826             0.023198 
Rotational constants in MHz :          7388.410836           744.275773           695.445570 

Dipole components along the rotational axes: 
x,y,z [a.u.] :     0.247377    -0.635215     0.034988 
x,y,z [Debye]:     0.628783    -1.614588     0.088932 

 

Dipole moment calculation done in   0.0 sec 

Maximum memory used throughout the entire PROP-calculation: 7.8 MB

--------------------------------
SUGGESTED CITATIONS FOR THIS RUN
--------------------------------

Below you find a list of papers that are relevant to this ORCA run
We neither can nor want to force you to cite these papers, but we appreciate if you do
You receive ORCA, which is the product of decades of hard work by many enthusiastic individuals, for free
The only thing we kindly ask in return is that you cite our papers,
We deeply appreciate it, if you show your appreciation for ORCA by not just citing the generic ORCA reference.

Please note that relegating all ORCA citations to the supporting information does *not* help us.
SI sections are not indexed - citations you put there will not count into any citation statistics
But we need these citations in order to attract the funding resources that allow us to do what we are doing

Therefore, if you are a happy ORCA user, please consider citing a few of the papers listed below in the main body of your paper

In addition to the list printed below, the program has created the file sp.bibtex that contains the list in bibtex format
You can import this file easily into all common literature databanks and citation aid programs


List of essential papers. We consider these as the minimum necessary citations

  1. Neese,F.
     Software update: the ORCA program system, version 5.0
     WIRES Comput. Molec. Sci., 2022 12(1)e1606
     doi.org/10.1002/wcms.1606

List of papers to cite with high priority. The work reported in these papers was absolutely
necessary for this run to complete.
Our perspective: the developers of density functionals and basis sets usually get cited in chemistry papers
Good! But without the algorithms to do something with them, the functionals or basis sets would not do anything.
Hence, in our opinion, the algorithm design and method developments papers are equally worthy of getting cited

  1. Neese,F.
     An improvement of the resolution of the identity approximation for the formation of the Coulomb matrix
     J. Comp. Chem., 2003 24(14)1740-1747
     doi.org/10.1002/jcc.10318
  2. Neese,F.
     The SHARK Integral Generation and Digestion System
     J. Comp. Chem., 2022  1-16
     doi.org/10.1002/jcc.26942
  3. Caldeweyher,E.; Bannwarth,C.; Grimme,S.
     Extension of the D3 dispersion coefficient model
     J. Chem. Phys., 2017 147 034112-XXXX
     doi.org/10.1063/1.4993215
  4. Caldeweyher,E.; Ehlert,S.; Hansen,A.; Neugebauer,H.; Spicher,S.; Bannwarth,C.; Grimme,S.
     A generally applicable atomic-charge dependent London dispersion correction
     J. Chem. Phys., 2019 150 154122-XXXX
     doi.org/10.1063/1.5090222
  5. Caldeweyher,E.; Mewes,J.; Ehlert,S.; Grimme,S.
     Extension and evaluation of the D4 London-dispersion model for periodic systems
     Phys. Chem. Chem. Phys., 2020 22(16)8499-8512
     doi.org/10.1039/D0CP00502A

List of suggested additional citations. These are papers that are important in the 'surrounding' of 
of this run, or papers that preceded the highly important papers. If you like your results we are grateful for a citation.

  1. Neese,F.
     The ORCA program system
     WIRES Comput. Molec. Sci., 2012 2(1)73-78
     doi.org/10.1002/wcms.81
  2. Neese,F.
     Software update: the ORCA program system, version 4.0
     WIRES Comput. Molec. Sci., 2018 8(1)1-6
     doi.org/10.1002/wcms.1327
  3. Neese,F.; Wennmohs,F.; Becker,U.; Riplinger,C.
     The ORCA quantum chemistry program package
     J. Chem. Phys., 2020 152 Art. No. L224108
     doi.org/10.1063/5.0004608

List of optional additional citations

  1. Neese,F.
     Approximate second-order SCF convergence for spin unrestricted wavefunctions
     Chem. Phys. Lett., 2000 325(1-3)93-98
     doi.org/10.1016/s0009-2614(00)00662-x

Timings for individual modules:

Sum of individual times          ...        8.732 sec (=   0.146 min)
Startup calculation              ...        0.703 sec (=   0.012 min)   8.1 %
SCF iterations                   ...        7.913 sec (=   0.132 min)  90.6 %
Property calculations            ...        0.116 sec (=   0.002 min)   1.3 %
                             ****ORCA TERMINATED NORMALLY****
TOTAL RUN TIME: 0 days 0 hours 0 minutes 9 seconds 494 msec
