
                                 *****************
                                 * O   R   C   A *
                                 *****************

                                            #,                                       
                                            ###                                      
                                            ####                                     
                                            #####                                    
                                            ######                                   
                                           ########,                                 
                                     ,,################,,,,,                         
                               ,,#################################,,                 
                          ,,##########################################,,             
                       ,#########################################, ''#####,          
                    ,#############################################,,   '####,        
                  ,##################################################,,,,####,       
                ,###########''''           ''''###############################       
              ,#####''   ,,,,##########,,,,          '''####'''          '####       
            ,##' ,,,,###########################,,,                        '##       
           ' ,,###''''                  '''############,,,                           
         ,,##''                                '''############,,,,        ,,,,,,###''
      ,#''                                            '''#######################'''  
     '                                                          ''''####''''         
             ,#######,   #######,   ,#######,      ##                                
            ,#'     '#,  ##    ##  ,#'     '#,    #''#        ,####,   ,####,        
            ##       ##  ##   ,#'  ##            #'  '#       #'       #'  '#        
            ##       ##  #######   ##           ,######,      #####,   #    #        
            '#,     ,#'  ##    ##  '#,     ,#' ,#      #,     #,   #   #,  ,#        
             '#######'   ##     ##  '#######'  #'      '#     '####' # '####'        



                #########################################################
                #                        -***-                          #
                #          Department of theory and spectroscopy        #
                #                                                       #
                #                      Frank Neese                      #
                #                                                       #
                #     Directorship, Architecture, Infrastructure        #
                #                    SHARK, DRIVERS                     #
                #        Core code/Algorithms in most modules           #
                #                                                       #
                #        Max Planck Institute fuer Kohlenforschung      #
                #                Kaiser Wilhelm Platz 1                 #
                #                 D-45470 Muelheim/Ruhr                 #
                #                      Germany                          #
                #                                                       #
                #                  All rights reserved                  #
                #                        -***-                          #
                #########################################################


                         Program Version 6.0.0  -   RELEASE  -


 With contributions from (in alphabetic order):
   Daniel Aravena         : Magnetic Suceptibility
   Michael Atanasov       : Ab Initio Ligand Field Theory (pilot matlab implementation)
   Alexander A. Auer      : GIAO ZORA, VPT2 properties, NMR spectrum
   Ute Becker             : All parallelization in ORCA, NUMFREQ, NUMCALC
   Giovanni Bistoni       : ED, misc. LED, open-shell LED, HFLD
   Martin Brehm           : Molecular dynamics
   Dmytro Bykov           : pre 5.0 version of the SCF Hessian
   Marcos Casanova-Páez   : Triplet and SCS-CIS(D). UHF-(DLPNO)-IP/EA/STEOM-CCSD. UHF-CVS-IP/STEOM-CCSD
   Vijay G. Chilkuri      : MRCI spin determinant printing, contributions to CSF-ICE
   Pauline Colinet        : FMM embedding
   Dipayan Datta          : RHF DLPNO-CCSD density
   Achintya Kumar Dutta   : EOM-CC, STEOM-CC
   Nicolas Foglia         : Exact transition moments, OPA infrastructure, MCD improvements
   Dmitry Ganyushin       : Spin-Orbit,Spin-Spin,Magnetic field MRCI
   Miquel Garcia          : C-PCM and meta-GGA Hessian, CCSD/C-PCM, Gaussian charge scheme
   Tiago L. C. Gouveia    : GS-ROHF, GS-ROCIS
   Yang Guo               : DLPNO-NEVPT2, F12-NEVPT2, CIM, IAO-localization
   Andreas Hansen         : Spin unrestricted coupled pair/coupled cluster methods
   Ingolf Harden          : AUTO-CI MPn and infrastructure 
   Benjamin Helmich-Paris : MC-RPA, TRAH-(SCF,CASSCF), AVAS, COSX integrals, SCF dyn. polar.
   Lee Huntington         : MR-EOM, pCC
   Robert Izsak           : Overlap fitted RIJCOSX, COSX-SCS-MP3, EOM
   Riya Kayal             : Wick's Theorem for AUTO-CI, AUTO-CI UHF-CCSDT
   Emily Kempfer          : AUTO-CI, RHF CISDT and CCSDT
   Christian Kollmar      : KDIIS, OOCD, Brueckner-CCSD(T), CCSD density, CASPT2, CASPT2-K, improved NEVPT2
   Axel Koslowski         : Symmetry handling
   Simone Kossmann        : Meta GGA functionals, TD-DFT gradient, OOMP2, (MP2 Hessian; deprecated post 5.0)
   Lucas Lang             : DCDCAS
   Marvin Lechner         : AUTO-CI (C++ implementation), FIC-MRCC
   Spencer Leger          : CASSCF response
   Dagmar Lenk            : GEPOL surface, SMD, ORCA-2-JSON
   Dimitrios Liakos       : Extrapolation schemes; Compound Job, initial MDCI parallelization
   Dimitrios Manganas     : Further ROCIS development; embedding schemes. LFT, Crystal Embedding
   Dimitrios Pantazis     : SARC Basis sets
   Anastasios Papadopoulos: AUTO-CI, single reference methods and gradients
   Taras Petrenko         : pre 6.0 DFT Hessian and TD-DFT gradient, (ASA, deprecated), ECA, 1-Electron XAS/XES, NRVS
   Peter Pinski           : DLPNO-MP2, DLPNO-MP2 Gradient
   Christoph Reimann      : Effective Core Potentials
   Marius Retegan         : Local ZFS, SOC
   Christoph Riplinger    : Optimizer, TS searches, QM/MM, DLPNO-CCSD(T), (RO)-DLPNO pert. Triples
   Michael Roemelt        : Original ROCIS implementation
   Masaaki Saitow         : Open-shell DLPNO-CCSD energy and density
   Barbara Sandhoefer     : DKH picture change effects
   Kantharuban Sivalingam : CASSCF convergence/infrastructure, NEVPT2 and variants, FIC-MRCI
   Bernardo de Souza      : ESD, SOC TD-DFT
   Georgi Stoychev        : AutoAux, RI-MP2 NMR, DLPNO-MP2 response, X2C
   Van Anh Tran           : RI-MP2 g-tensors
   Willem Van den Heuvel  : Paramagnetic NMR
   Zikuan Wang            : NOTCH, Electric field optimization 
   Frank Wennmohs         : Technical directorship and infrastructure
   Hang Xu                : AUTO-CI-Response properties 


 We gratefully acknowledge several colleagues who have allowed us to
 interface, adapt or use parts of their codes:
   Stefan Grimme, W. Hujo, H. Kruse, P. Pracht,  : VdW corrections, initial TS optimization,
                  C. Bannwarth, S. Ehlert,         DFT functionals, gCP, sTDA/sTD-DF
                  L. Wittmann, M. Mueller
   Ed Valeev, F. Pavosevic, A. Kumar             : LibInt (2-el integral package), F12 methods
   Garnet Chan, S. Sharma, J. Yang, R. Olivares  : DMRG
   Ulf Ekstrom                                   : XCFun DFT Library
   Mihaly Kallay                                 : mrcc  (arbitrary order and MRCC methods)
   Frank Weinhold                                : gennbo (NPA and NBO analysis)
   Simon Mueller                                 : openCOSMO-RS
   Christopher J. Cramer and Donald G. Truhlar   : smd solvation model
   Lars Goerigk                                  : TD-DFT with DH, B97 family of functionals
   V. Asgeirsson, H. Jonsson                     : NEB implementation
   FAccTs GmbH                                   : IRC, NEB, NEB-TS, DLPNO-Multilevel, CI-OPT
                                                   MM, QMMM, 2- and 3-layer-ONIOM, Crystal-QMMM,
                                                   LR-CPCM, SF, NACMEs, symmetry and pop. for TD-DFT,
                                                   nearIR, NL-DFT gradient (VV10), updates on ESD,
                                                   ML-optimized integration grids, MBIS, APM,
                                                   GOAT, DOCKER, SOLVATOR, interface openCOSMO-RS
   S Lehtola, MJT Oliveira, MAL Marques          : LibXC Library
   Liviu Ungur et al                             : ANISO software


 Your calculation uses the libint2 library for the computation of 2-el integrals
 For citations please refer to: http://libint.valeyev.net

 Your ORCA version has been built with support for libXC version: 6.2.2
 For citations please refer to: https://libxc.gitlab.io

 This ORCA versions uses:
   CBLAS   interface :  Fast vector & matrix operations
   LAPACKE interface :  Fast linear algebra routines
   SCALAPACK package :  Parallel linear algebra routines
   Shared memory     :  Shared parallel matrices
   BLAS/LAPACK       :  OpenBLAS 0.3.27  USE64BITINT DYNAMIC_ARCH NO_AFFINITY SkylakeX SINGLE_THREADED
        Core in use  :  SkylakeX
   Copyright (c) 2011-2014, The OpenBLAS Project


Your calculation utilizes the geometrical counterpoise correction gCP
Please cite in your paper:
H.Kruse, S. Grimme J.Chem.Phys., 136, (2012), 154101 
   

Your calculation utilizes the atom-pairwise dispersion correction
based on EEQ partial charges (D4)


================================================================================

----- Orbital basis set information -----
Your calculation utilizes the basis: def2-mTZVPP
   Stefan Grimme, Andreas Hansen, Sebastian Ehlert, and Jan-Michael Mewes 
   J. Chem. Phys. 154, 064103 (2021). DOI: 10.1063/5.0040021

----- AuxJ basis set information -----
Your calculation utilizes the auxiliary basis: def2/J
   F. Weigend, Phys. Chem. Chem. Phys. 8, 1057 (2006).

================================================================================
                                        WARNINGS
                       Please study these warnings very carefully!
================================================================================

Using LibXC functional ID 497 : Re-regularized SCAN exchange by Furness et al
[ 1]  J. W. Furness, A. D. Kaplan, J. Ning, J. P. Perdew, and J. Sun.,  J. Phys. Chem. Lett. 11, 8208-8215 (2020)
[ 2]  J. W. Furness, A. D. Kaplan, J. Ning, J. P. Perdew, and J. Sun.,  J. Phys. Chem. Lett. 11, 9248-9248 (2020)
Using LibXC functional ID 498 : Re-regularized SCAN correlation by Furness et al
[ 1]  J. W. Furness, A. D. Kaplan, J. Ning, J. P. Perdew, and J. Sun.,  J. Phys. Chem. Lett. 11, 8208-8215 (2020)
[ 2]  J. W. Furness, A. D. Kaplan, J. Ning, J. P. Perdew, and J. Sun.,  J. Phys. Chem. Lett. 11, 9248-9248 (2020)
Using LibXC functional ID 497 : Re-regularized SCAN exchange by Furness et al
[ 1]  J. W. Furness, A. D. Kaplan, J. Ning, J. P. Perdew, and J. Sun.,  J. Phys. Chem. Lett. 11, 8208-8215 (2020)
[ 2]  J. W. Furness, A. D. Kaplan, J. Ning, J. P. Perdew, and J. Sun.,  J. Phys. Chem. Lett. 11, 9248-9248 (2020)
Using LibXC functional ID 498 : Re-regularized SCAN correlation by Furness et al
[ 1]  J. W. Furness, A. D. Kaplan, J. Ning, J. P. Perdew, and J. Sun.,  J. Phys. Chem. Lett. 11, 8208-8215 (2020)
[ 2]  J. W. Furness, A. D. Kaplan, J. Ning, J. P. Perdew, and J. Sun.,  J. Phys. Chem. Lett. 11, 9248-9248 (2020)

================================================================================
                                       INPUT FILE
================================================================================
NAME = sp_gas.inp
|  1> ! r2scan-3c def2/J RI DEFGRID2 scfconv6 printgap
|  2> %output
|  3>     printlevel normal
|  4> end
|  5> * xyz 0 1
|  6> C -4.6000483547 -1.1708629879 0.0925148551
|  7> C -3.814890273 -2.3038641002 -0.0706997397
|  8> C -2.4407345316 -2.1862537428 -0.1666264063
|  9> C -1.8260497852 -0.9374815355 -0.099673913
| 10> C -2.6192397526 0.2031361068 0.0669233706
| 11> C -4.0039628907 0.0740395596 0.1606481097
| 12> C -2.0088679065 1.5355839185 0.1436704234
| 13> O -2.6916428488 2.5480324337 0.2864320717
| 14> C -0.5398286764 1.6015172607 0.0450264302
| 15> C 0.0339371948 2.8574288884 0.1373729902
| 16> C 1.4151517825 3.0079406589 0.0473815032
| 17> C 2.2167424819 1.9130771877 -0.1297286283
| 18> C 1.6795196097 0.6052817328 -0.2198533186
| 19> C 0.2591903278 0.4469259788 -0.1335668787
| 20> C -0.356218952 -0.8601495688 -0.2161837079
| 21> O 0.2857879103 -1.9140574232 -0.3783285819
| 22> N 2.4624212046 -0.4636654214 -0.4077772719
| 23> C 3.8970832208 -0.5528474569 -0.3892915577
| 24> C 4.341258472 -1.6630137328 0.5812121268
| 25> O 5.7218017941 -1.9201534403 0.5015975189
| 26> H -5.6724325539 -1.2598093361 0.1661380018
| 27> H -4.2750786761 -3.2780276572 -0.1238269311
| 28> H -1.8131198982 -3.0555982872 -0.2955658926
| 29> H -4.5894103888 0.9727296042 0.2870902938
| 30> H -0.6148726202 3.7087019772 0.2740972107
| 31> H 1.850424346 3.9927587933 0.1110209271
| 32> H 3.2804682402 2.0541990868 -0.2180588014
| 33> H 1.9634863938 -1.3493408398 -0.4878740319
| 34> H 4.3414466951 0.3930883625 -0.0816446049
| 35> H 4.2659655194 -0.8050713088 -1.390199785
| 36> H 3.8497606297 -2.6016113361 0.3131845228
| 37> H 4.0488260551 -1.4000673856 1.6058002954
| 38> H 6.2149953602 -1.1434244566 0.8010406079
| 39> *
| 40> 
| 41>                          ****END OF INPUT****
================================================================================

                       ****************************
                       * Single Point Calculation *
                       ****************************

---------------------------------
CARTESIAN COORDINATES (ANGSTROEM)
---------------------------------
  C     -4.600048   -1.170863    0.092515
  C     -3.814890   -2.303864   -0.070700
  C     -2.440735   -2.186254   -0.166626
  C     -1.826050   -0.937482   -0.099674
  C     -2.619240    0.203136    0.066923
  C     -4.003963    0.074040    0.160648
  C     -2.008868    1.535584    0.143670
  O     -2.691643    2.548032    0.286432
  C     -0.539829    1.601517    0.045026
  C      0.033937    2.857429    0.137373
  C      1.415152    3.007941    0.047382
  C      2.216742    1.913077   -0.129729
  C      1.679520    0.605282   -0.219853
  C      0.259190    0.446926   -0.133567
  C     -0.356219   -0.860150   -0.216184
  O      0.285788   -1.914057   -0.378329
  N      2.462421   -0.463665   -0.407777
  C      3.897083   -0.552847   -0.389292
  C      4.341258   -1.663014    0.581212
  O      5.721802   -1.920153    0.501598
  H     -5.672433   -1.259809    0.166138
  H     -4.275079   -3.278028   -0.123827
  H     -1.813120   -3.055598   -0.295566
  H     -4.589410    0.972730    0.287090
  H     -0.614873    3.708702    0.274097
  H      1.850424    3.992759    0.111021
  H      3.280468    2.054199   -0.218059
  H      1.963486   -1.349341   -0.487874
  H      4.341447    0.393088   -0.081645
  H      4.265966   -0.805071   -1.390200
  H      3.849761   -2.601611    0.313185
  H      4.048826   -1.400067    1.605800
  H      6.214995   -1.143424    0.801041

----------------------------
CARTESIAN COORDINATES (A.U.)
----------------------------
  NO LB      ZA    FRAG     MASS         X           Y           Z
   0 C     6.0000    0    12.011   -8.692832   -2.212610    0.174828
   1 C     6.0000    0    12.011   -7.209098   -4.353672   -0.133603
   2 C     6.0000    0    12.011   -4.612320   -4.131421   -0.314878
   3 C     6.0000    0    12.011   -3.450734   -1.771583   -0.188356
   4 C     6.0000    0    12.011   -4.949646    0.383872    0.126467
   5 C     6.0000    0    12.011   -7.566393    0.139914    0.303581
   6 C     6.0000    0    12.011   -3.796210    2.901833    0.271498
   7 O     8.0000    0    15.999   -5.086468    4.815083    0.541278
   8 C     6.0000    0    12.011   -1.020128    3.026429    0.085088
   9 C     6.0000    0    12.011    0.064132    5.399758    0.259597
  10 C     6.0000    0    12.011    2.674249    5.684184    0.089538
  11 C     6.0000    0    12.011    4.189036    3.615192   -0.245152
  12 C     6.0000    0    12.011    3.173832    1.143817   -0.415463
  13 C     6.0000    0    12.011    0.489799    0.844568   -0.252405
  14 C     6.0000    0    12.011   -0.673156   -1.625447   -0.408528
  15 O     8.0000    0    15.999    0.540061   -3.617044   -0.714937
  16 N     7.0000    0    14.007    4.653302   -0.876201   -0.770587
  17 C     6.0000    0    12.011    7.364420   -1.044730   -0.735654
  18 C     6.0000    0    12.011    8.203790   -3.142641    1.098332
  19 O     8.0000    0    15.999   10.812638   -3.628564    0.947882
  20 H     1.0000    0     1.008  -10.719344   -2.380695    0.313955
  21 H     1.0000    0     1.008   -8.078728   -6.194575   -0.233999
  22 H     1.0000    0     1.008   -3.426300   -5.774244   -0.558539
  23 H     1.0000    0     1.008   -8.672729    1.838193    0.542522
  24 H     1.0000    0     1.008   -1.161941    7.008431    0.517969
  25 H     1.0000    0     1.008    3.496795    7.545221    0.209799
  26 H     1.0000    0     1.008    6.199187    3.881874   -0.412071
  27 H     1.0000    0     1.008    3.710452   -2.549885   -0.921948
  28 H     1.0000    0     1.008    8.204145    0.742829   -0.154286
  29 H     1.0000    0     1.008    8.061507   -1.521364   -2.627097
  30 H     1.0000    0     1.008    7.274993   -4.916333    0.591833
  31 H     1.0000    0     1.008    7.651172   -2.645744    3.034523
  32 H     1.0000    0     1.008   11.744639   -2.160759    1.513747

--------------------------------
INTERNAL COORDINATES (ANGSTROEM)
--------------------------------
 C      0   0   0     0.000000000000     0.00000000     0.00000000
 C      1   0   0     1.388093562296     0.00000000     0.00000000
 C      2   1   0     1.382511527314   120.06227374     0.00000000
 C      3   2   1     1.393467616969   120.75415656     0.08658427
 C      4   3   2     1.399254653454   119.08989160     0.00000000
 C      1   2   3     1.381934286986   119.80869704   359.90934910
 C      5   4   3     1.467603853746   120.70104878   179.92036476
 O      7   5   4     1.229477330409   121.51697699   179.81096193
 C      7   5   4     1.473822954965   116.85044612   359.65815142
 C      9   7   5     1.383853019179   116.70537963   180.91621129
 C     10   9   7     1.392302408985   120.33852624   180.31508160
 C     11  10   9     1.368444981946   120.19717604   359.82562089
 C     12  11  10     1.416707389009   121.64659163   359.67785729
 C      9   7   5     1.415417947921   122.31891449     0.83499092
 C     14   9   7     1.447066207630   120.26093059   359.52976896
 O     15  14   9     1.244662820595   123.56629478   179.67143635
 N     13  12  11     1.338244498585   121.63133008   179.25291486
 C     17  13  12     1.437550088801   129.16781255     8.28395656
 C     18  17  13     1.540012407597   109.91764804   127.21821733
 O     19  18  17     1.406541566808   112.28479095   171.75650099
 H      1   2   3     1.078582259859   120.20545767   179.90882993
 H      2   1   3     1.078698521646   120.10661550   180.05005238
 H      3   2   1     1.079946969098   121.16099710   180.10801604
 H      6   1   2     1.079990831079   121.43711933   179.98933780
 H     10   9   7     1.079033623307   118.36822298   359.96973411
 H     11  10   9     1.078600453668   119.68486587   179.39987384
 H     12  11  10     1.076675484422   118.97790981   178.69173367
 H     17  13  12     1.019692298269   114.74414606   181.94176556
 H     18  17  13     1.089449456966   110.90536490     6.25437113
 H     18  17  13     1.096133340960   109.77865489   246.13403106
 H     19  18  17     1.092874368998   109.56343403    54.63305770
 H     19  18  17     1.097469095326   109.80197437   295.74186820
 H     20  19  18     0.967581506289   109.63470541    65.30760209

---------------------------
INTERNAL COORDINATES (A.U.)
---------------------------
 C      0   0   0     0.000000000000     0.00000000     0.00000000
 C      1   0   0     2.623116680999     0.00000000     0.00000000
 C      2   1   0     2.612568163612   120.06227374     0.00000000
 C      3   2   1     2.633272172559   120.75415656     0.08658427
 C      4   3   2     2.644208086643   119.08989160     0.00000000
 C      1   2   3     2.611477337479   119.80869704   359.90934910
 C      5   4   3     2.773369356667   120.70104878   179.92036476
 O      7   5   4     2.323375442337   121.51697699   179.81096193
 C      7   5   4     2.785121754770   116.85044612   359.65815142
 C      9   7   5     2.615103215848   116.70537963   180.91621129
 C     10   9   7     2.631070248581   120.33852624   180.31508160
 C     11  10   9     2.585986245216   120.19717604   359.82562089
 C     12  11  10     2.677188977130   121.64659163   359.67785729
 C      9   7   5     2.674752286607   122.31891449     0.83499092
 C     14   9   7     2.734558830073   120.26093059   359.52976896
 O     15  14   9     2.352071859998   123.56629478   179.67143635
 N     13  12  11     2.528915602553   121.63133008   179.25291486
 C     17  13  12     2.716575971629   129.16781255     8.28395656
 C     18  17  13     2.910201693199   109.91764804   127.21821733
 O     19  18  17     2.657978357244   112.28479095   171.75650099
 H      1   2   3     2.038225084039   120.20545767   179.90882993
 H      2   1   3     2.038444786976   120.10661550   180.05005238
 H      3   2   1     2.040804010753   121.16099710   180.10801604
 H      6   1   2     2.040886897885   121.43711933   179.98933780
 H     10   9   7     2.039078037343   118.36822298   359.96973411
 H     11  10   9     2.038259465356   119.68486587   179.39987384
 H     12  11  10     2.034621800665   118.97790981   178.69173367
 H     17  13  12     1.926939184597   114.74414606   181.94176556
 H     18  17  13     2.058761110415   110.90536490     6.25437113
 H     18  17  13     2.071391820675   109.77865489   246.13403106
 H     19  18  17     2.065233256188   109.56343403    54.63305770
 H     19  18  17     2.073916030608   109.80197437   295.74186820
 H     20  19  18     1.828464059133   109.63470541    65.30760209

---------------------
BASIS SET INFORMATION
---------------------
There are 4 groups of distinct atoms

 Group   1 Type C   : 11s6p1d contracted to 5s3p1d pattern {62111/411/1}
 Group   2 Type O   : 11s6p2d contracted to 5s3p2d pattern {62111/411/11}
 Group   3 Type N   : 11s6p2d contracted to 5s3p2d pattern {62111/411/11}
 Group   4 Type H   : 4s1p contracted to 2s1p pattern {31/1}

Atom   0C    basis set group =>   1
Atom   1C    basis set group =>   1
Atom   2C    basis set group =>   1
Atom   3C    basis set group =>   1
Atom   4C    basis set group =>   1
Atom   5C    basis set group =>   1
Atom   6C    basis set group =>   1
Atom   7O    basis set group =>   2
Atom   8C    basis set group =>   1
Atom   9C    basis set group =>   1
Atom  10C    basis set group =>   1
Atom  11C    basis set group =>   1
Atom  12C    basis set group =>   1
Atom  13C    basis set group =>   1
Atom  14C    basis set group =>   1
Atom  15O    basis set group =>   2
Atom  16N    basis set group =>   3
Atom  17C    basis set group =>   1
Atom  18C    basis set group =>   1
Atom  19O    basis set group =>   2
Atom  20H    basis set group =>   4
Atom  21H    basis set group =>   4
Atom  22H    basis set group =>   4
Atom  23H    basis set group =>   4
Atom  24H    basis set group =>   4
Atom  25H    basis set group =>   4
Atom  26H    basis set group =>   4
Atom  27H    basis set group =>   4
Atom  28H    basis set group =>   4
Atom  29H    basis set group =>   4
Atom  30H    basis set group =>   4
Atom  31H    basis set group =>   4
Atom  32H    basis set group =>   4
---------------------------------
AUXILIARY/J BASIS SET INFORMATION
---------------------------------
There are 4 groups of distinct atoms

 Group   1 Type C   : 12s5p4d2f1g contracted to 6s4p3d1f1g pattern {711111/2111/211/2/1}
 Group   2 Type O   : 12s5p4d2f1g contracted to 6s4p3d1f1g pattern {711111/2111/211/2/1}
 Group   3 Type N   : 12s5p4d2f1g contracted to 6s4p3d1f1g pattern {711111/2111/211/2/1}
 Group   4 Type H   : 5s2p1d contracted to 3s1p1d pattern {311/2/1}

Atom   0C    basis set group =>   1
Atom   1C    basis set group =>   1
Atom   2C    basis set group =>   1
Atom   3C    basis set group =>   1
Atom   4C    basis set group =>   1
Atom   5C    basis set group =>   1
Atom   6C    basis set group =>   1
Atom   7O    basis set group =>   2
Atom   8C    basis set group =>   1
Atom   9C    basis set group =>   1
Atom  10C    basis set group =>   1
Atom  11C    basis set group =>   1
Atom  12C    basis set group =>   1
Atom  13C    basis set group =>   1
Atom  14C    basis set group =>   1
Atom  15O    basis set group =>   2
Atom  16N    basis set group =>   3
Atom  17C    basis set group =>   1
Atom  18C    basis set group =>   1
Atom  19O    basis set group =>   2
Atom  20H    basis set group =>   4
Atom  21H    basis set group =>   4
Atom  22H    basis set group =>   4
Atom  23H    basis set group =>   4
Atom  24H    basis set group =>   4
Atom  25H    basis set group =>   4
Atom  26H    basis set group =>   4
Atom  27H    basis set group =>   4
Atom  28H    basis set group =>   4
Atom  29H    basis set group =>   4
Atom  30H    basis set group =>   4
Atom  31H    basis set group =>   4
Atom  32H    basis set group =>   4

Checking for AutoStart:
The File: sp_gas.gbw exists
Trying to determine its content:
     ... Fine, the file contains calculation information
     ... Fine, the calculation information was read
     ... Fine, the file contains a basis set
     ... Fine, the basis set was read
     ... Fine, the file contains a geometry
     ... Fine, the geometry was read
     ... Fine, the file contains a set of orbitals
     ... Fine, the orbitals can be read
     => possible old guess file was deleted
     => GBW file was renamed to GES file
     => GES file is set as startup file
     => Guess is set to MORead
     ... now leaving AutoStart

------------------------------------------------------------------------------
                             ORCA STARTUP CALCULATIONS
                           -- RI-GTO INTEGRALS CHOSEN --
------------------------------------------------------------------------------
------------------------------------------------------------------------------
                   ___                                                        
                  /   \      - P O W E R E D   B Y -                         
                 /     \                                                     
                 |  |  |   _    _      __       _____    __    __             
                 |  |  |  | |  | |    /  \     |  _  \  |  |  /  |          
                  \  \/   | |  | |   /    \    | | | |  |  | /  /          
                 / \  \   | |__| |  /  /\  \   | |_| |  |  |/  /          
                |  |  |   |  __  | /  /__\  \  |    /   |      \           
                |  |  |   | |  | | |   __   |  |    \   |  |\   \          
                \     /   | |  | | |  |  |  |  | |\  \  |  | \   \       
                 \___/    |_|  |_| |__|  |__|  |_| \__\ |__|  \__/        
                                                                              
                      - O R C A' S   B I G   F R I E N D -                    
                                      &                                       
                       - I N T E G R A L  F E E D E R -                       
                                                                              
 v1 FN, 2020, v2 2021, v3 2022-2024                                           
------------------------------------------------------------------------------


----------------------
SHARK INTEGRAL PACKAGE
----------------------

Number of atoms                             ...     33
Number of basis functions                   ...    465
Number of shells                            ...    223
Maximum angular momentum                    ...      2
Integral batch strategy                     ... SHARK/LIBINT Hybrid
RI-J (if used) integral strategy            ... SPLIT-RIJ (Revised 2003 algorithm where possible)
Printlevel                                  ...      1
Contraction scheme used                     ... SEGMENTED contraction
Prescreening option                         ... SCHWARTZ
   Thresh                                   ... 1.000e-10
   Tcut                                     ... 1.000e-11
   Tpresel                                  ... 1.000e-11 
Coulomb Range Separation                    ... NOT USED
Exchange Range Separation                   ... NOT USED
Multipole approximations                    ... NOT USED
Finite Nucleus Model                        ... NOT USED
CABS basis                                  ... NOT available
Auxiliary Coulomb fitting basis             ... AVAILABLE
   # of basis functions in Aux-J            ...   1123
   # of shells in Aux-J                     ...    365
   Maximum angular momentum in Aux-J        ...      4
Auxiliary J/K fitting basis                 ... NOT available
Auxiliary Correlation fitting basis         ... NOT available
Auxiliary 'external' fitting basis          ... NOT available

Checking pre-screening integrals            ... done (  0.0 sec) Dimension = 223
Check shell pair data                       ... done (  0.0 sec)
Shell pair information
Shell pair cut-off parameter TPreSel        ...   1.0e-11
Total number of shell pairs                 ...     24976
Shell pairs after pre-screening             ...     17694
Total number of primitive shell pairs       ...     92714
Primitive shell pairs kept                  ...     41912
          la=0 lb=0:   5325 shell pairs
          la=1 lb=0:   6740 shell pairs
          la=1 lb=1:   2122 shell pairs
          la=2 lb=0:   2014 shell pairs
          la=2 lb=1:   1283 shell pairs
          la=2 lb=2:    210 shell pairs

Calculating one electron integrals          ... done (  0.1 sec)
Calculating RI/J V-Matrix + Cholesky decomp.... done (  0.2 sec)
Calculating Nuclear repulsion               ... done (  0.0 sec) ENN=   1450.350396180410 Eh

Diagonalization of the overlap matrix:
Smallest eigenvalue                        ... 6.097e-06
Time for diagonalization                   ...    0.030 sec
Threshold for overlap eigenvalues          ... 1.000e-07
Number of eigenvalues below threshold      ... 0
Time for construction of square roots      ...    0.032 sec
Total time needed                          ...    0.073 sec

-------------------
DFT GRID GENERATION
-------------------

General Integration Accuracy     IntAcc      ... 4.388
Radial Grid Type                 RadialGrid  ... OptM3 with GC (2021)
Angular Grid (max. ang.)         AngularGrid ... 4 (Lebedev-302)
Angular grid pruning method      GridPruning ... 4 (adaptive)
Weight generation scheme         WeightScheme... mBecke (2022)
Basis function cutoff            BFCut       ... 1.0000e-10
Integration weight cutoff        WCut        ... 1.0000e-14
Partially contracted basis set               ... off
Rotationally invariant grid construction     ... off
Angular grids for H and He will be reduced by one unit
Diffuse basis detected: some atoms will have their outermost
                        angular grid increased by 1.

Total number of grid points                  ...   161885
Total number of batches                      ...     2549
Average number of points per batch           ...       63
Average number of grid points per atom       ...     4906
Initializing property integral containers    ... done (  0.0 sec)

SHARK setup successfully completed in   3.4 seconds

Maximum memory used throughout the entire STARTUP-calculation: 83.1 MB
-------------------------------------------------------------------------------
                                 ORCA GUESS
                   Start orbitals & Density for SCF / CASSCF
-------------------------------------------------------------------------------

------------
SCF SETTINGS
------------
Hamiltonian:
 Density Functional     Method          .... DFT(GTOs)
  Functional kind                       .... Exchange
  Functional name                       .... Re-regularized SCAN exchange by Furness et al
  Functional family                     .... MGGA
  Functional refs                              
    [ 0] J. W. Furness, A. D. Kaplan, J. Ning, J. P. Perdew, and J. Sun.,  J. Phys. Chem. Lett. 11, 8208-8215 (2020), doi: 10.1021/acs.jpclett.0c02405
    [ 1] J. W. Furness, A. D. Kaplan, J. Ning, J. P. Perdew, and J. Sun.,  J. Phys. Chem. Lett. 11, 9248-9248 (2020), doi: 10.1021/acs.jpclett.0c03077
  Functional external parameters        .... 6
    Parameter  0 _c1        =  6.670000e-01 : c1 parameter        
    Parameter  1 _c2        =  8.000000e-01 : c2 parameter        
    Parameter  2 _d         =  1.240000e+00 : d parameter         
    Parameter  3 _k1        =  6.500000e-02 : k1 parameter        
    Parameter  4 _eta       =  1.000000e-03 : eta parameter       
    Parameter  5 _dp2       =  3.610000e-01 : dp2 parameter       
  Functional kind                       .... Correlation
  Functional name                       .... Re-regularized SCAN correlation by Furness et al
  Functional family                     .... MGGA
  Functional refs                              
    [ 0] J. W. Furness, A. D. Kaplan, J. Ning, J. P. Perdew, and J. Sun.,  J. Phys. Chem. Lett. 11, 8208-8215 (2020), doi: 10.1021/acs.jpclett.0c02405
    [ 1] J. W. Furness, A. D. Kaplan, J. Ning, J. P. Perdew, and J. Sun.,  J. Phys. Chem. Lett. 11, 9248-9248 (2020), doi: 10.1021/acs.jpclett.0c03077
  Functional external parameters        .... 1
    Parameter  0 _eta       =  1.000000e-03 : Regularization parameter
 Gradients option       PostSCFGGA      .... off
 RI-approximation to the Coulomb term is turned on
   Number of AuxJ basis functions       .... 1123


General Settings:
 Integral files         IntName         .... sp_gas
 Hartree-Fock type      HFTyp           .... RHF
 Total Charge           Charge          ....    0
 Multiplicity           Mult            ....    1
 Number of Electrons    NEL             ....  140
 Basis Dimension        Dim             ....  465
 Nuclear Repulsion      ENuc            ....   1450.3503961804 Eh

Convergence Acceleration:
 AO-DIIS                CNVDIIS         .... on
   Start iteration      DIISMaxIt       ....    12
   Startup error        DIISStart       ....  0.200000
   # of expansion vecs  DIISMaxEq       ....     5
   Bias factor          DIISBfac        ....   1.050
   Max. coefficient     DIISMaxC        ....  10.000
 MO-DIIS                CNVKDIIS        .... off
 Trust-Rad. Augm. Hess. CNVTRAH         .... auto
   Auto Start mean grad. ratio tolernc. ....  1.125000
   Auto Start start iteration           ....     1
   Auto Start num. interpolation iter.  ....    10
   Max. Number of Micro iterations      ....    24
   Max. Number of Macro iterations      .... Maxiter - #DIIS iter
   Number of Davidson start vectors     ....     2
   Converg. threshold    (grad. norm)   ....   3.330e-04
   Grad. Scal. Fac. for Micro threshold ....   0.100
   Minimum threshold for Micro iter.    ....   1.000e-02
   NR start threshold (gradient norm)   ....   1.000e-04
   Initial trust radius                 ....   0.400
   Minimum AH scaling param. (alpha)    ....   1.000
   Maximum AH scaling param. (alpha)    .... 1000.000
   Quad. conv. algorithm                .... NR
   White noise on init. David. guess    .... on
   Maximum white noise                  ....   0.010
   Pseudo random numbers                .... off
   Inactive MOs                         .... canonical
   Orbital update algorithm             .... Taylor
   Preconditioner                       .... Diag
   Full preconditioner red. dimension   ....   250
   COSX micro iterations for RIJONX calc.... off
 SOSCF                  CNVSOSCF        .... on
   Start iteration      SOSCFMaxIt      ....   150
   Startup grad/error   SOSCFStart      ....  0.003300
   Hessian update       SOSCFHessUp     .... L-BFGS
 Level Shifting         CNVShift        .... on
   Level shift para.    LevelShift      ....    0.2500
   Turn off err/grad.   ShiftErr        ....    0.0010
 Zerner damping         CNVZerner       .... off
 Static damping         CNVDamp         .... on
   Fraction old density DampFac         ....    0.7000
   Max. Damping (<1)    DampMax         ....    0.9800
   Min. Damping (>=0)   DampMin         ....    0.0000
   Turn off err/grad.   DampErr         ....    0.1000

SCF Procedure:
 Maximum # iterations   MaxIter         ....   125
 SCF integral mode      SCFMode         .... Direct
   Integral package                     .... SHARK and LIBINT hybrid scheme
 Reset frequency        DirectResetFreq ....    20
 Integral Threshold     Thresh          ....  1.000e-10 Eh
 Primitive CutOff       TCut            ....  1.000e-11 Eh

Convergence Tolerance:
 Convergence Check Mode ConvCheckMode   .... Total+1el-Energy
 Convergence forced     ConvForced      .... 0
 Energy Change          TolE            ....  1.000e-06 Eh
 1-El. energy change                    ....  1.000e-03 Eh
 Orbital Gradient       TolG            ....  3.330e-04
 Orbital Rotation angle TolX            ....  3.330e-04
 DIIS Error             TolErr          ....  1.000e-06

---------------------
INITIAL GUESS: MOREAD
---------------------
Guess MOs are being read from file: sp_gas.ges
Input Geometry matches current geometry (good)
Atom 0: N(Shells)= 9 and 6 - projection required
Input basis set needs projection
NBasis(read)= 306
NBasis(calc)= 465
Basis set overlap was calculated
Using GuessMode=FMatrix for the initial guess
C*T matrix was formed
Effective Fockian was calculated
Effective Fockian was diagonalized
Initial density was built
                      ------------------
                      INITIAL GUESS DONE (   0.1 sec)
                      ------------------
             **** ENERGY FILE WAS UPDATED (sp_gas.en.tmp) ****
Finished Guess after   0.7 sec
Maximum memory used throughout the entire GUESS-calculation: 46.8 MB

-------------------------------------------------------------------------------------------
                                      ORCA LEAN-SCF
                              memory conserving SCF solver
-------------------------------------------------------------------------------------------

----------------------------------------D-I-I-S--------------------------------------------
Iteration    Energy (Eh)           Delta-E    RMSDP     MaxDP     DIISErr   Damp  Time(sec)
-------------------------------------------------------------------------------------------
               ***  Starting incremental Fock matrix formation  ***
    1    -897.3644114095420719     0.00e+00  2.41e-02  1.72e+00  6.27e-01  0.700  11.8
Warning: op=0 Small HOMO/LUMO gap (   0.068) - skipping pre-diagonalization
         Will do a full diagonalization
    2    -897.4888780572084670    -1.24e-01  1.75e-02  1.19e+00  4.41e-01  0.700   9.7
    3    -897.5767490207169885    -8.79e-02  1.22e-02  8.24e-01  3.09e-01  0.700   9.6
    4    -897.6383703437161330    -6.16e-02  8.53e-03  5.71e-01  2.16e-01  0.700   9.4
                               ***Turning on AO-DIIS***
    5    -897.6815746822646815    -4.32e-02  5.95e-03  3.94e-01  1.51e-01  0.700   9.3
    6    -897.7118488781632095    -3.03e-02  4.17e-03  2.77e-01  1.06e-01  0.700   9.2
    7    -897.7330684593268870    -2.12e-02  2.92e-03  1.94e-01  7.42e-02  0.700   9.0
    8    -897.7479331551905943    -1.49e-02  6.79e-03  4.50e-01  5.20e-02  0.000   8.8
                              *** Initializing SOSCF ***
---------------------------------------S-O-S-C-F--------------------------------------
Iteration    Energy (Eh)           Delta-E    RMSDP     MaxDP     MaxGrad    Time(sec)
--------------------------------------------------------------------------------------
    9    -897.7826547113588731    -3.47e-02  1.90e-05  1.72e-03  3.14e-04     9.8
               *** Restarting incremental Fock matrix formation ***
   10    -897.7826544117458525     3.00e-07  1.36e-04  1.09e-02  2.24e-04    11.3
   11    -897.7826500327471422     4.38e-06  6.30e-05  4.39e-03  6.38e-04     7.5
   12    -897.7826552507565339    -5.22e-06  4.70e-05  3.07e-03  1.38e-05     7.4
                  *** Gradient check signals convergence ***

               *****************************************************
               *                     SUCCESS                       *
               *           SCF CONVERGED AFTER  12 CYCLES          *
               *****************************************************

             **** ENERGY FILE WAS UPDATED (sp_gas.en.tmp) ****

----------------
TOTAL SCF ENERGY
----------------

Total Energy       :       -897.78265525075653 Eh          -24429.90804 eV

Components:
Nuclear Repulsion  :       1450.35039618040969 Eh           39466.04069 eV
Electronic Energy  :      -2348.13305143116622 Eh          -63895.94874 eV
One Electron Energy:      -4100.53669513287241 Eh         -111581.27616 eV
Two Electron Energy:       1752.40364370170619 Eh           47685.32742 eV

Virial components:
Potential Energy   :      -1792.09053825434694 Eh          -48765.26272 eV
Kinetic Energy     :        894.30788300359052 Eh           24335.35468 eV
Virial Ratio       :          2.00388543175477

DFT components:
N(Alpha)           :       70.000054398211 electrons
N(Beta)            :       70.000054398211 electrons
N(Total)           :      140.000108796421 electrons
E(X)               :     -119.555540599194 Eh       
E(C)               :       -4.617940399760 Eh       
E(XC)              :     -124.173480998954 Eh       

---------------
SCF CONVERGENCE
---------------

  Last Energy change         ...    5.2180e-06  Tolerance :   1.0000e-06
  Last MAX-Density change    ...    3.0665e-03  Tolerance :   1.0000e-05
  Last RMS-Density change    ...    4.7000e-05  Tolerance :   1.0000e-06
  Last DIIS Error            ...    3.1417e-04  Tolerance :   1.0000e-06
  Last Orbital Gradient      ...    1.3843e-05  Tolerance :   3.3300e-04
  Last Orbital Rotation      ...    6.4481e-05  Tolerance :   3.3300e-04


----------------
ORBITAL ENERGIES
----------------

  NO   OCC          E(Eh)            E(eV) 
   0   2.0000     -18.967411      -516.1295 
   1   2.0000     -18.943291      -515.4732 
   2   2.0000     -18.938129      -515.3327 
   3   2.0000     -14.192942      -386.2096 
   4   2.0000     -10.125482      -275.5284 
   5   2.0000     -10.122333      -275.4427 
   6   2.0000     -10.107420      -275.0369 
   7   2.0000     -10.094912      -274.6965 
   8   2.0000     -10.084878      -274.4235 
   9   2.0000     -10.059843      -273.7422 
  10   2.0000     -10.059734      -273.7393 
  11   2.0000     -10.058422      -273.7036 
  12   2.0000     -10.057310      -273.6733 
  13   2.0000     -10.056865      -273.6612 
  14   2.0000     -10.054255      -273.5902 
  15   2.0000     -10.053286      -273.5638 
  16   2.0000     -10.052960      -273.5549 
  17   2.0000     -10.050705      -273.4936 
  18   2.0000     -10.049918      -273.4722 
  19   2.0000     -10.041658      -273.2474 
  20   2.0000      -1.007735       -27.4219 
  21   2.0000      -1.005035       -27.3484 
  22   2.0000      -1.002431       -27.2775 
  23   2.0000      -0.932462       -25.3736 
  24   2.0000      -0.851399       -23.1677 
  25   2.0000      -0.835770       -22.7425 
  26   2.0000      -0.775548       -21.1037 
  27   2.0000      -0.752587       -20.4789 
  28   2.0000      -0.737540       -20.0695 
  29   2.0000      -0.733213       -19.9517 
  30   2.0000      -0.697901       -18.9908 
  31   2.0000      -0.652278       -17.7494 
  32   2.0000      -0.634523       -17.2662 
  33   2.0000      -0.620057       -16.8726 
  34   2.0000      -0.604341       -16.4450 
  35   2.0000      -0.573926       -15.6173 
  36   2.0000      -0.554198       -15.0805 
  37   2.0000      -0.523361       -14.2414 
  38   2.0000      -0.520469       -14.1627 
  39   2.0000      -0.498037       -13.5523 
  40   2.0000      -0.492801       -13.4098 
  41   2.0000      -0.469439       -12.7741 
  42   2.0000      -0.461766       -12.5653 
  43   2.0000      -0.449735       -12.2379 
  44   2.0000      -0.442950       -12.0533 
  45   2.0000      -0.432210       -11.7610 
  46   2.0000      -0.422559       -11.4984 
  47   2.0000      -0.419532       -11.4160 
  48   2.0000      -0.407653       -11.0928 
  49   2.0000      -0.404134       -10.9970 
  50   2.0000      -0.403333       -10.9753 
  51   2.0000      -0.399555       -10.8724 
  52   2.0000      -0.389795       -10.6069 
  53   2.0000      -0.379900       -10.3376 
  54   2.0000      -0.373147       -10.1539 
  55   2.0000      -0.363996        -9.9048 
  56   2.0000      -0.355281        -9.6677 
  57   2.0000      -0.347057        -9.4439 
  58   2.0000      -0.336581        -9.1588 
  59   2.0000      -0.332315        -9.0428 
  60   2.0000      -0.323443        -8.8013 
  61   2.0000      -0.312902        -8.5145 
  62   2.0000      -0.297564        -8.0971 
  63   2.0000      -0.261951        -7.1281 
  64   2.0000      -0.258633        -7.0378 
  65   2.0000      -0.252758        -6.8779 
  66   2.0000      -0.250592        -6.8189 
  67   2.0000      -0.235306        -6.4030 
  68   2.0000      -0.222883        -6.0649 
  69   2.0000      -0.197675        -5.3790 
  70   0.0000      -0.130082        -3.5397 
  71   0.0000      -0.079659        -2.1676 
  72   0.0000      -0.051148        -1.3918 
  73   0.0000      -0.029186        -0.7942 
  74   0.0000       0.021868         0.5951 
  75   0.0000       0.032718         0.8903 
  76   0.0000       0.040076         1.0905 
  77   0.0000       0.064660         1.7595 
  78   0.0000       0.070519         1.9189 
  79   0.0000       0.083150         2.2626 
  80   0.0000       0.096933         2.6377 
*Only the first 10 virtual orbitals were printed.

                    ********************************
                    * MULLIKEN POPULATION ANALYSIS *
                    ********************************

-----------------------
MULLIKEN ATOMIC CHARGES
-----------------------
   0 C :   -0.131133
   1 C :   -0.127080
   2 C :   -0.223521
   3 C :    0.186575
   4 C :    0.136229
   5 C :   -0.215718
   6 C :    0.036724
   7 O :   -0.354154
   8 C :    0.191770
   9 C :   -0.249824
  10 C :   -0.125538
  11 C :   -0.331299
  12 C :    0.307712
  13 C :   -0.136753
  14 C :    0.023826
  15 O :   -0.441162
  16 N :   -0.061913
  17 C :   -0.202228
  18 C :   -0.171155
  19 O :   -0.406888
  20 H :    0.149084
  21 H :    0.148886
  22 H :    0.182441
  23 H :    0.181866
  24 H :    0.185509
  25 H :    0.147375
  26 H :    0.133159
  27 H :    0.300671
  28 H :    0.116179
  29 H :    0.166634
  30 H :    0.141706
  31 H :    0.141874
  32 H :    0.300146
Sum of atomic charges:    0.0000000

--------------------------------
MULLIKEN REDUCED ORBITAL CHARGES
--------------------------------
  0 C s       :     3.200690  s :     3.200690
      pz      :     0.967055  p :     2.892864
      px      :     1.019785
      py      :     0.906023
      dz2     :     0.003303  d :     0.037580
      dxz     :     0.002563
      dyz     :     0.006340
      dx2y2   :     0.013487
      dxy     :     0.011887

  1 C s       :     3.199445  s :     3.199445
      pz      :     0.961918  p :     2.889963
      px      :     0.934508
      py      :     0.993536
      dz2     :     0.003322  d :     0.037672
      dxz     :     0.005760
      dyz     :     0.003227
      dx2y2   :     0.012338
      dxy     :     0.013025

  2 C s       :     3.235864  s :     3.235864
      pz      :     0.942320  p :     2.950804
      px      :     0.977480
      py      :     1.031004
      dz2     :     0.003254  d :     0.036853
      dxz     :     0.005277
      dyz     :     0.003625
      dx2y2   :     0.011306
      dxy     :     0.013391

  3 C s       :     3.193833  s :     3.193833
      pz      :     0.986857  p :     2.574324
      px      :     0.726780
      py      :     0.860687
      dz2     :     0.003883  d :     0.045268
      dxz     :     0.004503
      dyz     :     0.006948
      dx2y2   :     0.016081
      dxy     :     0.013852

  4 C s       :     3.242069  s :     3.242069
      pz      :     0.987800  p :     2.576366
      px      :     0.847607
      py      :     0.740958
      dz2     :     0.003916  d :     0.045337
      dxz     :     0.006343
      dyz     :     0.004728
      dx2y2   :     0.014660
      dxy     :     0.015690

  5 C s       :     3.237294  s :     3.237294
      pz      :     0.934598  p :     2.941424
      px      :     0.984325
      py      :     1.022501
      dz2     :     0.003249  d :     0.037000
      dxz     :     0.005027
      dyz     :     0.003981
      dx2y2   :     0.012352
      dxy     :     0.012391

  6 C s       :     3.375202  s :     3.375202
      pz      :     0.779970  p :     2.495808
      px      :     0.897686
      py      :     0.818152
      dz2     :     0.005008  d :     0.092267
      dxz     :     0.009522
      dyz     :     0.013474
      dx2y2   :     0.040015
      dxy     :     0.024248

  7 O s       :     3.862648  s :     3.862648
      pz      :     1.364240  p :     4.466787
      px      :     1.664492
      py      :     1.438054
      dz2     :     0.005459  d :     0.024719
      dxz     :     0.005523
      dyz     :     0.008109
      dx2y2   :     0.000913
      dxy     :     0.004715

  8 C s       :     3.212084  s :     3.212084
      pz      :     0.985875  p :     2.550188
      px      :     0.687568
      py      :     0.876745
      dz2     :     0.004011  d :     0.045958
      dxz     :     0.004107
      dyz     :     0.008491
      dx2y2   :     0.015767
      dxy     :     0.013582

  9 C s       :     3.225180  s :     3.225180
      pz      :     0.968868  p :     2.988039
      px      :     0.983301
      py      :     1.035870
      dz2     :     0.003276  d :     0.036605
      dxz     :     0.005030
      dyz     :     0.003741
      dx2y2   :     0.011561
      dxy     :     0.012997

 10 C s       :     3.208879  s :     3.208879
      pz      :     0.948740  p :     2.877443
      px      :     0.945714
      py      :     0.982989
      dz2     :     0.003418  d :     0.039215
      dxz     :     0.006875
      dyz     :     0.003562
      dx2y2   :     0.012398
      dxy     :     0.012962

 11 C s       :     3.266186  s :     3.266186
      pz      :     1.047398  p :     3.029647
      px      :     1.046955
      py      :     0.935293
      dz2     :     0.003438  d :     0.035466
      dxz     :     0.002484
      dyz     :     0.005800
      dx2y2   :     0.013273
      dxy     :     0.010472

 12 C s       :     3.054072  s :     3.054072
      pz      :     0.891480  p :     2.572195
      px      :     0.856182
      py      :     0.824533
      dz2     :     0.005214  d :     0.066021
      dxz     :     0.009916
      dyz     :     0.013016
      dx2y2   :     0.018120
      dxy     :     0.019755

 13 C s       :     3.431591  s :     3.431591
      pz      :     1.088220  p :     2.662865
      px      :     0.817978
      py      :     0.756667
      dz2     :     0.003969  d :     0.042296
      dxz     :     0.005368
      dyz     :     0.004706
      dx2y2   :     0.014844
      dxy     :     0.013409

 14 C s       :     3.430662  s :     3.430662
      pz      :     0.789577  p :     2.454745
      px      :     0.853878
      py      :     0.811290
      dz2     :     0.005214  d :     0.090767
      dxz     :     0.008827
      dyz     :     0.015726
      dx2y2   :     0.037087
      dxy     :     0.023912

 15 O s       :     3.849531  s :     3.849531
      pz      :     1.440742  p :     4.558461
      px      :     1.693375
      py      :     1.424344
      dz2     :     0.006368  d :     0.033170
      dxz     :     0.004664
      dyz     :     0.008467
      dx2y2   :     0.008263
      dxy     :     0.005407

 16 N s       :     3.312406  s :     3.312406
      pz      :     1.588130  p :     3.658949
      px      :     0.972394
      py      :     1.098426
      dz2     :     0.013915  d :     0.090558
      dxz     :     0.013514
      dyz     :     0.008397
      dx2y2   :     0.029084
      dxy     :     0.025648

 17 C s       :     3.245546  s :     3.245546
      pz      :     1.051217  p :     2.908825
      px      :     0.846533
      py      :     1.011074
      dz2     :     0.009459  d :     0.047857
      dxz     :     0.012102
      dyz     :     0.005912
      dx2y2   :     0.012863
      dxy     :     0.007521

 18 C s       :     3.317853  s :     3.317853
      pz      :     1.029674  p :     2.794153
      px      :     0.752486
      py      :     1.011993
      dz2     :     0.010810  d :     0.059149
      dxz     :     0.014344
      dyz     :     0.006649
      dx2y2   :     0.013525
      dxy     :     0.013821

 19 O s       :     3.759256  s :     3.759256
      pz      :     1.859617  p :     4.633001
      px      :     1.214561
      py      :     1.558822
      dz2     :     0.004565  d :     0.014631
      dxz     :     0.000498
      dyz     :     0.004171
      dx2y2   :     0.003962
      dxy     :     0.001434

 20 H s       :     0.831399  s :     0.831399
      pz      :     0.004006  p :     0.019517
      px      :     0.012328
      py      :     0.003184

 21 H s       :     0.831624  s :     0.831624
      pz      :     0.003964  p :     0.019490
      px      :     0.004799
      py      :     0.010726

 22 H s       :     0.797531  s :     0.797531
      pz      :     0.003844  p :     0.020028
      px      :     0.007163
      py      :     0.009021

 23 H s       :     0.798191  s :     0.798191
      pz      :     0.003799  p :     0.019943
      px      :     0.005609
      py      :     0.010534

 24 H s       :     0.794241  s :     0.794241
      pz      :     0.004108  p :     0.020249
      px      :     0.007452
      py      :     0.008689

 25 H s       :     0.833152  s :     0.833152
      pz      :     0.003895  p :     0.019472
      px      :     0.004636
      py      :     0.010942

 26 H s       :     0.846314  s :     0.846314
      pz      :     0.004632  p :     0.020527
      px      :     0.012312
      py      :     0.003583

 27 H s       :     0.661826  s :     0.661826
      pz      :     0.008792  p :     0.037503
      px      :     0.011788
      py      :     0.016922

 28 H s       :     0.865331  s :     0.865331
      pz      :     0.004286  p :     0.018490
      px      :     0.004330
      py      :     0.009873

 29 H s       :     0.815916  s :     0.815916
      pz      :     0.009944  p :     0.017450
      px      :     0.003717
      py      :     0.003789

 30 H s       :     0.840945  s :     0.840945
      pz      :     0.003876  p :     0.017349
      px      :     0.003954
      py      :     0.009519

 31 H s       :     0.841049  s :     0.841049
      pz      :     0.010345  p :     0.017077
      px      :     0.002988
      py      :     0.003744

 32 H s       :     0.656726  s :     0.656726
      pz      :     0.013675  p :     0.043128
      px      :     0.011389
      py      :     0.018064


------------------------
MULLIKEN OVERLAP CHARGES
------------------------
B(  0-C ,  1-C ) :   0.5591 B(  0-C ,  2-C ) :   0.0871 B(  0-C ,  3-C ) :  -0.2775 
B(  0-C ,  4-C ) :   0.0666 B(  0-C ,  5-C ) :   0.4619 B(  0-C , 20-H ) :   0.8125 
B(  0-C , 21-H ) :  -0.0645 B(  0-C , 23-H ) :  -0.1149 B(  1-C ,  2-C ) :   0.3777 
B(  1-C ,  3-C ) :   0.1127 B(  1-C ,  4-C ) :  -0.2633 B(  1-C ,  5-C ) :   0.0577 
B(  1-C , 20-H ) :  -0.0645 B(  1-C , 21-H ) :   0.8128 B(  1-C , 22-H ) :  -0.1172 
B(  2-C ,  3-C ) :   0.7237 B(  2-C ,  4-C ) :  -0.3476 B(  2-C ,  5-C ) :  -0.3113 
B(  2-C ,  6-C ) :   0.1390 B(  2-C , 13-C ) :   0.1628 B(  2-C , 14-C ) :  -0.4462 
B(  2-C , 15-O ) :   0.1226 B(  2-C , 21-H ) :  -0.0609 B(  2-C , 22-H ) :   0.8449 
B(  3-C ,  4-C ) :  -2.5920 B(  3-C ,  5-C ) :  -0.3256 B(  3-C ,  6-C ) :   1.6198 
B(  3-C ,  7-O ) :  -0.0625 B(  3-C ,  8-C ) :  -1.9756 B(  3-C , 12-C ) :   0.2086 
B(  3-C , 13-C ) :   1.7770 B(  3-C , 14-C ) :  -1.8465 B(  3-C , 15-O ) :  -0.4307 
B(  4-C ,  5-C ) :   0.8316 B(  4-C ,  6-C ) :  -2.2831 B(  4-C ,  7-O ) :  -0.4110 
B(  4-C ,  8-C ) :   1.7324 B(  4-C ,  9-C ) :   0.1844 B(  4-C , 13-C ) :  -2.2953 
B(  4-C , 14-C ) :   1.6825 B(  5-C ,  6-C ) :  -0.5958 B(  5-C ,  7-O ) :   0.1279 
B(  5-C ,  8-C ) :   0.1998 B(  5-C , 14-C ) :   0.1662 B(  5-C , 20-H ) :  -0.0602 
B(  5-C , 23-H ) :   0.8479 B(  6-C ,  7-O ) :   1.3753 B(  6-C ,  8-C ) :  -2.0469 
B(  6-C ,  9-C ) :  -0.5761 B(  6-C , 10-C ) :   0.0954 B(  6-C , 11-C ) :  -0.0535 
B(  6-C , 12-C ) :   0.1817 B(  6-C , 13-C ) :   1.5808 B(  6-C , 14-C ) :  -1.4144 
B(  7-O ,  8-C ) :  -0.4202 B(  7-O ,  9-C ) :   0.1209 B(  7-O , 13-C ) :  -0.0738 
B(  8-C ,  9-C ) :   0.7070 B(  8-C , 10-C ) :   0.1776 B(  8-C , 11-C ) :  -0.5201 
B(  8-C , 12-C ) :   0.0656 B(  8-C , 13-C ) :  -3.1133 B(  8-C , 14-C ) :   1.1071 
B(  9-C , 10-C ) :   0.1690 B(  9-C , 11-C ) :   0.2561 B(  9-C , 12-C ) :  -0.5418 
B(  9-C , 13-C ) :  -0.1523 B(  9-C , 14-C ) :   0.2332 B(  9-C , 24-H ) :   0.8730 
B(  9-C , 25-H ) :  -0.0683 B( 10-C , 11-C ) :   0.2460 B( 10-C , 12-C ) :   0.2818 
B( 10-C , 13-C ) :  -0.3573 B( 10-C , 24-H ) :  -0.1311 B( 10-C , 25-H ) :   0.8239 
B( 11-C , 12-C ) :  -0.1043 B( 11-C , 13-C ) :   0.2750 B( 11-C , 14-C ) :   0.0811 
B( 11-C , 16-N ) :  -0.2001 B( 11-C , 25-H ) :  -0.0732 B( 11-C , 26-H ) :   0.7812 
B( 12-C , 13-C ) :  -0.2296 B( 12-C , 14-C ) :  -1.1025 B( 12-C , 15-O ) :   0.1411 
B( 12-C , 16-N ) :   0.6269 B( 12-C , 17-C ) :  -0.1746 B( 12-C , 26-H ) :  -0.0791 
B( 12-C , 28-H ) :  -0.0557 B( 13-C , 14-C ) :  -1.8781 B( 13-C , 15-O ) :  -0.3069 
B( 13-C , 16-N ) :  -0.0533 B( 13-C , 27-H ) :  -0.0913 B( 14-C , 15-O ) :   1.1331 
B( 15-O , 16-N ) :  -0.2099 B( 15-O , 27-H ) :   0.0995 B( 16-N , 17-C ) :   0.2539 
B( 16-N , 18-C ) :  -0.0681 B( 16-N , 27-H ) :   0.6830 B( 16-N , 29-H ) :  -0.0926 
B( 17-C , 18-C ) :   0.4354 B( 17-C , 19-O ) :  -0.1688 B( 17-C , 27-H ) :  -0.0895 
B( 17-C , 28-H ) :   0.7845 B( 17-C , 29-H ) :   0.7857 B( 17-C , 31-H ) :  -0.1449 
B( 18-C , 19-O ) :   0.5024 B( 18-C , 29-H ) :  -0.0642 B( 18-C , 30-H ) :   0.8249 
B( 18-C , 31-H ) :   0.8906 B( 18-C , 32-H ) :  -0.0947 B( 19-O , 30-H ) :  -0.0988 
B( 19-O , 31-H ) :  -0.0960 B( 19-O , 32-H ) :   0.5883 B( 28-H , 29-H ) :  -0.0586 
B( 30-H , 31-H ) :  -0.0667 


                     *******************************
                     * LOEWDIN POPULATION ANALYSIS *
                     *******************************

----------------------
LOEWDIN ATOMIC CHARGES
----------------------
   0 C :   -0.143157
   1 C :   -0.139828
   2 C :   -0.101576
   3 C :   -0.025356
   4 C :   -0.035869
   5 C :   -0.096796
   6 C :    0.269787
   7 O :   -0.479688
   8 C :   -0.023183
   9 C :   -0.124165
  10 C :   -0.126934
  11 C :   -0.140864
  12 C :    0.206718
  13 C :   -0.036116
  14 C :    0.270437
  15 O :   -0.541035
  16 N :   -0.682939
  17 C :   -0.014457
  18 C :    0.036643
  19 O :   -0.604363
  20 H :    0.170684
  21 H :    0.170630
  22 H :    0.193157
  23 H :    0.191825
  24 H :    0.194067
  25 H :    0.171927
  26 H :    0.170917
  27 H :    0.297428
  28 H :    0.175694
  29 H :    0.184803
  30 H :    0.181650
  31 H :    0.162158
  32 H :    0.267805

-------------------------------
LOEWDIN REDUCED ORBITAL CHARGES
-------------------------------
  0 C s       :     2.904656  s :     2.904656
      pz      :     0.954885  p :     3.156361
      px      :     1.102994
      py      :     1.098481
      dz2     :     0.005677  d :     0.082141
      dxz     :     0.003869
      dyz     :     0.011782
      dx2y2   :     0.032731
      dxy     :     0.028083

  1 C s       :     2.904972  s :     2.904972
      pz      :     0.950366  p :     3.152597
      px      :     1.100545
      py      :     1.101685
      dz2     :     0.005708  d :     0.082259
      dxz     :     0.010558
      dyz     :     0.005268
      dx2y2   :     0.029438
      dxy     :     0.031288

  2 C s       :     2.895070  s :     2.895070
      pz      :     0.937898  p :     3.126140
      px      :     1.091501
      py      :     1.096740
      dz2     :     0.005487  d :     0.080366
      dxz     :     0.009353
      dyz     :     0.006333
      dx2y2   :     0.027140
      dxy     :     0.032053

  3 C s       :     2.847367  s :     2.847367
      pz      :     0.964486  p :     3.082459
      px      :     1.031344
      py      :     1.086630
      dz2     :     0.007482  d :     0.095530
      dxz     :     0.007453
      dyz     :     0.012608
      dx2y2   :     0.035969
      dxy     :     0.032018

  4 C s       :     2.847871  s :     2.847871
      pz      :     0.971229  p :     3.091766
      px      :     1.084512
      py      :     1.036025
      dz2     :     0.007663  d :     0.096232
      dxz     :     0.011426
      dyz     :     0.008068
      dx2y2   :     0.033371
      dxy     :     0.035704

  5 C s       :     2.895806  s :     2.895806
      pz      :     0.930736  p :     3.120442
      px      :     1.083756
      py      :     1.105950
      dz2     :     0.005488  d :     0.080548
      dxz     :     0.009206
      dyz     :     0.006664
      dx2y2   :     0.029122
      dxy     :     0.030067

  6 C s       :     2.782877  s :     2.782877
      pz      :     0.749492  p :     2.747353
      px      :     1.000108
      py      :     0.997753
      dz2     :     0.012587  d :     0.199983
      dxz     :     0.016522
      dyz     :     0.024005
      dx2y2   :     0.090351
      dxy     :     0.056518

  7 O s       :     3.560617  s :     3.560617
      pz      :     1.366776  p :     4.663983
      px      :     1.704114
      py      :     1.593092
      dz2     :     0.030403  d :     0.255088
      dxz     :     0.022149
      dyz     :     0.034535
      dx2y2   :     0.084521
      dxy     :     0.083480

  8 C s       :     2.848283  s :     2.848283
      pz      :     0.960750  p :     3.078089
      px      :     1.032889
      py      :     1.084450
      dz2     :     0.007698  d :     0.096812
      dxz     :     0.006891
      dyz     :     0.015601
      dx2y2   :     0.035296
      dxy     :     0.031326

  9 C s       :     2.891680  s :     2.891680
      pz      :     0.970952  p :     3.152349
      px      :     1.084130
      py      :     1.097267
      dz2     :     0.005551  d :     0.080136
      dxz     :     0.008893
      dyz     :     0.006580
      dx2y2   :     0.027715
      dxy     :     0.031398

 10 C s       :     2.900762  s :     2.900762
      pz      :     0.936728  p :     3.140688
      px      :     1.101999
      py      :     1.101961
      dz2     :     0.005855  d :     0.085484
      dxz     :     0.012841
      dyz     :     0.006057
      dx2y2   :     0.029626
      dxy     :     0.031105

 11 C s       :     2.888104  s :     2.888104
      pz      :     1.024881  p :     3.175693
      px      :     1.102243
      py      :     1.048568
      dz2     :     0.005727  d :     0.077067
      dxz     :     0.003952
      dyz     :     0.010407
      dx2y2   :     0.031561
      dxy     :     0.025420

 12 C s       :     2.770221  s :     2.770221
      pz      :     0.858179  p :     2.882581
      px      :     1.016772
      py      :     1.007631
      dz2     :     0.010386  d :     0.140480
      dxz     :     0.018679
      dyz     :     0.024119
      dx2y2   :     0.043580
      dxy     :     0.043716

 13 C s       :     2.834139  s :     2.834139
      pz      :     1.060516  p :     3.113581
      px      :     1.020881
      py      :     1.032184
      dz2     :     0.007281  d :     0.088396
      dxz     :     0.009231
      dyz     :     0.008129
      dx2y2   :     0.032459
      dxy     :     0.031296

 14 C s       :     2.779019  s :     2.779019
      pz      :     0.768628  p :     2.753421
      px      :     0.990200
      py      :     0.994594
      dz2     :     0.012726  d :     0.197122
      dxz     :     0.015519
      dyz     :     0.028879
      dx2y2   :     0.084553
      dxy     :     0.055446

 15 O s       :     3.561057  s :     3.561057
      pz      :     1.434292  p :     4.696452
      px      :     1.685333
      py      :     1.576827
      dz2     :     0.036312  d :     0.283526
      dxz     :     0.024017
      dyz     :     0.037347
      dx2y2   :     0.094000
      dxy     :     0.091850

 16 N s       :     3.092574  s :     3.092574
      pz      :     1.554735  p :     4.012036
      px      :     1.202838
      py      :     1.254464
      dz2     :     0.060494  d :     0.578330
      dxz     :     0.106241
      dyz     :     0.054484
      dx2y2   :     0.168804
      dxy     :     0.188306

 17 C s       :     2.855632  s :     2.855632
      pz      :     1.071576  p :     3.050721
      px      :     0.924860
      py      :     1.054285
      dz2     :     0.020882  d :     0.108104
      dxz     :     0.026423
      dyz     :     0.013511
      dx2y2   :     0.028616
      dxy     :     0.018672

 18 C s       :     2.874368  s :     2.874368
      pz      :     1.058438  p :     2.957659
      px      :     0.849395
      py      :     1.049826
      dz2     :     0.024109  d :     0.131330
      dxz     :     0.029928
      dyz     :     0.015560
      dx2y2   :     0.030145
      dxy     :     0.031588

 19 O s       :     3.520021  s :     3.520021
      pz      :     1.842122  p :     4.809449
      px      :     1.364000
      py      :     1.603327
      dz2     :     0.032644  d :     0.274893
      dxz     :     0.069056
      dyz     :     0.013035
      dx2y2   :     0.062360
      dxy     :     0.097797

 20 H s       :     0.784435  s :     0.784435
      pz      :     0.008702  p :     0.044881
      px      :     0.028965
      py      :     0.007214

 21 H s       :     0.784551  s :     0.784551
      pz      :     0.008592  p :     0.044819
      px      :     0.011012
      py      :     0.025215

 22 H s       :     0.759811  s :     0.759811
      pz      :     0.008527  p :     0.047032
      px      :     0.017079
      py      :     0.021426

 23 H s       :     0.761440  s :     0.761440
      pz      :     0.008391  p :     0.046736
      px      :     0.012967
      py      :     0.025378

 24 H s       :     0.758128  s :     0.758128
      pz      :     0.009281  p :     0.047806
      px      :     0.017952
      py      :     0.020573

 25 H s       :     0.783591  s :     0.783591
      pz      :     0.008325  p :     0.044482
      px      :     0.010686
      py      :     0.025471

 26 H s       :     0.782400  s :     0.782400
      pz      :     0.010484  p :     0.046683
      px      :     0.028575
      py      :     0.007624

 27 H s       :     0.595379  s :     0.595379
      pz      :     0.021995  p :     0.107194
      px      :     0.034868
      py      :     0.050330

 28 H s       :     0.782636  s :     0.782636
      pz      :     0.009889  p :     0.041671
      px      :     0.008514
      py      :     0.023268

 29 H s       :     0.774735  s :     0.774735
      pz      :     0.024452  p :     0.040462
      px      :     0.007415
      py      :     0.008594

 30 H s       :     0.779222  s :     0.779222
      pz      :     0.008587  p :     0.039128
      px      :     0.007861
      py      :     0.022679

 31 H s       :     0.797352  s :     0.797352
      pz      :     0.024963  p :     0.040491
      px      :     0.007064
      py      :     0.008464

 32 H s       :     0.610079  s :     0.610079
      pz      :     0.036200  p :     0.122116
      px      :     0.030925
      py      :     0.054991


---------------------------------
LOEWDIN BOND ORDERS (THRESH 0.050000)
---------------------------------
B(  0-C ,  1-C ) :   1.4745 B(  0-C ,  2-C ) :   0.0901 B(  0-C ,  3-C ) :   0.1099 
B(  0-C ,  4-C ) :   0.0904 B(  0-C ,  5-C ) :   1.5230 B(  0-C , 20-H ) :   0.8724 
B(  0-C , 21-H ) :   0.0533 B(  0-C , 23-H ) :   0.0523 B(  1-C ,  2-C ) :   1.5204 
B(  1-C ,  3-C ) :   0.0903 B(  1-C ,  4-C ) :   0.1102 B(  1-C ,  5-C ) :   0.0908 
B(  1-C , 20-H ) :   0.0534 B(  1-C , 21-H ) :   0.8724 B(  1-C , 22-H ) :   0.0523 
B(  2-C ,  3-C ) :   1.3919 B(  2-C ,  4-C ) :   0.0846 B(  2-C ,  5-C ) :   0.1187 
B(  2-C , 14-C ) :   0.0867 B(  2-C , 15-O ) :   0.0817 B(  2-C , 21-H ) :   0.0554 
B(  2-C , 22-H ) :   0.8456 B(  3-C ,  4-C ) :   1.3231 B(  3-C ,  5-C ) :   0.0847 
B(  3-C ,  6-C ) :   0.0817 B(  3-C , 13-C ) :   0.0815 B(  3-C , 14-C ) :   0.9747 
B(  3-C , 15-O ) :   0.2036 B(  3-C , 22-H ) :   0.0513 B(  4-C ,  5-C ) :   1.3903 
B(  4-C ,  6-C ) :   0.9874 B(  4-C ,  7-O ) :   0.2036 B(  4-C ,  8-C ) :   0.0821 
B(  4-C , 14-C ) :   0.0768 B(  4-C , 23-H ) :   0.0517 B(  5-C ,  6-C ) :   0.0895 
B(  5-C ,  7-O ) :   0.0813 B(  5-C , 20-H ) :   0.0554 B(  5-C , 23-H ) :   0.8489 
B(  6-C ,  7-O ) :   2.2325 B(  6-C ,  8-C ) :   0.9776 B(  6-C ,  9-C ) :   0.0996 
B(  6-C , 13-C ) :   0.0738 B(  7-O ,  8-C ) :   0.2019 B(  7-O ,  9-C ) :   0.1047 
B(  8-C ,  9-C ) :   1.4365 B(  8-C , 10-C ) :   0.0913 B(  8-C , 11-C ) :   0.1098 
B(  8-C , 12-C ) :   0.0805 B(  8-C , 13-C ) :   1.2763 B(  8-C , 14-C ) :   0.0829 
B(  8-C , 24-H ) :   0.0522 B(  9-C , 10-C ) :   1.4316 B(  9-C , 11-C ) :   0.0926 
B(  9-C , 12-C ) :   0.0701 B(  9-C , 13-C ) :   0.0927 B(  9-C , 24-H ) :   0.8438 
B(  9-C , 25-H ) :   0.0533 B( 10-C , 11-C ) :   1.5717 B( 10-C , 12-C ) :   0.0887 
B( 10-C , 13-C ) :   0.0831 B( 10-C , 24-H ) :   0.0510 B( 10-C , 25-H ) :   0.8686 
B( 10-C , 26-H ) :   0.0560 B( 11-C , 12-C ) :   1.2099 B( 11-C , 13-C ) :   0.0828 
B( 11-C , 16-N ) :   0.2107 B( 11-C , 25-H ) :   0.0570 B( 11-C , 26-H ) :   0.8579 
B( 12-C , 13-C ) :   1.1357 B( 12-C , 14-C ) :   0.0771 B( 12-C , 15-O ) :   0.0509 
B( 12-C , 16-N ) :   1.5741 B( 12-C , 17-C ) :   0.0784 B( 13-C , 14-C ) :   1.0660 
B( 13-C , 15-O ) :   0.2075 B( 13-C , 16-N ) :   0.2121 B( 14-C , 15-O ) :   2.1042 
B( 14-C , 16-N ) :   0.0588 B( 15-O , 16-N ) :   0.2038 B( 15-O , 27-H ) :   0.1010 
B( 16-N , 17-C ) :   1.3335 B( 16-N , 18-C ) :   0.1690 B( 16-N , 27-H ) :   0.7874 
B( 16-N , 28-H ) :   0.0919 B( 16-N , 29-H ) :   0.0985 B( 17-C , 18-C ) :   0.9445 
B( 17-C , 19-O ) :   0.1720 B( 17-C , 28-H ) :   0.8174 B( 17-C , 29-H ) :   0.8149 
B( 18-C , 19-O ) :   1.4661 B( 18-C , 30-H ) :   0.8211 B( 18-C , 31-H ) :   0.8339 
B( 19-O , 30-H ) :   0.0994 B( 19-O , 31-H ) :   0.1041 B( 19-O , 32-H ) :   0.9732 


------------------------------------------
LOEWDIN REDUCED ORBITAL POPULATIONS PER MO
-------------------------------------------
THRESHOLD FOR PRINTING IS 0.1%%
                      0         1         2         3         4         5   
                 -18.96741 -18.94329 -18.93813 -14.19294 -10.12548 -10.12233
                   2.00000   2.00000   2.00000   2.00000   2.00000   2.00000
                  --------  --------  --------  --------  --------  --------
 6 C  s               0.0       0.0       0.0       0.0       0.0      99.2
 7 O  s               0.0       0.0      99.9       0.0       0.0       0.0
 7 O  py              0.0       0.0       0.0       0.0       0.0       0.1
 7 O  dxy             0.0       0.0       0.0       0.0       0.0       0.2
14 C  s               0.0       0.0       0.0       0.0      99.2       0.0
15 O  s               0.0      99.9       0.0       0.0       0.0       0.0
15 O  py              0.0       0.0       0.0       0.0       0.1       0.0
15 O  dxy             0.0       0.0       0.0       0.0       0.2       0.0
16 N  s               0.0       0.0       0.0      99.8       0.0       0.0
19 O  s              99.9       0.0       0.0       0.0       0.0       0.0

                      6         7         8         9        10        11   
                 -10.10742 -10.09491 -10.08488 -10.05984 -10.05973 -10.05842
                   2.00000   2.00000   2.00000   2.00000   2.00000   2.00000
                  --------  --------  --------  --------  --------  --------
 2 C  py              0.0       0.0       0.0       0.0       0.1       0.0
 3 C  s               0.0       0.0       0.0       0.1      98.6       0.0
 4 C  s               0.0       0.0       0.0       0.0       0.7       0.0
 6 C  px              0.0       0.0       0.0       0.1       0.0       0.0
 8 C  s               0.0       0.0       0.0      97.8       0.1       1.6
 9 C  py              0.0       0.0       0.0       0.1       0.0       0.0
12 C  s              99.2       0.0       0.0       0.0       0.0       0.0
12 C  px              0.0       0.0       0.0       0.0       0.0       0.1
13 C  s               0.0       0.0       0.0       1.6       0.0      98.0
13 C  px              0.1       0.0       0.0       0.0       0.0       0.0
16 N  px              0.1       0.0       0.1       0.0       0.0       0.0
16 N  dx2y2           0.0       0.0       0.2       0.0       0.0       0.0
16 N  dxy             0.2       0.0       0.0       0.0       0.0       0.0
17 C  s               0.0       0.0      99.4       0.0       0.0       0.0
18 C  s               0.0      99.4       0.0       0.0       0.0       0.0
19 O  px              0.0       0.1       0.0       0.0       0.0       0.0
19 O  dx2y2           0.0       0.2       0.0       0.0       0.0       0.0

                     12        13        14        15        16        17   
                 -10.05731 -10.05686 -10.05425 -10.05329 -10.05296 -10.05071
                   2.00000   2.00000   2.00000   2.00000   2.00000   2.00000
                  --------  --------  --------  --------  --------  --------
 0 C  s               0.0       0.0       5.6      93.2       0.0       0.9
 0 C  py              0.0       0.0       0.1       0.0       0.0       0.1
 1 C  s               0.0       0.0      93.7       5.6       0.0       0.0
 2 C  s               0.0       0.0       0.3       0.0       0.0       0.0
 2 C  px              0.0       0.0       0.1       0.0       0.0       0.0
 3 C  s               0.7       0.0       0.0       0.0       0.0       0.0
 4 C  s              98.7       0.0       0.0       0.0       0.0       0.1
 4 C  px              0.0       0.0       0.0       0.0       0.0       0.1
 5 C  s               0.1       0.0       0.0       0.8       0.0      98.6
 5 C  px              0.1       0.0       0.0       0.0       0.0       0.0
 5 C  py              0.0       0.0       0.0       0.1       0.0       0.0
 9 C  px              0.0       0.1       0.0       0.0       0.0       0.0
10 C  s               0.0      99.1       0.0       0.0       0.5       0.0
11 C  s               0.0       0.5       0.0       0.0      99.1       0.0
12 C  py              0.0       0.0       0.0       0.0       0.1       0.0

                     18        19        20        21        22        23   
                 -10.04992 -10.04166  -1.00773  -1.00503  -1.00243  -0.93246
                   2.00000   2.00000   2.00000   2.00000   2.00000   2.00000
                  --------  --------  --------  --------  --------  --------
 1 C  s               0.3       0.0       0.0       0.0       0.0       0.0
 1 C  px              0.1       0.0       0.0       0.0       0.0       0.0
 2 C  s              99.2       0.0       0.3       0.0       0.0       0.0
 2 C  px              0.0       0.0       0.4       0.0       0.0       0.0
 2 C  py              0.0       0.0       0.1       0.0       0.0       0.0
 3 C  s               0.1       0.0       1.5       0.1       0.0       0.0
 3 C  px              0.0       0.0       1.7       0.1       0.2       0.0
 3 C  py              0.1       0.0       0.0       0.0       0.3       0.0
 4 C  s               0.0       0.0       0.4       0.0       1.2       0.0
 4 C  px              0.0       0.0       0.2       0.0       0.0       0.0
 4 C  py              0.0       0.0       0.0       0.0       2.1       0.0
 5 C  s               0.0       0.0       0.1       0.0       0.2       0.0
 5 C  px              0.0       0.0       0.1       0.0       0.3       0.0
 5 C  py              0.0       0.0       0.0       0.0       0.2       0.0
 6 C  s               0.0       0.0       1.2       0.2      16.2       0.0
 6 C  pz              0.0       0.0       0.0       0.0       0.2       0.0
 6 C  px              0.0       0.0       0.1       0.0       3.5       0.1
 6 C  py              0.0       0.0       0.3       0.1       7.8       0.0
 6 C  dz2             0.0       0.0       0.0       0.0       0.5       0.0
 6 C  dx2y2           0.0       0.0       0.0       0.0       0.1       0.0
 6 C  dxy             0.0       0.0       0.0       0.0       0.8       0.0
 7 O  s               0.0       0.0       2.7       0.5      48.9       0.0
 7 O  px              0.0       0.0       0.1       0.0       1.8       0.0
 7 O  py              0.0       0.0       0.2       0.0       3.9       0.0
 7 O  dz2             0.0       0.0       0.0       0.0       0.2       0.0
 7 O  dxy             0.0       0.0       0.0       0.0       0.4       0.0
 8 C  s               0.0       0.0       0.4       0.0       1.1       0.3
 8 C  px              0.0       0.0       0.0       0.0       2.0       0.3
 8 C  py              0.0       0.1       0.1       0.0       0.2       0.0
 9 C  s               0.0      99.5       0.1       0.0       0.2       0.2
 9 C  px              0.0       0.0       0.0       0.0       0.4       0.1
 9 C  py              0.0       0.0       0.1       0.0       0.1       0.1
10 C  s               0.0       0.0       0.0       0.0       0.0       0.4
10 C  px              0.0       0.1       0.0       0.0       0.0       0.0
10 C  py              0.0       0.0       0.0       0.0       0.0       0.3
11 C  s               0.0       0.0       0.1       0.0       0.0       2.3
11 C  px              0.0       0.0       0.0       0.0       0.0       0.1
11 C  py              0.0       0.0       0.1       0.0       0.0       1.8
12 C  s               0.0       0.0       0.7       0.0       0.0      14.0
12 C  pz              0.0       0.0       0.0       0.0       0.0       0.1
12 C  px              0.0       0.0       0.1       0.1       0.0       2.5
12 C  py              0.0       0.0       0.4       0.0       0.0       3.2
12 C  dz2             0.0       0.0       0.0       0.0       0.0       0.3
12 C  dxy             0.0       0.0       0.0       0.0       0.0       0.3
13 C  s               0.0       0.0       1.8       0.1       0.0       1.6
13 C  px              0.0       0.0       0.0       0.0       0.1       2.2
13 C  py              0.0       0.0       1.7       0.1       0.4       0.1
14 C  s               0.0       0.0      15.4       0.6       0.8       0.2
14 C  pz              0.0       0.0       0.2       0.0       0.0       0.0
14 C  px              0.0       0.0       2.8       0.1       0.3       0.2
14 C  py              0.0       0.0       6.9       0.3       0.8       1.2
[...]
19 O  px             10.8       0.0       0.0       0.0       0.0       0.0
19 O  py              8.1       0.0       0.0       0.0       0.0       0.0
19 O  dz2             1.8       0.0       0.0       0.0       0.0       0.0
19 O  dxz             2.8       0.0       0.0       0.0       0.0       0.0
19 O  dyz             6.3       0.0       0.0       0.0       0.0       0.0
19 O  dx2y2          10.3       0.0       0.0       0.0       0.0       0.0
19 O  dxy            19.4       0.0       0.0       0.0       0.0       0.0
30 H  s               0.2       0.0       0.0       0.0       0.0       0.0
30 H  py              0.3       0.0       0.0       0.0       0.0       0.0
32 H  s              13.4       0.0       0.0       0.0       0.0       0.0
32 H  pz              1.5       0.0       0.0       0.0       0.0       0.0
32 H  px              4.0       0.0       0.0       0.0       0.0       0.0
32 H  py             10.2       0.0       0.0       0.0       0.0       0.0

                    450       451       452       453       454       455   
                  21.99017  22.04146  22.12065  22.13536  22.17781  22.19780
                   0.00000   0.00000   0.00000   0.00000   0.00000   0.00000
                  --------  --------  --------  --------  --------  --------
 0 C  s               0.3       1.4       2.8       3.8      35.2       0.0
 1 C  s               1.7       3.1       0.8       3.9      32.8       1.2
 2 C  s               3.1       4.9       3.6       3.9       0.2       2.4
 3 C  s               1.7       2.0       0.7       0.0      15.3       1.3
 4 C  s               2.7       4.4       0.6       1.0      12.6       1.3
 5 C  s               3.6       5.3       1.3       6.2       0.0       1.5
 6 C  s               0.4       1.4       0.4      26.8       1.7       1.9
 8 C  s               0.9      12.8       2.7       0.0       0.8      14.2
 9 C  s               0.0      14.5      11.3       2.1       0.0       2.7
10 C  s               1.2       0.1       1.0       3.3       0.0      27.5
11 C  s               0.6       7.3       4.3       3.6       0.0      32.1
12 C  s               0.0       6.0       0.1       8.7       0.0       0.4
13 C  s               0.8       9.6       4.9      13.7       0.3       5.4
14 C  s               0.3       0.1       6.1      10.8       0.5       7.3
16 N  s               0.0       0.0       0.1       0.1       0.0       0.0
17 C  s               0.1      22.2      58.6      11.1       0.1       0.1
18 C  s              82.0       4.2       0.0       0.3       0.0       0.2

                    456       457       458       459       460       461   
                  22.21007  22.25904  22.35746  22.36691  22.38749  32.03705
                   0.00000   0.00000   0.00000   0.00000   0.00000   0.00000
                  --------  --------  --------  --------  --------  --------
 0 C  s               3.5       0.5       0.2       5.9       2.6       0.0
 1 C  s               5.0       0.4       0.1       5.5       3.1       0.0
 2 C  s              20.2       1.5       0.1      13.5      10.5       0.0
 3 C  s               7.6       0.7       6.3       8.1       5.5       0.0
 4 C  s              10.2       0.1       7.3      10.1       3.3       0.0
 5 C  s              21.0       1.0       0.1      16.4       7.8       0.0
 6 C  s               8.3       5.1      27.6       0.0       7.9       0.0
 8 C  s               0.6      13.6       6.5       4.9       5.6       0.0
 8 C  px              0.0       0.0       0.0       0.0       0.1       0.0
 9 C  s               0.6      20.6       0.1       9.1      11.6       0.0
10 C  s               5.1      11.4       0.1       4.0       3.9       0.0
11 C  s               8.6       0.0       1.0       3.8       3.3       0.0
12 C  s               0.0      36.2       0.6      14.1      24.7       0.0
13 C  s               0.2       2.3       9.5       3.5       3.0       0.0
14 C  s               8.2       5.3      39.5       0.3       6.2       0.0
16 N  s               0.0       0.1       0.0       0.0       0.0      99.8
17 C  s               0.6       0.5       0.3       0.2       0.1       0.0

                    462       463       464   
                  43.57053  43.72897  43.85404
                   0.00000   0.00000   0.00000
                  --------  --------  --------
 7 O  s               0.0      79.2      20.5
15 O  s               0.1      20.5      79.1
19 O  s              99.7       0.1       0.1


                      *****************************
                      * MAYER POPULATION ANALYSIS *
                      *****************************

  NA   - Mulliken gross atomic population
  ZA   - Total nuclear charge
  QA   - Mulliken gross atomic charge
  VA   - Mayer's total valence
  BVA  - Mayer's bonded valence
  FA   - Mayer's free valence

  ATOM       NA         ZA         QA         VA         BVA        FA
  0 C      6.1311     6.0000    -0.1311     3.6940     3.6940     0.0000
  1 C      6.1271     6.0000    -0.1271     3.6851     3.6851    -0.0000
  2 C      6.2235     6.0000    -0.2235     3.8108     3.8108    -0.0000
  3 C      5.8134     6.0000     0.1866     3.6147     3.6147    -0.0000
  4 C      5.8638     6.0000     0.1362     3.5015     3.5015    -0.0000
  5 C      6.2157     6.0000    -0.2157     3.8035     3.8035    -0.0000
  6 C      5.9633     6.0000     0.0367     3.5918     3.5918     0.0000
  7 O      8.3542     8.0000    -0.3542     2.0366     2.0366    -0.0000
  8 C      5.8082     6.0000     0.1918     3.2441     3.2441     0.0000
  9 C      6.2498     6.0000    -0.2498     3.8486     3.8486     0.0000
 10 C      6.1255     6.0000    -0.1255     3.7036     3.7036    -0.0000
 11 C      6.3313     6.0000    -0.3313     3.6365     3.6365    -0.0000
 12 C      5.6923     6.0000     0.3077     3.5885     3.5885     0.0000
 13 C      6.1368     6.0000    -0.1368     3.5770     3.5770     0.0000
 14 C      5.9762     6.0000     0.0238     3.5424     3.5424     0.0000
 15 O      8.4412     8.0000    -0.4412     1.9674     1.9674    -0.0000
 16 N      7.0619     7.0000    -0.0619     3.1402     3.1402    -0.0000
 17 C      6.2022     6.0000    -0.2022     3.6655     3.6655     0.0000
 18 C      6.1712     6.0000    -0.1712     3.8617     3.8617    -0.0000
 19 O      8.4069     8.0000    -0.4069     1.8453     1.8453    -0.0000
 20 H      0.8509     1.0000     0.1491     0.9683     0.9683    -0.0000
 21 H      0.8511     1.0000     0.1489     0.9681     0.9681     0.0000
 22 H      0.8176     1.0000     0.1824     0.9544     0.9544    -0.0000
 23 H      0.8181     1.0000     0.1819     0.9549     0.9549     0.0000
 24 H      0.8145     1.0000     0.1855     0.9532     0.9532     0.0000
 25 H      0.8526     1.0000     0.1474     0.9687     0.9687     0.0000
 26 H      0.8668     1.0000     0.1332     0.9768     0.9768    -0.0000
 27 H      0.6993     1.0000     0.3007     0.9290     0.9290    -0.0000
 28 H      0.8838     1.0000     0.1162     0.9713     0.9713     0.0000
 29 H      0.8334     1.0000     0.1666     0.9494     0.9494     0.0000
 30 H      0.8583     1.0000     0.1417     0.9544     0.9544     0.0000
 31 H      0.8581     1.0000     0.1419     0.9514     0.9514     0.0000
 32 H      0.6999     1.0000     0.3001     0.9056     0.9056     0.0000

  Mayer bond orders larger than 0.100000
B(  0-C ,  1-C ) :   1.3213 B(  0-C ,  5-C ) :   1.3569 B(  0-C , 20-H ) :   0.9558 
B(  1-C ,  2-C ) :   1.3499 B(  1-C , 21-H ) :   0.9557 B(  2-C ,  3-C ) :   1.3528 
B(  2-C , 15-O ) :   0.1025 B(  2-C , 22-H ) :   0.9603 B(  3-C ,  4-C ) :   1.5204 
B(  3-C , 14-C ) :   0.9278 B(  3-C , 15-O ) :  -0.2013 B(  4-C ,  5-C ) :   1.3494 
B(  4-C ,  6-C ) :   0.8554 B(  4-C ,  7-O ) :  -0.2241 B(  5-C ,  7-O ) :   0.1083 
B(  5-C , 23-H ) :   0.9637 B(  6-C ,  7-O ) :   2.1005 B(  6-C ,  8-C ) :   0.8649 
B(  7-O ,  8-C ) :  -0.2172 B(  7-O ,  9-C ) :   0.1239 B(  8-C ,  9-C ) :   1.4045 
B(  8-C , 13-C ) :   1.2779 B(  9-C , 10-C ) :   1.2536 B(  9-C , 24-H ) :   0.9661 
B( 10-C , 11-C ) :   1.4031 B( 10-C , 25-H ) :   0.9641 B( 11-C , 12-C ) :   1.0991 
B( 11-C , 26-H ) :   0.9551 B( 12-C , 13-C ) :   1.2730 B( 12-C , 14-C ) :  -0.1085 
B( 12-C , 16-N ) :   1.2898 B( 13-C , 14-C ) :   0.9376 B( 13-C , 15-O ) :  -0.1183 
B( 14-C , 15-O ) :   1.8748 B( 16-N , 17-C ) :   0.8501 B( 16-N , 27-H ) :   0.8310 
B( 17-C , 18-C ) :   0.9229 B( 17-C , 28-H ) :   0.9499 B( 17-C , 29-H ) :   0.9457 
B( 18-C , 19-O ) :   0.9744 B( 18-C , 30-H ) :   0.9679 B( 18-C , 31-H ) :   0.9734 
B( 19-O , 32-H ) :   0.8928 

-------
TIMINGS
-------

Total SCF time: 0 days 0 hours 1 min 53 sec 

Total time                  ....     113.718 sec
Sum of individual times     ....     112.920 sec  ( 99.3%)

SCF preparation             ....       0.339 sec  (  0.3%)
Fock matrix formation       ....     109.588 sec  ( 96.4%)
  Startup                   ....       0.096 sec  (  0.1% of F)
  Split-RI-J                ....      38.025 sec  ( 34.7% of F)
  XC integration            ....      70.515 sec  ( 64.3% of F)
    XC Preparation          ....       0.000 sec  (  0.0% of XC)
    Basis function eval.    ....      11.819 sec  ( 16.8% of XC)
    Density eval.           ....      27.008 sec  ( 38.3% of XC)
    XC-Functional eval.     ....       5.437 sec  (  7.7% of XC)
    XC-Potential eval.      ....      24.208 sec  ( 34.3% of XC)
Diagonalization             ....       0.000 sec  (  0.0%)
Density matrix formation    ....       0.393 sec  (  0.3%)
Total Energy calculation    ....       0.053 sec  (  0.0%)
Population analysis         ....       0.405 sec  (  0.4%)
Orbital Transformation      ....       0.192 sec  (  0.2%)
Orbital Orthonormalization  ....       0.000 sec  (  0.0%)
DIIS solution               ....       1.599 sec  (  1.4%)
  MO trafo                  ....       0.000 sec  (  0.0 % of DIIS)
  Orb grad                  ....       0.000 sec  (  0.0 % of DIIS)
  Energy W gradient         ....       0.000 sec  (  0.0 % of DIIS)
  DIIS error                ....       0.094 sec  (  5.9 % of DIIS)
  DIIS work                 ....       1.377 sec  ( 86.1 % of DIIS)
  Form Q                    ....       0.000 sec  (  0.0 % of DIIS)
  Form QpQm                 ....       0.000 sec  (  0.0 % of DIIS)
  Exp/Cayley                ....       0.000 sec  (  0.0 % of DIIS)
  Orb update                ....       0.000 sec  (  0.0 % of DIIS)
  Wake-sleep                ....       0.026 sec  (  1.6 % of DIIS)
SOSCF solution              ....       0.350 sec  (  0.3%)
  MO trafo                  ....       0.158 sec  ( 45.0 % of SOSCF)
  Orb grad                  ....       0.002 sec  (  0.7 % of SOSCF)
  Rot update                ....       0.055 sec  ( 15.6 % of SOSCF)
  Step                      ....       0.135 sec  ( 38.7 % of SOSCF)
Finished LeanSCF after 113.8 sec

Maximum memory used throughout the entire LEANSCF-calculation: 60.1 MB


-------------------------------------------------------------------------------
                          DFT DISPERSION CORRECTION                            
                                                                               
                                DFTD4 V3.4.0                                   
-------------------------------------------------------------------------------
The R2SCAN3C composite method is recognized
Using three-body term ABC
Active option DFTDOPT                   ...         5   

-------------------------   ----------------
Dispersion correction           -0.015465233
-------------------------   ----------------

------------------   -----------------
gCP correction             0.016299522
------------------   -----------------

-------------------------   --------------------
FINAL SINGLE POINT ENERGY      -897.781820961600
-------------------------   --------------------


------------------------------------------------------------------------------
                              ORCA PROPERTY CALCULATIONS
------------------------------------------------------------------------------

GBWName                                 ... sp_gas.gbw
Number of atoms                         ...     33
Number of basis functions               ...    465
Max core memory                         ...   1024 MB

Electric properties:
Dipole moment                           ... YES
Quadrupole moment                       ...  NO
Static polarizability (Dipole/Dipole)   ...  NO
Static polarizability (Dipole/Quad.)    ...  NO
Static polarizability (Quad./Quad.)     ...  NO
Static polarizability (Velocity)        ...  NO

Atomic electric properties:
Dipole moment                           ...  NO
Quadrupole moment                       ...  NO
Static polarizability                   ...  NO

Choice of electric origin               ... Center of mass
Position of electric origin             ...     0.000005    -0.000000    -0.000001

General magnetic properties:
Magnetizability                         ...  NO

EPR properties:
g-Tensor (aka g-matrix)                 ...  NO
Zero-Field splitting spin-orbit         ...  NO
Zero-field splitting spin-spin          ...  NO
Hyperfine couplings                     ...  NO (   0 nuclei)
Quadrupole couplings                    ...  NO (   0 nuclei)
Contact density                         ...  NO (   0 nuclei)

NMR properties:
Chemical shifts                         ...  NO (   0 nuclei)
Spin-rotation constants                 ...  NO (   0 nuclei)
Spin-spin couplings                     ...  NO (   0 nuclei,    0 pairs)

Choice of magnetic origin               ... GIAO
Position of magnetic origin             ...     0.000000     0.000000     0.000000

Properties with geometric perturbations:
SCF Hessian                             ...  NO
IR spectrum                             ...  NO
VCD spectrum                            ...  NO
X-ray spectroscopy properties:
SCF XES/XAS/RIXS spectra                ...  NO


-------------
DIPOLE MOMENT
-------------

Method             : SCF
Type of density    : Electron Density
Multiplicity       :   1
Irrep              :   0
Energy             :  -897.7826552507565339 Eh
Relativity type    : 
Basis              : AO
                                X                 Y                 Z
Electronic contribution:    -11.288246531       3.586417649      -0.766155903
Nuclear contribution   :     12.118565942      -3.559881660       0.905599283
                        -----------------------------------------
Total Dipole Moment    :      0.830319411       0.026535989       0.139443380
                        -----------------------------------------
Magnitude (a.u.)       :      0.842365087
Magnitude (Debye)      :      2.141121892



--------------------
Rotational spectrum 
--------------------
 
Rotational constants in cm-1:             0.020464             0.007161             0.005387 
Rotational constants in MHz :           613.508660           214.693895           161.511134 

Dipole components along the rotational axes: 
x,y,z [a.u.] :     0.827959    -0.082360     0.131452 
x,y,z [Debye]:     2.104505    -0.209344     0.334123 

 

Dipole moment calculation done in   0.0 sec 

Maximum memory used throughout the entire PROP-calculation: 41.1 MB

--------------------------------
SUGGESTED CITATIONS FOR THIS RUN
--------------------------------

Below you find a list of papers that are relevant to this ORCA run
We neither can nor want to force you to cite these papers, but we appreciate if you do
You receive ORCA, which is the product of decades of hard work by many enthusiastic individuals, for free
The only thing we kindly ask in return is that you cite our papers,
We deeply appreciate it, if you show your appreciation for ORCA by not just citing the generic ORCA reference.

Please note that relegating all ORCA citations to the supporting information does *not* help us.
SI sections are not indexed - citations you put there will not count into any citation statistics
But we need these citations in order to attract the funding resources that allow us to do what we are doing

Therefore, if you are a happy ORCA user, please consider citing a few of the papers listed below in the main body of your paper

In addition to the list printed below, the program has created the file sp_gas.bibtex that contains the list in bibtex format
You can import this file easily into all common literature databanks and citation aid programs


List of essential papers. We consider these as the minimum necessary citations

  1. Neese,F.
     Software update: the ORCA program system, version 5.0
     WIRES Comput. Molec. Sci., 2022 12(1)e1606
     doi.org/10.1002/wcms.1606
  2. Grimme,S.; Hansen,A.; Ehlert,S.; Mewes,J.
     r2SCAN-3c: A 'Swiss army knife' composite electronic-structure method
     J. Chem. Phys., 2021 154 064103
     doi.org/10.1063/5.0040021

List of papers to cite with high priority. The work reported in these papers was absolutely
necessary for this run to complete.
Our perspective: the developers of density functionals and basis sets usually get cited in chemistry papers
Good! But without the algorithms to do something with them, the functionals or basis sets would not do anything.
Hence, in our opinion, the algorithm design and method developments papers are equally worthy of getting cited

  1. Neese,F.
     An improvement of the resolution of the identity approximation for the formation of the Coulomb matrix
     J. Comp. Chem., 2003 24(14)1740-1747
     doi.org/10.1002/jcc.10318
  2. Neese,F.
     The SHARK Integral Generation and Digestion System
     J. Comp. Chem., 2022  1-16
     doi.org/10.1002/jcc.26942
  3. Lehtola,S.; Steigemann,C.; Oliveira,M.; Marques,M.
     Recent developments in Libxc - A comprehensive library of functionals for density functional theory
     Software X, 2018 7 
     doi.org/10.1016/j.softx.2017.11.002
  4. Caldeweyher,E.; Bannwarth,C.; Grimme,S.
     Extension of the D3 dispersion coefficient model
     J. Chem. Phys., 2017 147 034112-XXXX
     doi.org/10.1063/1.4993215
  5. Caldeweyher,E.; Ehlert,S.; Hansen,A.; Neugebauer,H.; Spicher,S.; Bannwarth,C.; Grimme,S.
     A generally applicable atomic-charge dependent London dispersion correction
     J. Chem. Phys., 2019 150 154122-XXXX
     doi.org/10.1063/1.5090222
  6. Caldeweyher,E.; Mewes,J.; Ehlert,S.; Grimme,S.
     Extension and evaluation of the D4 London-dispersion model for periodic systems
     Phys. Chem. Chem. Phys., 2020 22(16)8499-8512
     doi.org/10.1039/D0CP00502A

List of suggested additional citations. These are papers that are important in the 'surrounding' of 
of this run, or papers that preceded the highly important papers. If you like your results we are grateful for a citation.

  1. Neese,F.
     The ORCA program system
     WIRES Comput. Molec. Sci., 2012 2(1)73-78
     doi.org/10.1002/wcms.81
  2. Neese,F.
     Software update: the ORCA program system, version 4.0
     WIRES Comput. Molec. Sci., 2018 8(1)1-6
     doi.org/10.1002/wcms.1327
  3. Neese,F.; Wennmohs,F.; Becker,U.; Riplinger,C.
     The ORCA quantum chemistry program package
     J. Chem. Phys., 2020 152 Art. No. L224108
     doi.org/10.1063/5.0004608

List of optional additional citations

  1. Neese,F.
     Approximate second-order SCF convergence for spin unrestricted wavefunctions
     Chem. Phys. Lett., 2000 325(1-3)93-98
     doi.org/10.1016/s0009-2614(00)00662-x

Timings for individual modules:

Sum of individual times          ...      118.239 sec (=   1.971 min)
Startup calculation              ...        3.462 sec (=   0.058 min)   2.9 %
SCF iterations                   ...      114.589 sec (=   1.910 min)  96.9 %
Property calculations            ...        0.188 sec (=   0.003 min)   0.2 %
                             ****ORCA TERMINATED NORMALLY****
TOTAL RUN TIME: 0 days 0 hours 1 minutes 58 seconds 932 msec
