33
 energy: -56.023852114804 gnorm: 0.032596986316 xtb: 6.7.1 (edcfbbe)
C           -4.58065739762906       -1.05874030463336       -0.39676182336908
C           -3.86494322881863       -2.24319250724526       -0.22004952604372
C           -2.49333709886140       -2.20768795454967       -0.00625236996248
C           -1.81417873192174       -0.98750727254558        0.02892056292849
C           -2.53630685279343        0.20213668777865       -0.15916093296406
C           -3.91695196655542        0.15823937624392       -0.36757961673285
C           -1.84292014946287        1.49943164315434       -0.14979921260966
O           -2.46523721302506        2.55383249114167       -0.31300346445104
C           -0.37479330173944        1.49841575835954        0.05281382097584
C            0.26620073927850        2.72526757778303        0.01515771088701
C            1.65023126008171        2.78872894398887        0.19183601180478
C            2.38524263076518        1.64994351946086        0.41998539480210
C            1.76735321353870        0.37264031294343        0.49944819946392
C            0.34714601310609        0.29446698898878        0.28289881595848
C           -0.35079122748453       -0.97812967921655        0.28322513970878
O            0.22574970876277       -2.06959551517515        0.48526933383587
N            2.48257468560501       -0.73388462644738        0.80270115660406
C            3.92736446582578       -0.83561112011764        0.90339003906447
C            4.55000996200438       -1.44040441795186       -0.36226086125432
O            4.28460926999266       -0.65578856059375       -1.53619394612298
H           -5.65271165204057       -1.08686142922115       -0.55847121233537
H           -4.38044393466051       -3.19706824801235       -0.24755284788088
H           -1.93602144028032       -3.12621270558971        0.13473766793511
H           -4.45525312161258        1.08922634707641       -0.50599254842142
H           -0.31473972537381        3.62275049721864       -0.15638869863547
H            2.15591710737483        3.74783690060861        0.15062482283506
H            3.45435214831595        1.74426479999262        0.54977194014096
H            1.95364257381313       -1.60189040217047        0.77583362704684
H            4.17429048587420       -1.49248189174464        1.75278024917547
H            4.37218396120665        0.14182678967900        1.10889379186439
H            4.19940540466422       -2.47067490053997       -0.49933123675146
H            5.63578778459566       -1.45897529295743       -0.24241407571125
H            3.33730017383766       -0.70477270942280       -1.70669964231120
33
 energy: -56.025402223847 gnorm: 0.013802309744 xtb: 6.7.1 (edcfbbe)
C           -4.56511079601908       -1.05880051999963       -0.39563902109965
C           -3.85249425141264       -2.23764812163514       -0.21831495182031
C           -2.48525278764162       -2.19982799139543       -0.00419622874194
C           -1.80550784671956       -0.98347552744096        0.03245615720512
C           -2.52530335444552        0.20296926071315       -0.15736289708303
C           -3.90290865068922        0.15492764691789       -0.36654053016315
C           -1.83836306578775        1.50032748322236       -0.14762049018348
O           -2.45659825079637        2.55217861822544       -0.31050737208270
C           -0.37639483975781        1.49234311294569        0.05695002803748
C            0.26491226621129        2.71699379815311        0.01696992539713
C            1.64506559899764        2.78578097585744        0.19054639196579
C            2.37475319586337        1.65036685096099        0.42056402460134
C            1.76094091478256        0.37540418190052        0.49821973537713
C            0.34507540913996        0.29361633358372        0.28725213142952
C           -0.34722044444476       -0.97849639950363        0.28708987473391
O            0.22827592986439       -2.06618962680090        0.48042323679319
N            2.47389780656082       -0.72671308231083        0.79488409657455
C            3.91040130919823       -0.83914148790448        0.90523796375323
C            4.54112580182534       -1.44068807408161       -0.35929892370097
O            4.29574008269352       -0.65729055475248       -1.52077016154479
H           -5.63270661579295       -1.08795545828254       -0.55735673086914
H           -4.36603802690144       -3.18765181741411       -0.24499154035868
H           -1.92537133025944       -3.11272440326487        0.13941751259662
H           -4.43616350329762        1.08481260431072       -0.50537130909488
H           -0.31913151622077        3.60830537306405       -0.15629639037896
H            2.14588644253073        3.74200885755643        0.14414922565185
H            3.44177804449831        1.74032494669506        0.53785412141089
H            1.94405548767135       -1.59570840349697        0.77712175467622
H            4.14226671993127       -1.50025706451361        1.74731222024384
H            4.35600861790054        0.13370087572013        1.10787962591561
H            4.17836694856059       -2.46298697174175       -0.51425049725637
H            5.62634839813441       -1.46406647103559       -0.24511347515857
H            3.34974085220591       -0.69490984796851       -1.71032123735242
33
 energy: -56.025766232319 gnorm: 0.004607049034 xtb: 6.7.1 (edcfbbe)
C           -4.55478597919622       -1.06046676236202       -0.39546942773897
C           -3.84268388613991       -2.23693646845124       -0.21529067578973
C           -2.47760881797232       -2.19592834039484        0.00100648823635
C           -1.79847109635671       -0.98046351505470        0.03688070512027
C           -2.51776611685410        0.20426404260129       -0.15529260694657
C           -3.89382973253558        0.15255652897861       -0.36656957348732
C           -1.83689132478154        1.50354781745527       -0.14472669136547
O           -2.45435192685740        2.55383868946135       -0.30733084152234
C           -0.37832052421754        1.49030805431113        0.06075212938688
C            0.26399353696576        2.71433354885706        0.01870256463742
C            1.64339584069027        2.78734179556206        0.18687302742773
C            2.37048818667574        1.65199198520245        0.41602556622741
C            1.75728568407374        0.37825608487165        0.49669071787274
C            0.34351764285565        0.29427851858759        0.29022036148938
C           -0.34270232151856       -0.97994204558155        0.28753925337446
O            0.23258603764437       -2.06624187780078        0.47623829351668
N            2.46760717015608       -0.72266854073011        0.78545256890079
C            3.89756953702644       -0.84615152393815        0.90888027180562
C            4.52982214469213       -1.44238585220303       -0.36031062000303
O            4.30715929339752       -0.65064438848949       -1.50922247070567
H           -5.62006242543607       -1.09028768824245       -0.55868656000158
H           -4.35364025693061       -3.18604336341166       -0.24194399995006
H           -1.91227316442083       -3.10392555007284        0.14646772621670
H           -4.42256834892106        1.08320323093672       -0.50708308846679
H           -0.32499018727298        3.60073147108095       -0.15583994974696
H            2.13993279318511        3.74300343272245        0.13730546543983
H            3.43720548802346        1.73707249143681        0.52699068144185
H            1.93519998543787       -1.59154443174378        0.77746844454012
H            4.11525774697605       -1.51472953392914        1.74435780176989
H            4.34843549397591        0.12201654422286        1.11334283213951
H            4.15446257845247       -2.45923048472673       -0.52380729035052
H            5.61349824190314       -1.47812832599173       -0.23857988461967
H            3.36360325366338       -0.67149644688030       -1.72066494937459
33
 energy: -56.025860391174 gnorm: 0.003007761778 xtb: 6.7.1 (edcfbbe)
C           -4.55178635424879       -1.06276189108664       -0.39606440730362
C           -3.83889537420442       -2.23877572649986       -0.21304768439299
C           -2.47432469087560       -2.19540411726342        0.00467407441496
C           -1.79636869636508       -0.97902835552008        0.03979348200243
C           -2.51616490122295        0.20499432279865       -0.15401431103805
C           -3.89195996908175        0.15090669687596       -0.36725454524206
C           -1.83774186421001        1.50578588465629       -0.14259827092438
O           -2.45643883922200        2.55545246198070       -0.30432727572920
C           -0.37964718323321        1.49170801295882        0.06285454016022
C            0.26393493621684        2.71557125239224        0.01955977123771
C            1.64399995593685        2.78995447150971        0.18419609077182
C            2.37085735758602        1.65390380037221        0.41203779466903
C            1.75620254833066        0.38066713852579        0.49550097275579
C            0.34236210026996        0.29609620970761        0.29164828357991
C           -0.34152148203343       -0.97936717805755        0.29017331506449
O            0.23463343867620       -2.06621353797701        0.47427786282150
N            2.46441130547035       -0.72128532913802        0.77931474887339
C            3.89188215760026       -0.85185675755412        0.91069046786622
C            4.52496479181767       -1.44498999207758       -0.36191611447875
O            4.31927733121822       -0.64126497128968       -1.50218238133819
H           -5.61660743792540       -1.09334585893652       -0.56156466676577
H           -4.34825204758556       -3.18868658473874       -0.23893017442094
H           -1.90520016857791       -3.10080850444797        0.15286714434492
H           -4.41909838175637        1.08225872024721       -0.50963536721717
H           -0.32797611449197        3.60023694782220       -0.15478953738181
H            2.13905818650606        3.74596894359323        0.13107375933563
H            3.43851319656484        1.73546285352832        0.51910729788899
H            1.92917567835864       -1.58899982695305        0.77660180808449
H            4.10121986671489       -1.52750762167704        1.74191374164436
H            4.34821573766203        0.11271906023634        1.12142137484940
H            4.13760743525443       -2.45704930995053       -0.53187099090528
H            5.60748113783550       -1.49608310540404       -0.23171619515544
H            3.37826088939875       -0.64872901234968       -1.72741833859724
33
 energy: -56.025927189654 gnorm: 0.002665400494 xtb: 6.7.1 (edcfbbe)
C           -4.55088736389592       -1.06538601766414       -0.39712923065981
C           -3.83718973831647       -2.24120191815109       -0.21004784520046
C           -2.47312520177977       -2.19561033261071        0.01018129643826
C           -1.79639570304930       -0.97788405421251        0.04354390549170
C           -2.51667968148846        0.20560039476034       -0.15247697183047
C           -3.89242173144307        0.14921882547245       -0.36851465071835
C           -1.83935168497077        1.50758787799763       -0.13992118409422
O           -2.45980811437427        2.55691176595867       -0.29980631891305
C           -0.38082797143518        1.49402399030003        0.06454508591271
C            0.26464566536639        2.71738541619299        0.01975602812224
C            1.64582222766998        2.79162343866879        0.18023919841604
C            2.37288331721973        1.65488699626937        0.40701716323509
C            1.75557310312927        0.38251837204235        0.49444113546817
C            0.34104814192221        0.29802228364056        0.29235086356535
C           -0.34145513006477       -0.97812204721693        0.29096711990534
O            0.23509206152949       -2.06574471133613        0.47394920600045
N            2.46143484754737       -0.72121946161325        0.77381238341755
C            3.88721400863448       -0.85835331092610        0.91256046168437
C            4.52167573015771       -1.44683414057783       -0.36364187717019
O            4.33814382645419       -0.62622376875549       -1.49431669452419
H           -5.61564729619871       -1.09702154136742       -0.56535597234923
H           -4.34519980931718       -3.19229793746903       -0.23508221680250
H           -1.90054963739192       -3.09891699732593        0.16064628185523
H           -4.41907164586986        1.08095150036927       -0.51305966944337
H           -0.32905544928125        3.60153735815844       -0.15384637452415
H            2.14026857630159        3.74813920928798        0.12351223543159
H            3.44182043742130        1.73218778646338        0.51047146277223
H            1.92251818806469       -1.58703031564636        0.77567192145248
H            4.08885795714783       -1.54226002184322        1.73917955703576
H            4.34883813067719        0.10242172734157        1.13278139800906
H            4.11863746986831       -2.45166039373309       -0.54464346661740
H            5.60233204604504       -1.51928314408588       -0.22308773117853
H            3.40093497010380       -0.61843773210491       -1.73432023071336
33
 energy: -56.025967010456 gnorm: 0.002453048212 xtb: 6.7.1 (edcfbbe)
C           -4.55157795648857       -1.06671237921105       -0.39798252835190
C           -3.83772113379373       -2.24241538614505       -0.20772728756036
C           -2.47401134409334       -2.19588712590996        0.01407457758287
C           -1.79799170314791       -0.97734415187048        0.04626411508982
C           -2.51830467195395        0.20592725180758       -0.15139903740282
C           -3.89401531403923        0.14844228916122       -0.36953415939139
C           -1.84073915891972        1.50820718626130       -0.13757845947132
O           -2.46214153957726        2.55764784608730       -0.29506941955089
C           -0.38155020907651        1.49532398183372        0.06521215264479
C            0.26534551867808        2.71802087745280        0.01923539872207
C            1.64729236594064        2.79095104682543        0.17662961358704
C            2.37455922930496        1.65394490406202        0.40259389139039
C            1.75527756631451        0.38233478160284        0.49262163035187
C            0.33992994400738        0.29865464500047        0.29247292776145
C           -0.34308211205113       -0.97689777549732        0.29377463678035
O            0.23353227992355       -2.06527907567330        0.47594387445632
N            2.45951085785520       -0.72261502097646        0.77072741689713
C            3.88462150866210       -0.86316704663508        0.91341460636269
C            4.52111443933273       -1.44694399529444       -0.36445259392731
O            4.35778994290348       -0.61157784211835       -1.48772533087034
H           -5.61622021043555       -1.09923467232736       -0.56880245276363
H           -4.34533883124807       -3.19408522781474       -0.23183897237603
H           -1.90033429434054       -3.09827560610992        0.16709679591993
H           -4.42114828102930        1.07986622260437       -0.51605256949195
H           -0.32810995070771        3.60287716078443       -0.15326752584865
H            2.14208756565738        3.74753434164309        0.11735386452855
H            3.44422854901131        1.72836498236606        0.50370157182346
H            1.91776315776092       -1.58676445670416        0.77511122901414
H            4.08205820654413       -1.55260966880774        1.73674753871193
H            4.34857919577902        0.09513674779159        1.14131652756944
H            4.10498973343864       -2.44435083639034       -0.55793463953995
H            5.59950270395877       -1.53734089973550       -0.21577116415375
H            3.42417849221340       -0.59220400177913       -1.73877995901956
33
 energy: -56.026009129680 gnorm: 0.002303972805 xtb: 6.7.1 (edcfbbe)
C           -4.55317628130117       -1.06735809442043       -0.39953205302751
C           -3.83987654249823       -2.24285355684794       -0.20469298916186
C           -2.47678090135872       -2.19591774722528        0.01999704514656
C           -1.80114312631607       -0.97693341677049        0.05031985030696
C           -2.52092552935241        0.20624733184246       -0.14989314393039
C           -3.89632954984967        0.14815822527430       -0.37125138418486
C           -1.84247614877367        1.50831135374068       -0.13426934795186
O           -2.46430217815143        2.55828072657498       -0.28784512061351
C           -0.38247177305433        1.49578054681466        0.06571352554646
C            0.26589436543536        2.71748828493967        0.01797157047298
C            1.64861026640763        2.78812254794681        0.17155926010545
C            2.37589369426902        1.65097990080102        0.39661807374035
C            1.75455183767514        0.38041962071431        0.49025317862156
C            0.33837567272738        0.29823897773472        0.29243142264608
C           -0.34592934321819       -0.97601106085243        0.29662089524390
O            0.22965943736901       -2.06487731470841        0.48193739280727
N            2.45714553386769       -0.72567004874133        0.76827293180502
C            3.88185170832506       -0.86902340852466        0.91355745164864
C            4.52203111418151       -1.44599826718591       -0.36503222459702
O            4.38829270590841       -0.59078556623748       -1.47858882180771
H           -5.61748809032060       -1.10083621830912       -0.57342354592893
H           -4.34762887257835       -3.19467570338211       -0.22768171838200
H           -1.90316944154908       -3.09787331013947        0.17584885652445
H           -4.42447718631103        1.07870118612297       -0.52040630335254
H           -0.32589029847385        3.60392548842533       -0.15292320688204
H            2.14434734420169        3.74439550094766        0.10999651837504
H            3.44616073912664        1.72264137966650        0.49439058492292
H            1.91216269482112       -1.58779186310196        0.77489927085831
H            4.07541782127871       -1.56443478594069        1.73295990381730
H            4.34698025876232        0.08673042625826        1.15043774594647
H            4.08848558505027       -2.43197893821634       -0.57812156149860
H            5.59658391063761       -1.56024001003925       -0.20550754512778
H            3.45969511944590       -0.55563309087705       -1.74424024261475
33
 energy: -56.026036584729 gnorm: 0.001903343460 xtb: 6.7.1 (edcfbbe)
C           -4.55522683199330       -1.06638041814234       -0.40060211889524
C           -3.84313170319973       -2.24188276964993       -0.20279366622890
C           -2.48033368863402       -2.19568827648440        0.02361632422079
C           -1.80422057733869       -0.97713238060795        0.05307959884151
C           -2.52300537456020        0.20630799582217       -0.14898425059220
C           -3.89800161659543        0.14890669029036       -0.37250154305783
C           -1.84350536062337        1.50769809770773       -0.13190758315184
O           -2.46475018922122        2.55844168155452       -0.28210767785094
C           -0.38306559453362        1.49443671878607        0.06573391209211
C            0.26603384733609        2.71541510511933        0.01655831255510
C            1.64909298644404        2.78415098458022        0.16776553402192
C            2.37597140949812        1.64681542806412        0.39205097879994
C            1.75370122703533        0.37698302002251        0.48791692552119
C            0.33710345923512        0.29634253842688        0.29251607350846
C           -0.34910534819517       -0.97649830470744        0.30087940556794
O            0.22523425525763       -2.06557068051369        0.48903229387735
N            2.45569002863662       -0.72925440425869        0.76763592670518
C            3.88056035742724       -0.87245309184571        0.91292803111085
C            4.52445962913287       -1.44363505244406       -0.36515167804264
O            4.41323389633807       -0.57482217683296       -1.47141358386256
H           -5.61910900058659       -1.09994994060267       -0.57665760366034
H           -4.35173519969111       -3.19318518047141       -0.22495396714408
H           -1.90837435884672       -3.09810672484947        0.18192084334871
H           -4.42662736445000        1.07874679544533       -0.52356543940525
H           -0.32367599015581        3.60328935738386       -0.15336149686952
H            2.14599711001228        3.73975234709371        0.10505670662517
H            3.44636362894429        1.71763353022162        0.48742106745626
H            1.90935112169101       -1.59043174549461        0.77481632091446
H            4.07306217863995       -1.57081189406481        1.72999535373173
H            4.34434007702848        0.08252323702795        1.15481912395633
H            4.07986114576225       -2.42030316649420       -0.59449561846111
H            5.59543482553677       -1.57382098253288       -0.19793455572406
H            3.48845156105244       -0.52798724126513       -1.74693568043413
33
 energy: -56.026053148215 gnorm: 0.001349748894 xtb: 6.7.1 (edcfbbe)
C           -4.55826272731242       -1.06347165934679       -0.40131983772309
C           -3.84839750680097       -2.23937708567505       -0.20134589540985
C           -2.48571818798596       -2.19522576518485        0.02686732708485
C           -1.80773949602016       -0.97818422777977        0.05580958192601
C           -2.52470954485078        0.20600934070305       -0.14807028602150
C           -3.89910936451717        0.15080374017577       -0.37340534067465
C           -1.84393755856014        1.50628399636272       -0.12995934842026
O           -2.46355186809782        2.55811520337108       -0.27703992577130
C           -0.38342125680315        1.49071033415105        0.06535570893716
C            0.26613489895545        2.71107582389709        0.01418730400167
C            1.64922826149894        2.77835178954297        0.16371270701587
C            2.37490831992727        1.64049862514194        0.38772253812371
C            1.75224800585634        0.37138426950163        0.48615114102177
C            0.33575605165343        0.29234707721440        0.29281100296280
C           -0.35258000429695       -0.97935815171235        0.30440492110705
O            0.21950950421860       -2.06802511757462        0.49864035475985
N            2.45454015938563       -0.73426845740050        0.76828506274085
C            3.88001769346361       -0.87486651448641        0.91200999900616
C            4.52853543245900       -1.43906053439052       -0.36542015933928
O            4.43849399224906       -0.55790158181616       -1.46342427363714
H           -5.62170398408408       -1.09576056177789       -0.57833980137690
H           -4.35867591663742       -3.18946793472339       -0.22303957763138
H           -1.91676461414723       -3.09905086126017        0.18640629315213
H           -4.42693358036843        1.08057247102021       -0.52579316431350
H           -0.32154946201269        3.59994716236462       -0.15561524674699
H            2.14756336487506        3.73284932329063        0.10046900519395
H            3.44520365937007        1.71198632692639        0.48043974134559
H            1.90867947520066       -1.59559314202639        0.77477807889856
H            4.07325377534205       -1.57498765777411        1.72714176051573
H            4.34038377213377        0.08058385932723        1.15729189832853
H            4.07577147572654       -2.40657378066671       -0.61136861251838
H            5.59576804566315       -1.58222282142698       -0.19054120444930
H            3.51713373090040       -0.49859439168399       -1.74742548261434
33
 energy: -56.026040511449 gnorm: 0.002574024680 xtb: 6.7.1 (edcfbbe)
C           -4.56135107035451       -1.06052520216935       -0.40203201571876
C           -3.85374019236093       -2.23684771147984       -0.19988136808702
C           -2.49117539732784       -2.19476777608054        0.03014148090070
C           -1.81130249238519       -0.97925709543224        0.05857147631243
C           -2.52643599932645        0.20570311564667       -0.14713806515982
C           -3.90023727487814        0.15272426686420       -0.37430319435247
C           -1.84437486344984        1.50485283222842       -0.12798770920060
O           -2.46234572234744        2.55778376913064       -0.27192189001167
C           -0.38377846612257        1.48693737586896        0.06497338094149
C            0.26624997837801        2.70668299649958        0.01177426140858
C            1.64938253899886        2.77248487927742        0.15958626626769
C            2.37384778242873        1.63409874867043        0.38332137475629
C            1.75078077392061        0.36571274043611        0.48435677714099
C            0.33438938300644        0.28829911371535        0.29311691721683
C           -0.35610544522762       -0.98226244619325        0.30801785148296
O            0.21371785494450       -2.07052682526182        0.50835280101590
N            2.45337516228447       -0.73935412210404        0.76892447614167
C            3.87946545379617       -0.87733115660427        0.91110363344897
C            4.53265628046488       -1.43441687460440       -0.36570731527448
O            4.46407347385680       -0.54069085917041       -1.45530547935811
H           -5.62435068706223       -1.09150506879093       -0.58003337769517
H           -4.36571287396111       -3.18571792465762       -0.22110632480340
H           -1.92525681823483       -3.10001651669273        0.19093631230878
H           -4.42723023041491        1.08243746775110       -0.52802957012281
H           -0.31940700256248        3.59655201463687       -0.15792003170109
H            2.14916762229365        3.72586648099227        0.09577159847720
H            3.44405134801222        1.70625742970086        0.47335274502635
H            1.90800505479056       -1.60083192864650        0.77473546500970
H            4.07342900936716       -1.57927011884116        1.72425875554861
H            4.33639558035449        0.07858957141180        1.15985985380957
H            4.07160282646969       -2.39267155779158       -0.62847422950327
H            5.59611120728129       -1.59075578701246       -0.18303554586137
H            3.54617775175119       -0.46870473501329       -1.74790304089029
33
 energy: -56.026055093235 gnorm: 0.001219184653 xtb: 6.7.1 (edcfbbe)
C           -4.56007119446221       -1.06165695820406       -0.40115905337484
C           -3.85140124819473       -2.23799146799205       -0.20077055536360
C           -2.48862802780682       -2.19512929548716        0.02779014363155
C           -1.80935905531426       -0.97900600212411        0.05695137961740
C           -2.52531915541951        0.20571296821784       -0.14752550633747
C           -3.89950822843654        0.15190911372912       -0.37331948442508
C           -1.84394209467987        1.50548126459892       -0.12924179849239
O           -2.46269600833867        2.55782557476198       -0.27525119961301
C           -0.38347411826081        1.48840931623909        0.06509287620022
C            0.26644545694403        2.70852118636419        0.01264362967582
C            1.64954320601268        2.77537461003537        0.16132831694524
C            2.37441790940885        1.63703958957956        0.38541288870420
C            1.75149438785529        0.36828882931202        0.48523474913560
C            0.33505106833276        0.28997102453987        0.29315383893292
C           -0.35439170828795       -0.98140015854355        0.30698163891839
O            0.21674653903628       -2.06990468539063        0.50308775147579
N            2.45400189784378       -0.73702298149513        0.76835499077247
C            3.87972619258756       -0.87623737922058        0.91205765394746
C            4.53058928882074       -1.43619212674812       -0.36587024489764
O            4.45019383455979       -0.54826240936916       -1.45883577233769
H           -5.62337929525186       -1.09277390405433       -0.57845325697295
H           -4.36258449592753       -3.18747010838505       -0.22238605195511
H           -1.92115775722688       -3.09974907814530        0.18784386767047
H           -4.42617773143916        1.08216593149209       -0.52612707851942
H           -0.32089274434176        3.59741571932908       -0.15754113617475
H            2.14856805362219        3.72928755571356        0.09731327111790
H            3.44472776595083        1.70898844000326        0.47684364505999
H            1.90894601015917       -1.59878204340344        0.77464713691728
H            4.07320883458617       -1.57763087276011        1.72598911362919
H            4.33849312937193        0.07946027136092        1.15940373952488
H            4.07426047825594       -2.39980571823665       -0.61973469318175
H            5.59635971229784       -1.58534018587382       -0.18680732766364
H            3.53028364412637       -0.48196692355942       -1.74673120309305
33
 energy: -56.026059056073 gnorm: 0.000448420155 xtb: 6.7.1 (edcfbbe)
C           -4.55955102086712       -1.06210367320842       -0.39969494301580
C           -3.85004027275604       -2.23876263735289       -0.20174494280578
C           -2.48697314073325       -2.19563732353133        0.02524934338227
C           -1.80775037057589       -0.97915310019548        0.05519775533654
C           -2.52429405631719        0.20557479964712       -0.14773140643942
C           -3.89900103363834        0.15149678412307       -0.37171860742155
C           -1.84322465788324        1.50581699862728       -0.13094469819699
O           -2.46258127319402        2.55763655048080       -0.27968482096155
C           -0.38287633872146        1.48930423449566        0.06474791323499
C            0.26714906841509        2.70974179738363        0.01272260186255