      -----------------------------------------------------------      
     |                   =====================                   |     
     |                           x T B                           |     
     |                   =====================                   |     
     |                         S. Grimme                         |     
     |          Mulliken Center for Theoretical Chemistry        |     
     |                    University of Bonn                     |     
      -----------------------------------------------------------      

   * xtb version 6.7.1 (edcfbbe) compiled by 'albert@albert-system' on 2024-07-22

   xtb is free software: you can redistribute it and/or modify it under
   the terms of the GNU Lesser General Public License as published by
   the Free Software Foundation, either version 3 of the License, or
   (at your option) any later version.
   
   xtb is distributed in the hope that it will be useful,
   but WITHOUT ANY WARRANTY; without even the implied warranty of
   MERCHANTABILITY or FITNESS FOR A PARTICULAR PURPOSE.  See the
   GNU Lesser General Public License for more details.
   
   Cite this work as:
   * C. Bannwarth, E. Caldeweyher, S. Ehlert, A. Hansen, P. Pracht,
     J. Seibert, S. Spicher, S. Grimme, WIREs Comput. Mol. Sci., 2020, 11,
     e01493. DOI: 10.1002/wcms.1493
   
   for GFN2-xTB:
   * C. Bannwarth, S. Ehlert and S. Grimme., J. Chem. Theory Comput., 2019,
     15, 1652-1671. DOI: 10.1021/acs.jctc.8b01176
   for GFN1-xTB:
   * S. Grimme, C. Bannwarth, P. Shushkov, J. Chem. Theory Comput., 2017,
     13, 1989-2009. DOI: 10.1021/acs.jctc.7b00118
   for GFN0-xTB:
   * P. Pracht, E. Caldeweyher, S. Ehlert, S. Grimme, ChemRxiv, 2019, preprint.
     DOI: 10.26434/chemrxiv.8326202.v1
   for GFN-FF:
   * S. Spicher and S. Grimme, Angew. Chem. Int. Ed., 2020, 59, 15665-15673.
     DOI: 10.1002/anie.202004239
   
   for ALPB and GBSA implicit solvation:
   * S. Ehlert, M. Stahn, S. Spicher, S. Grimme, J. Chem. Theory Comput.,
     2021, 17, 4250-4261. DOI: 10.1021/acs.jctc.1c00471
   
   for ddCOSMO and CPCM-X implicit solvation:
   * M. Stahn, S. Ehlert, S. Grimme, J. Phys. Chem. A,
     2023, XX, XXXX-XXXX. DOI: 10.1021/acs.jpca.3c04382
   
   for DFT-D4:
   * E. Caldeweyher, C. Bannwarth and S. Grimme, J. Chem. Phys., 2017,
     147, 034112. DOI: 10.1063/1.4993215
   * E. Caldeweyher, S. Ehlert, A. Hansen, H. Neugebauer, S. Spicher,
     C. Bannwarth and S. Grimme, J. Chem. Phys., 2019, 150, 154122.
     DOI: 10.1063/1.5090222
   * E. Caldeweyher, J.-M. Mewes, S. Ehlert and S. Grimme, Phys. Chem. Chem. Phys.
     2020, 22, 8499-8512. DOI: 10.1039/D0CP00502A
   
   for sTDA-xTB:
   * S. Grimme and C. Bannwarth, J. Chem. Phys., 2016, 145, 054103.
     DOI: 10.1063/1.4959605
   
   in the mass-spec context:
   * V. Asgeirsson, C. Bauer and S. Grimme, Chem. Sci., 2017, 8, 4879.
     DOI: 10.1039/c7sc00601b
   * J. Koopman and S. Grimme, ACS Omega 2019, 4, 12, 15120-15133.
     DOI: 10.1021/acsomega.9b02011
   
   for metadynamics refer to:
   * S. Grimme, J. Chem. Theory Comput., 2019, 155, 2847-2862
     DOI: 10.1021/acs.jctc.9b00143
   
   for SPH calculations refer to:
   * S. Spicher and S. Grimme, J. Chem. Theory Comput., 2021, 17, 1701-1714
     DOI: 10.1021/acs.jctc.0c01306
   
   for ONIOM refer to:
   * C. Plett, A. Katbashev, S. Ehlert, S. Grimme, M. Bursch,
     Phys. Chem. Chem. Phys., 2023, 25, 17860-17868. DOI: 10.1039/D3CP02178E
   
   for DIPRO refer to:
   * J. Kohn, N. Gildemeister, S. Grimme, D. Fazzi, A. Hansen,
     J. Chem. Phys., 2023, just accepted.
   
   for PTB refer to:
   * S. Grimme, M. Mueller, A. Hansen, J. Chem. Phys., 2023, 158, 124111.
     DOI: 10.1063/5.0137838
   
   with help from (in alphabetical order)
   P. Atkinson, C. Bannwarth, F. Bohle, G. Brandenburg, E. Caldeweyher
   M. Checinski, S. Dohm, S. Ehlert, S. Ehrlich, I. Gerasimov, C. Hölzer
   A. Katbashev, J. Kohn, J. Koopman, C. Lavigne, S. Lehtola, F. März, M. Müller,
   F. Musil, H. Neugebauer, J. Pisarek, C. Plett, P. Pracht, F. Pultar,
   J. Seibert, P. Shushkov, S. Spicher, M. Stahn, M. Steiner, T. Strunk,
   J. Stückrath, T. Rose, and J. Unsleber
   
 * started run on 2025/04/11 at 12:43:49.816     
   ID    Z sym.   atoms
    1    6 C      1-4
    2    7 N      5
    3    1 H      6-16

           -------------------------------------------------
          |                Calculation Setup                |
           -------------------------------------------------

          program call               : /srv/scratch/z5358697/.xtb/bin/xtb xtb_rrho.coord --gfn2 --ohess vtight --chrg 0 --enso --norestart -I rrho-xcontrol-inp --parallel 1 --alpb water
          hostname                   : k077
          coordinate file            : xtb_rrho.coord
          omp threads                :                     1


           -------------------------------------------------
          |                 G F N 2 - x T B                 |
           -------------------------------------------------

        Reference                      10.1021/acs.jctc.8b01176
      * Hamiltonian:
        H0-scaling (s, p, d)           1.850000    2.230000    2.230000
        zeta-weighting                 0.500000
      * Dispersion:
        s8                             2.700000
        a1                             0.520000
        a2                             5.000000
        s9                             5.000000
      * Repulsion:
        kExp                           1.500000    1.000000
        rExp                           1.000000
      * Coulomb:
        alpha                          2.000000
        third order                    shell-resolved
        anisotropic                    true
        a3                             3.000000
        a5                             4.000000
        cn-shift                       1.200000
        cn-exp                         4.000000
        max-rad                        5.000000

      * Solvation model:               ALPB
        Solvent                        water
        Parameter file                 internal GFN2-xTB/ALPB
        Dielectric constant                8.0200E+01
        Reference state                gsolv [1 M gas/solution]
        Free energy shift                  1.0808E-03 Eh       6.7819E-01 kcal/mol
        Temperature                        2.9815E+02 K
        Density                            1.0000E+00 kg/L
        Solvent mass                       1.8000E+01 g/mol
        Interaction kernel             P16
        Born radius scaling (c1)           1.4744E+00
        Born radii integrator          GBOBC
        Born offset                        0.0000E+00 a0       0.0000E+00 AA
        H-bond correction              true
        Ion screening                  false
        Surface tension                    1.0000E-05 Eh       1.5569E+01 dyn/cm
        Grid points                               974 per atom

          ...................................................
          :                      SETUP                      :
          :.................................................:
          :  # basis functions                  31          :
          :  # atomic orbitals                  31          :
          :  # shells                           21          :
          :  # electrons                        32          :
          :  max. iterations                   250          :
          :  Hamiltonian                  GFN2-xTB          :
          :  restarted?                      false          :
          :  GBSA solvation                   true          :
          :  PC potential                    false          :
          :  electronic temp.          300.0000000     K    :
          :  accuracy                    1.0000000          :
          :  -> integral cutoff          0.2500000E+02      :
          :  -> integral neglect         0.1000000E-07      :
          :  -> SCF convergence          0.1000000E-05 Eh   :
          :  -> wf. convergence          0.1000000E-03 e    :
          :  Broyden damping             0.4000000          :
          :  net charge                          0          :
          :  unpaired electrons                  0          :
          ...................................................

 iter      E             dE          RMSdq      gap      omega  full diag
   1    -17.2928334 -0.172928E+02  0.246E+00   11.18       0.0  T
   2    -17.3109986 -0.181652E-01  0.133E+00   11.20       1.0  T
   3    -17.3118656 -0.867014E-03  0.517E-01   11.22       1.0  T
   4    -17.3119503 -0.846884E-04  0.866E-02   11.19       1.0  T
   5    -17.3119577 -0.738686E-05  0.362E-02   11.18       1.0  T
   6    -17.3119585 -0.827124E-06  0.138E-02   11.18       1.8  T
   7    -17.3119587 -0.180890E-06  0.252E-03   11.18       9.9  T
   8    -17.3119587 -0.568190E-08  0.121E-03   11.18      20.7  T
   9    -17.3119587 -0.218619E-08  0.212E-04   11.18     117.9  T
  10    -17.3119587 -0.457341E-10  0.920E-05   11.18     271.6  T

   *** convergence criteria satisfied after 10 iterations ***

         #    Occupation            Energy/Eh            Energy/eV
      -------------------------------------------------------------
         1        2.0000           -0.6267584             -17.0550
       ...           ...                  ...                  ...
        10        2.0000           -0.4770224             -12.9804
        11        2.0000           -0.4592601             -12.4971
        12        2.0000           -0.4509699             -12.2715
        13        2.0000           -0.4315010             -11.7417
        14        2.0000           -0.4252344             -11.5712
        15        2.0000           -0.4220511             -11.4846
        16        2.0000           -0.3666536              -9.9772 (HOMO)
        17                          0.0442773               1.2048 (LUMO)
        18                          0.0905688               2.4645
        19                          0.1033243               2.8116
        20                          0.1136742               3.0932
        21                          0.1285963               3.4993
       ...                                ...                  ...
        31                          0.2889245               7.8620
      -------------------------------------------------------------
                  HL-Gap            0.4109308 Eh           11.1820 eV
             Fermi-level           -0.1611881 Eh           -4.3862 eV

 SCC (total)                   0 d,  0 h,  0 min,  0.022 sec
 SCC setup                      ...        0 min,  0.001 sec (  4.270%)
 Dispersion                     ...        0 min,  0.000 sec (  0.339%)
 classical contributions        ...        0 min,  0.000 sec (  0.086%)
 integral evaluation            ...        0 min,  0.001 sec (  4.364%)
 iterations                     ...        0 min,  0.017 sec ( 77.720%)
 molecular gradient             ...        0 min,  0.003 sec ( 12.493%)
 printout                       ...        0 min,  0.000 sec (  0.659%)

         :::::::::::::::::::::::::::::::::::::::::::::::::::::
         ::                     SUMMARY                     ::
         :::::::::::::::::::::::::::::::::::::::::::::::::::::
         :: total energy             -17.082219498453 Eh    ::
         :: total w/o Gsasa/hb       -17.079416856286 Eh    ::
         :: gradient norm              0.020505526575 Eh/a0 ::
         :: HOMO-LUMO gap             11.181996971148 eV    ::
         ::.................................................::
         :: SCC energy               -17.311939715395 Eh    ::
         :: -> isotropic ES            0.016182881486 Eh    ::
         :: -> anisotropic ES          0.006619641070 Eh    ::
         :: -> anisotropic XC          0.013382186776 Eh    ::
         :: -> dispersion             -0.008316035497 Eh    ::
         :: -> Gsolv                  -0.004154439283 Eh    ::
         ::    -> Gelec               -0.001351797117 Eh    ::
         ::    -> Gsasa               -0.001914164789 Eh    ::
         ::    -> Ghb                 -0.001969237075 Eh    ::
         ::    -> Gshift               0.001080759698 Eh    ::
         :: repulsion energy           0.229720216943 Eh    ::
         :: add. restraining           0.000000000000 Eh    ::
         :: total charge              -0.000000000000 e     ::
         :::::::::::::::::::::::::::::::::::::::::::::::::::::

      ----------------------------------------------------------- 
     |                   =====================                   |
     |                        A N C O P T                        |
     |                   =====================                   |
     |               Approximate Normal Coordinate               |
     |                Rational Function Optimizer                |
      ----------------------------------------------------------- 
      ----------------------------------------------------------- 
     |                   =====================                   |
     |                        A N C O P T                        |
     |                   =====================                   |
     |               Approximate Normal Coordinate               |
     |                Rational Function Optimizer                |
      ----------------------------------------------------------- 

          ...................................................
          :                      SETUP                      :
          :.................................................:
          :   optimization level         verytight          :
          :   max. optcycles                   320          :
          :   ANC micro-cycles                  20          :
          :   degrees of freedom                42          :
          :.................................................:
          :   RF solver                   davidson          :
          :   write xtbopt.log                true          :
          :   linear?                        false          :
          :   energy convergence         0.1000000E-06 Eh   :
          :   grad. convergence          0.2000000E-03 Eh/α :
          :   maxmium RF displ.          1.0000000          :
          :   Hlow (freq-cutoff)         0.1000000E-01      :
          :   Hmax (freq-cutoff)         5.0000000          :
          :   S6 in model hess.         20.0000000          :
          ...................................................

generating ANC from exact Hessian ...
Using Lindh-Hessian (1995)
 Shifting diagonal of input Hessian by   7.524516460145262E-003
 Lowest  eigenvalues of input Hessian
    0.000000    0.000000    0.000000    0.000000    0.000000    0.000000
    0.010000    0.012786    0.013105    0.019035    0.020935    0.027476
    0.034950    0.047311    0.056286    0.058147    0.059720    0.060548
 Highest eigenvalues
    1.132470    1.168645    1.223470    1.255333    1.315707    1.379453
 

........................................................................
.............................. CYCLE    1 ..............................
........................................................................

 iter      E             dE          RMSdq      gap      omega  full diag
   1    -17.3119587 -0.173120E+02  0.180E-05   11.18       0.0  T
   2    -17.3119587 -0.223821E-12  0.113E-05   11.18    2203.4  T
   3    -17.3119587 -0.710543E-13  0.251E-06   11.18    9969.7  T
     SCC iter.                  ...        0 min,  0.001 sec
     gradient                   ...        0 min,  0.003 sec
 * total energy  :   -17.0822195 Eh     change       -0.1322675E-10 Eh
   gradient norm :     0.0205055 Eh/α   predicted     0.0000000E+00 (-100.00%)
   displ. norm   :     0.1028911 α      lambda       -0.1062025E-02
   maximum displ.:     0.0558505 α      in ANC's #1, #17, #11, ...

........................................................................
.............................. CYCLE    2 ..............................
........................................................................

 iter      E             dE          RMSdq      gap      omega  full diag
   1    -17.3179875 -0.173180E+02  0.996E-02   11.24       0.0  T
   2    -17.3179912 -0.362168E-05  0.568E-02   11.24       1.0  T
   3    -17.3179914 -0.213147E-06  0.816E-03   11.24       3.1  T
   4    -17.3179916 -0.221436E-06  0.229E-03   11.24      10.9  T
   5    -17.3179916 -0.408897E-08  0.124E-03   11.24      20.1  T
   6    -17.3179916 -0.770640E-09  0.204E-04   11.24     122.5  T
   7    -17.3179916 -0.680558E-10  0.998E-05   11.24     250.5  T
     SCC iter.                  ...        0 min,  0.002 sec
     gradient                   ...        0 min,  0.003 sec
 * total energy  :   -17.0829111 Eh     change       -0.6916168E-03 Eh
   gradient norm :     0.0088459 Eh/α   predicted    -0.5366345E-03 ( -22.41%)
   displ. norm   :     0.0872617 α      lambda       -0.2442885E-03
   maximum displ.:     0.0723572 α      in ANC's #1, #6, #2, ...

........................................................................
.............................. CYCLE    3 ..............................
........................................................................

 iter      E             dE          RMSdq      gap      omega  full diag
   1    -17.3208367 -0.173208E+02  0.472E-02   11.27       0.0  T
   2    -17.3208383 -0.153429E-05  0.266E-02   11.27       1.0  T
   3    -17.3208383 -0.436851E-07  0.611E-03   11.27       4.1  T
   4    -17.3208384 -0.822062E-07  0.118E-03   11.27      21.1  T
   5    -17.3208384 -0.179656E-08  0.563E-04   11.27      44.4  T
   6    -17.3208384 -0.942215E-10  0.134E-04   11.27     187.0  T
     SCC iter.                  ...        0 min,  0.002 sec
     gradient                   ...        0 min,  0.003 sec
 * total energy  :   -17.0830596 Eh     change       -0.1485274E-03 Eh
   gradient norm :     0.0029826 Eh/α   predicted    -0.1230762E-03 ( -17.14%)
   displ. norm   :     0.0648539 α      lambda       -0.5032618E-04
   maximum displ.:     0.0605669 α      in ANC's #1, #6, #3, ...

........................................................................
.............................. CYCLE    4 ..............................
........................................................................

 iter      E             dE          RMSdq      gap      omega  full diag
   1    -17.3211773 -0.173212E+02  0.239E-02   11.29       0.0  T
   2    -17.3211775 -0.233236E-06  0.137E-02   11.29       1.8  T
   3    -17.3211775 -0.106486E-07  0.245E-03   11.29      10.2  T
   4    -17.3211776 -0.191591E-07  0.606E-04   11.29      41.3  T
   5    -17.3211776 -0.219583E-09  0.199E-04   11.29     125.7  T
     SCC iter.                  ...        0 min,  0.001 sec
     gradient                   ...        0 min,  0.003 sec
 * total energy  :   -17.0830983 Eh     change       -0.3861329E-04 Eh
   gradient norm :     0.0017473 Eh/α   predicted    -0.2526816E-04 ( -34.56%)
   displ. norm   :     0.0998518 α      lambda       -0.3458993E-04
   maximum displ.:     0.0923614 α      in ANC's #1, #3, #6, ...

........................................................................
.............................. CYCLE    5 ..............................
........................................................................

 iter      E             dE          RMSdq      gap      omega  full diag
   1    -17.3208787 -0.173209E+02  0.352E-02   11.31       0.0  T
   2    -17.3208790 -0.311205E-06  0.200E-02   11.31       1.2  T
   3    -17.3208791 -0.433301E-07  0.227E-03   11.31      11.0  T
   4    -17.3208791 -0.156477E-07  0.868E-04   11.31      28.8  T
   5    -17.3208791 -0.227512E-09  0.290E-04   11.31      86.2  T
     SCC iter.                  ...        0 min,  0.001 sec
     gradient                   ...        0 min,  0.003 sec
 * total energy  :   -17.0831363 Eh     change       -0.3805714E-04 Eh
   gradient norm :     0.0019402 Eh/α   predicted    -0.1737263E-04 ( -54.35%)
   displ. norm   :     0.0744398 α      lambda       -0.1984954E-04
   maximum displ.:     0.0677673 α      in ANC's #1, #3, #6, ...

........................................................................
.............................. CYCLE    6 ..............................
........................................................................

 iter      E             dE          RMSdq      gap      omega  full diag
   1    -17.3207222 -0.173207E+02  0.235E-02   11.31       0.0  T
   2    -17.3207223 -0.102979E-06  0.133E-02   11.31       1.9  T
   3    -17.3207224 -0.294965E-07  0.938E-04   11.31      26.7  T
   4    -17.3207224 -0.740481E-09  0.493E-04   11.31      50.7  T
     SCC iter.                  ...        0 min,  0.001 sec
     gradient                   ...        0 min,  0.003 sec
 * total energy  :   -17.0831631 Eh     change       -0.2676266E-04 Eh
   gradient norm :     0.0016996 Eh/α   predicted    -0.9948358E-05 ( -62.83%)
   displ. norm   :     0.0762643 α      lambda       -0.2028375E-04
   maximum displ.:     0.0693168 α      in ANC's #1, #3, #6, ...

........................................................................
.............................. CYCLE    7 ..............................
........................................................................

 iter      E             dE          RMSdq      gap      omega  full diag
   1    -17.3207893 -0.173208E+02  0.261E-02   11.31       0.0  T
   2    -17.3207894 -0.942764E-07  0.149E-02   11.31       1.7  T
   3    -17.3207895 -0.348220E-07  0.994E-04   11.31      25.1  T
   4    -17.3207895 -0.122633E-08  0.532E-04   11.31      47.0  T
     SCC iter.                  ...        0 min,  0.001 sec
     gradient                   ...        0 min,  0.003 sec
 * total energy  :   -17.0831894 Eh     change       -0.2632534E-04 Eh
   gradient norm :     0.0009547 Eh/α   predicted    -0.1017035E-04 ( -61.37%)
   displ. norm   :     0.0737888 α      lambda       -0.1567621E-04
   maximum displ.:     0.0692488 α      in ANC's #1, #3, #7, ...

........................................................................
.............................. CYCLE    8 ..............................
........................................................................

 iter      E             dE          RMSdq      gap      omega  full diag
   1    -17.3208687 -0.173209E+02  0.245E-02   11.30       0.0  T
   2    -17.3208688 -0.842556E-07  0.139E-02   11.30       1.8  T
   3    -17.3208689 -0.338687E-07  0.978E-04   11.30      25.6  T
   4    -17.3208689 -0.561204E-09  0.468E-04   11.30      53.4  T
     SCC iter.                  ...        0 min,  0.001 sec
     gradient                   ...        0 min,  0.003 sec
 * total energy  :   -17.0832096 Eh     change       -0.2019968E-04 Eh
   gradient norm :     0.0006071 Eh/α   predicted    -0.7856571E-05 ( -61.11%)
   displ. norm   :     0.0583485 α      lambda       -0.1056694E-04
   maximum displ.:     0.0560174 α      in ANC's #1, #3, #7, ...

........................................................................
.............................. CYCLE    9 ..............................
........................................................................

 iter      E             dE          RMSdq      gap      omega  full diag
   1    -17.3209590 -0.173210E+02  0.201E-02   11.30       0.0  T
   2    -17.3209590 -0.490507E-07  0.115E-02   11.30       2.2  T
   3    -17.3209590 -0.199423E-07  0.757E-04   11.30      33.0  T
   4    -17.3209590 -0.389623E-09  0.383E-04   11.30      65.2  T
     SCC iter.                  ...        0 min,  0.001 sec
     gradient                   ...        0 min,  0.003 sec
 * total energy  :   -17.0832239 Eh     change       -0.1433508E-04 Eh
   gradient norm :     0.0006845 Eh/α   predicted    -0.5291986E-05 ( -63.08%)
   displ. norm   :     0.0482376 α      lambda       -0.8396095E-05
   maximum displ.:     0.0465622 α      in ANC's #1, #3, #2, ...

........................................................................
.............................. CYCLE   10 ..............................
........................................................................

 iter      E             dE          RMSdq      gap      omega  full diag
   1    -17.3210227 -0.173210E+02  0.157E-02   11.30       0.0  T
   2    -17.3210228 -0.336364E-07  0.899E-03   11.30       2.8  T
   3    -17.3210228 -0.135006E-07  0.680E-04   11.30      36.8  T
   4    -17.3210228 -0.411326E-09  0.367E-04   11.30      68.2  T
     SCC iter.                  ...        0 min,  0.001 sec
     gradient                   ...        0 min,  0.003 sec
 * total energy  :   -17.0832360 Eh     change       -0.1208101E-04 Eh
   gradient norm :     0.0006361 Eh/α   predicted    -0.4202282E-05 ( -65.22%)
   displ. norm   :     0.0497436 α      lambda       -0.8630757E-05
   maximum displ.:     0.0467947 α      in ANC's #1, #2, #5, ...

........................................................................
.............................. CYCLE   11 ..............................
........................................................................

 iter      E             dE          RMSdq      gap      omega  full diag
   1    -17.3210081 -0.173210E+02  0.157E-02   11.30       0.0  T
   2    -17.3210082 -0.404441E-07  0.904E-03   11.30       2.8  T
   3    -17.3210082 -0.135837E-07  0.772E-04   11.30      32.4  T
   4    -17.3210082 -0.913282E-09  0.430E-04   11.30      58.2  T
     SCC iter.                  ...        0 min,  0.001 sec
     gradient                   ...        0 min,  0.003 sec
 * total energy  :   -17.0832484 Eh     change       -0.1234779E-04 Eh
   gradient norm :     0.0004550 Eh/α   predicted    -0.4320867E-05 ( -65.01%)
   displ. norm   :     0.0584201 α      lambda       -0.9352170E-05
   maximum displ.:     0.0532961 α      in ANC's #1, #2, #5, ...

........................................................................
.............................. CYCLE   12 ..............................
........................................................................

 iter      E             dE          RMSdq      gap      omega  full diag
   1    -17.3209899 -0.173210E+02  0.191E-02   11.31       0.0  T
   2    -17.3209899 -0.553836E-07  0.111E-02   11.31       2.3  T
   3    -17.3209899 -0.176244E-07  0.936E-04   11.31      26.7  T
   4    -17.3209899 -0.153345E-08  0.513E-04   11.31      48.8  T
     SCC iter.                  ...        0 min,  0.001 sec
     gradient                   ...        0 min,  0.003 sec
 * total energy  :   -17.0832615 Eh     change       -0.1312563E-04 Eh
   gradient norm :     0.0002818 Eh/α   predicted    -0.4684353E-05 ( -64.31%)
   displ. norm   :     0.0652343 α      lambda       -0.9271209E-05
   maximum displ.:     0.0586193 α      in ANC's #1, #2, #5, ...

........................................................................
.............................. CYCLE   13 ..............................
........................................................................

 iter      E             dE          RMSdq      gap      omega  full diag
   1    -17.3209637 -0.173210E+02  0.202E-02   11.31       0.0  T
   2    -17.3209638 -0.625535E-07  0.117E-02   11.31       2.1  T
   3    -17.3209638 -0.218967E-07  0.973E-04   11.31      25.7  T
   4    -17.3209638 -0.102043E-08  0.538E-04   11.31      46.5  T
     SCC iter.                  ...        0 min,  0.001 sec
     gradient                   ...        0 min,  0.003 sec
 * total energy  :   -17.0832743 Eh     change       -0.1281863E-04 Eh
   gradient norm :     0.0003088 Eh/α   predicted    -0.4642511E-05 ( -63.78%)
   displ. norm   :     0.0654922 α      lambda       -0.8250263E-05
   maximum displ.:     0.0588245 α      in ANC's #1, #2, #5, ...

........................................................................
.............................. CYCLE   14 ..............................
........................................................................

 iter      E             dE          RMSdq      gap      omega  full diag
   1    -17.3209542 -0.173210E+02  0.211E-02   11.31       0.0  T
   2    -17.3209542 -0.615113E-07  0.122E-02   11.31       2.0  T
   3    -17.3209542 -0.212597E-07  0.992E-04   11.31      25.2  T
   4    -17.3209542 -0.140220E-08  0.547E-04   11.31      45.7  T
     SCC iter.                  ...        0 min,  0.001 sec
     gradient                   ...        0 min,  0.003 sec
 * total energy  :   -17.0832857 Eh     change       -0.1143024E-04 Eh
   gradient norm :     0.0003571 Eh/α   predicted    -0.4131417E-05 ( -63.86%)
   displ. norm   :     0.0599311 α      lambda       -0.6808072E-05
   maximum displ.:     0.0545923 α      in ANC's #1, #2, #5, ...

........................................................................
.............................. CYCLE   15 ..............................
........................................................................

 iter      E             dE          RMSdq      gap      omega  full diag
   1    -17.3209939 -0.173210E+02  0.186E-02   11.31       0.0  T
   2    -17.3209940 -0.454009E-07  0.107E-02   11.31       2.3  T
   3    -17.3209940 -0.177605E-07  0.818E-04   11.31      30.6  T
   4    -17.3209940 -0.425718E-09  0.429E-04   11.31      58.3  T
     SCC iter.                  ...        0 min,  0.001 sec
     gradient                   ...        0 min,  0.003 sec
 * total energy  :   -17.0832954 Eh     change       -0.9626688E-05 Eh
   gradient norm :     0.0003448 Eh/α   predicted    -0.3408350E-05 ( -64.59%)
   displ. norm   :     0.0517790 α      lambda       -0.5569314E-05
   maximum displ.:     0.0482394 α      in ANC's #1, #2, #4, ...

........................................................................
.............................. CYCLE   16 ..............................
........................................................................

 iter      E             dE          RMSdq      gap      omega  full diag
   1    -17.3210359 -0.173210E+02  0.159E-02   11.31       0.0  T
   2    -17.3210360 -0.354252E-07  0.914E-03   11.31       2.7  T
   3    -17.3210360 -0.132239E-07  0.698E-04   11.31      35.8  T
   4    -17.3210360 -0.450441E-09  0.381E-04   11.31      65.6  T
     SCC iter.                  ...        0 min,  0.001 sec
     gradient                   ...        0 min,  0.003 sec
 * total energy  :   -17.0833033 Eh     change       -0.7978855E-05 Eh
   gradient norm :     0.0002762 Eh/α   predicted    -0.2787145E-05 ( -65.07%)
   displ. norm   :     0.0450342 α      lambda       -0.4724925E-05
   maximum displ.:     0.0428028 α      in ANC's #1, #2, #4, ...

........................................................................
.............................. CYCLE   17 ..............................
........................................................................

 iter      E             dE          RMSdq      gap      omega  full diag
   1    -17.3210635 -0.173211E+02  0.142E-02   11.31       0.0  T
   2    -17.3210635 -0.236844E-07  0.814E-03   11.31       3.1  T
   3    -17.3210635 -0.952260E-08  0.559E-04   11.31      44.7  T
   4    -17.3210635 -0.170047E-09  0.279E-04   11.31      89.6  T
     SCC iter.                  ...        0 min,  0.001 sec
     gradient                   ...        0 min,  0.003 sec
 * total energy  :   -17.0833102 Eh     change       -0.6806088E-05 Eh
   gradient norm :     0.0002563 Eh/α   predicted    -0.2365294E-05 ( -65.25%)
   displ. norm   :     0.0401736 α      lambda       -0.4134860E-05
   maximum displ.:     0.0388287 α      in ANC's #1, #2, #4, ...

........................................................................
.............................. CYCLE   18 ..............................
........................................................................

 iter      E             dE          RMSdq      gap      omega  full diag
   1    -17.3211048 -0.173211E+02  0.121E-02   11.31       0.0  T
   2    -17.3211048 -0.202915E-07  0.692E-03   11.31       3.6  T
   3    -17.3211048 -0.760082E-08  0.488E-04   11.31      51.2  T
   4    -17.3211048 -0.222460E-09  0.265E-04   11.31      94.4  T
     SCC iter.                  ...        0 min,  0.001 sec
     gradient                   ...        0 min,  0.003 sec
 * total energy  :   -17.0833161 Eh     change       -0.5947395E-05 Eh
   gradient norm :     0.0001867 Eh/α   predicted    -0.2070669E-05 ( -65.18%)
   displ. norm   :     0.0366723 α      lambda       -0.3596284E-05
   maximum displ.:     0.0357040 α      in ANC's #1, #2, #6, ...

........................................................................
.............................. CYCLE   19 ..............................
........................................................................

 iter      E             dE          RMSdq      gap      omega  full diag
   1    -17.3211055 -0.173211E+02  0.113E-02   11.31       0.0  T
   2    -17.3211055 -0.153589E-07  0.651E-03   11.31       3.8  T
   3    -17.3211055 -0.596160E-08  0.429E-04   11.31      58.3  T
   4    -17.3211055 -0.151640E-09  0.226E-04   11.31     110.5  T
     SCC iter.                  ...        0 min,  0.001 sec
     gradient                   ...        0 min,  0.003 sec
 * total energy  :   -17.0833213 Eh     change       -0.5169306E-05 Eh
   gradient norm :     0.0001589 Eh/α   predicted    -0.1799883E-05 ( -65.18%)
   displ. norm   :     0.0337859 α      lambda       -0.3101432E-05
   maximum displ.:     0.0330498 α      in ANC's #1, #2, #6, ...

........................................................................
.............................. CYCLE   20 ..............................
........................................................................

 iter      E             dE          RMSdq      gap      omega  full diag
   1    -17.3211180 -0.173211E+02  0.102E-02   11.31       0.0  T
   2    -17.3211180 -0.135388E-07  0.582E-03   11.31       4.3  T
   3    -17.3211180 -0.501830E-08  0.396E-04   11.31      63.1  T
   4    -17.3211180 -0.183356E-09  0.215E-04   11.31     116.2  T
     SCC iter.                  ...        0 min,  0.001 sec
     gradient                   ...        0 min,  0.003 sec
 * total energy  :   -17.0833257 Eh     change       -0.4441741E-05 Eh
   gradient norm :     0.0001389 Eh/α   predicted    -0.1549461E-05 ( -65.12%)
   displ. norm   :     0.0313049 α      lambda       -0.2646156E-05
   maximum displ.:     0.0306784 α      in ANC's #1, #2, #6, ...
 * RMSD in coord.:     0.2778807 α      energy gain  -0.1106211E-02 Eh

generating ANC from exact Hessian ...
Using Lindh-Hessian (1995)
 Shifting diagonal of input Hessian by   7.631500629369123E-003
 Lowest  eigenvalues of input Hessian
    0.000000    0.000000    0.000000    0.000000    0.000000    0.000000
    0.010000    0.013094    0.013326    0.019420    0.021756    0.028573
    0.033955    0.049652    0.058926    0.059464    0.062517    0.062801
 Highest eigenvalues
    1.152663    1.194505    1.230412    1.270285    1.354013    1.439416
 

........................................................................
.............................. CYCLE   21 ..............................
........................................................................

 iter      E             dE          RMSdq      gap      omega  full diag
   1    -17.3211249 -0.173211E+02  0.952E-03   11.31       0.0  T
   2    -17.3211249 -0.112175E-07  0.546E-03   11.31       4.6  T
   3    -17.3211249 -0.420609E-08  0.364E-04   11.31      68.6  T
   4    -17.3211249 -0.142389E-09  0.197E-04   11.31     126.6  T
     SCC iter.                  ...        0 min,  0.001 sec
     gradient                   ...        0 min,  0.003 sec
 * total energy  :   -17.0833295 Eh     change       -0.3794408E-05 Eh
   gradient norm :     0.0001337 Eh/α   predicted     0.0000000E+00 (-100.00%)
   displ. norm   :     0.0178294 α      lambda       -0.1424396E-05
   maximum displ.:     0.0178000 α      in ANC's #1, #4, #10, ...

........................................................................
.............................. CYCLE   22 ..............................
........................................................................

 iter      E             dE          RMSdq      gap      omega  full diag
   1    -17.3211188 -0.173211E+02  0.492E-03   11.31       0.0  T
   2    -17.3211188 -0.429652E-08  0.282E-03   11.31       8.9  T
   3    -17.3211188 -0.122701E-08  0.239E-04   11.31     104.6  T
   4    -17.3211188 -0.154472E-09  0.126E-04   11.31     199.1  T
     SCC iter.                  ...        0 min,  0.001 sec
     gradient                   ...        0 min,  0.003 sec
 * total energy  :   -17.0833315 Eh     change       -0.2032693E-05 Eh
   gradient norm :     0.0001234 Eh/α   predicted    -0.7137200E-06 ( -64.89%)
   displ. norm   :     0.0173230 α      lambda       -0.1302823E-05
   maximum displ.:     0.0170232 α      in ANC's #1, #3, #4, ...

........................................................................
.............................. CYCLE   23 ..............................
........................................................................

 iter      E             dE          RMSdq      gap      omega  full diag
   1    -17.3211193 -0.173211E+02  0.578E-03   11.31       0.0  T
   2    -17.3211193 -0.456608E-08  0.331E-03   11.31       7.5  T
   3    -17.3211193 -0.151597E-08  0.236E-04   11.31     105.9  T
   4    -17.3211193 -0.939551E-10  0.130E-04   11.31     192.3  T
     SCC iter.                  ...        0 min,  0.001 sec
     gradient                   ...        0 min,  0.003 sec
 * total energy  :   -17.0833334 Eh     change       -0.1904085E-05 Eh
   gradient norm :     0.0001171 Eh/α   predicted    -0.6511550E-06 ( -65.80%)
   displ. norm   :     0.0187961 α      lambda       -0.1353725E-05
   maximum displ.:     0.0179723 α      in ANC's #1, #3, #2, ...

........................................................................
.............................. CYCLE   24 ..............................
........................................................................

 iter      E             dE          RMSdq      gap      omega  full diag
   1    -17.3211291 -0.173211E+02  0.585E-03   11.31       0.0  T
   2    -17.3211291 -0.512755E-08  0.335E-03   11.31       7.5  T
   3    -17.3211291 -0.192407E-08  0.261E-04   11.31      95.9  T
   4    -17.3211291 -0.723688E-10  0.143E-04   11.31     175.3  T
     SCC iter.                  ...        0 min,  0.001 sec
     gradient                   ...        0 min,  0.003 sec
 * total energy  :   -17.0833354 Eh     change       -0.1975371E-05 Eh
   gradient norm :     0.0001126 Eh/α   predicted    -0.6759421E-06 ( -65.78%)
   displ. norm   :     0.0203546 α      lambda       -0.1390722E-05
   maximum displ.:     0.0191937 α      in ANC's #1, #3, #2, ...

........................................................................
.............................. CYCLE   25 ..............................
........................................................................

 iter      E             dE          RMSdq      gap      omega  full diag
   1    -17.3211309 -0.173211E+02  0.672E-03   11.31       0.0  T
   2    -17.3211309 -0.610589E-08  0.386E-03   11.31       6.5  T
   3    -17.3211309 -0.246978E-08  0.284E-04   11.31      88.2  T
   4    -17.3211309 -0.396163E-10  0.142E-04   11.31     176.3  T
     SCC iter.                  ...        0 min,  0.001 sec
     gradient                   ...        0 min,  0.003 sec
 * total energy  :   -17.0833374 Eh     change       -0.2028181E-05 Eh
   gradient norm :     0.0001063 Eh/α   predicted    -0.6946087E-06 ( -65.75%)
   displ. norm   :     0.0209846 α      lambda       -0.1368272E-05
   maximum displ.:     0.0197418 α      in ANC's #1, #3, #2, ...

........................................................................
.............................. CYCLE   26 ..............................
........................................................................

 iter      E             dE          RMSdq      gap      omega  full diag
   1    -17.3211346 -0.173211E+02  0.685E-03   11.31       0.0  T
   2    -17.3211346 -0.702252E-08  0.393E-03   11.31       6.4  T
   3    -17.3211346 -0.271027E-08  0.308E-04   11.31      81.1  T
   4    -17.3211346 -0.840714E-10  0.167E-04   11.31     149.5  T
     SCC iter.                  ...        0 min,  0.001 sec
     gradient                   ...        0 min,  0.003 sec
 * total energy  :   -17.0833394 Eh     change       -0.2002299E-05 Eh
   gradient norm :     0.0001043 Eh/α   predicted    -0.6848332E-06 ( -65.80%)
   displ. norm   :     0.0208021 α      lambda       -0.1306375E-05
   maximum displ.:     0.0195362 α      in ANC's #1, #3, #5, ...

........................................................................
.............................. CYCLE   27 ..............................
........................................................................

 iter      E             dE          RMSdq      gap      omega  full diag
   1    -17.3211402 -0.173211E+02  0.668E-03   11.31       0.0  T
   2    -17.3211402 -0.636917E-08  0.383E-03   11.31       6.5  T
   3    -17.3211402 -0.255672E-08  0.293E-04   11.31      85.2  T
   4    -17.3211402 -0.493543E-10  0.152E-04   11.31     164.8  T
     SCC iter.                  ...        0 min,  0.001 sec
     gradient                   ...        0 min,  0.003 sec
 * total energy  :   -17.0833414 Eh     change       -0.1906750E-05 Eh
   gradient norm :     0.0001030 Eh/α   predicted    -0.6524077E-06 ( -65.78%)
   displ. norm   :     0.0202191 α      lambda       -0.1220444E-05
   maximum displ.:     0.0190042 α      in ANC's #1, #3, #5, ...

........................................................................
.............................. CYCLE   28 ..............................
........................................................................

 iter      E             dE          RMSdq      gap      omega  full diag
   1    -17.3211385 -0.173211E+02  0.658E-03   11.31       0.0  T
   2    -17.3211385 -0.636134E-08  0.378E-03   11.31       6.6  T
   3    -17.3211385 -0.237376E-08  0.302E-04   11.31      82.7  T
   4    -17.3211385 -0.109374E-09  0.167E-04   11.31     149.5  T
     SCC iter.                  ...        0 min,  0.001 sec
     gradient                   ...        0 min,  0.003 sec
 * total energy  :   -17.0833431 Eh     change       -0.1781595E-05 Eh
   gradient norm :     0.0000979 Eh/α   predicted    -0.6097835E-06 ( -65.77%)
   displ. norm   :     0.0194548 α      lambda       -0.1122048E-05
   maximum displ.:     0.0183029 α      in ANC's #1, #3, #2, ...

........................................................................
.............................. CYCLE   29 ..............................
........................................................................

 iter      E             dE          RMSdq      gap      omega  full diag
   1    -17.3211416 -0.173211E+02  0.616E-03   11.31       0.0  T
   2    -17.3211416 -0.571478E-08  0.353E-03   11.31       7.1  T
   3    -17.3211416 -0.211816E-08  0.278E-04   11.31      89.8  T
   4    -17.3211416 -0.796732E-10  0.154E-04   11.31     162.6  T
     SCC iter.                  ...        0 min,  0.001 sec
     gradient                   ...        0 min,  0.003 sec
 * total energy  :   -17.0833448 Eh     change       -0.1643096E-05 Eh
   gradient norm :     0.0000900 Eh/α   predicted    -0.5607892E-06 ( -65.87%)
   displ. norm   :     0.0185187 α      lambda       -0.1021556E-05
   maximum displ.:     0.0174712 α      in ANC's #1, #3, #2, ...

........................................................................
.............................. CYCLE   30 ..............................
........................................................................

 iter      E             dE          RMSdq      gap      omega  full diag
   1    -17.3211462 -0.173211E+02  0.582E-03   11.31       0.0  T
   2    -17.3211463 -0.467854E-08  0.335E-03   11.31       7.5  T
   3    -17.3211463 -0.178816E-08  0.260E-04   11.31      96.0  T
   4    -17.3211463 -0.664855E-10  0.142E-04   11.31     176.5  T
     SCC iter.                  ...        0 min,  0.001 sec
     gradient                   ...        0 min,  0.003 sec
 * total energy  :   -17.0833463 Eh     change       -0.1502862E-05 Eh
   gradient norm :     0.0000863 Eh/α   predicted    -0.5114568E-06 ( -65.97%)
   displ. norm   :     0.0175686 α      lambda       -0.9379308E-06
   maximum displ.:     0.0166293 α      in ANC's #1, #3, #2, ...

........................................................................
.............................. CYCLE   31 ..............................
........................................................................

 iter      E             dE          RMSdq      gap      omega  full diag
   1    -17.3211463 -0.173211E+02  0.551E-03   11.31       0.0  T
   2    -17.3211463 -0.436041E-08  0.316E-03   11.31       7.9  T
   3    -17.3211463 -0.158971E-08  0.244E-04   11.31     102.3  T
   4    -17.3211463 -0.673808E-10  0.135E-04   11.31     185.7  T
     SCC iter.                  ...        0 min,  0.001 sec
     gradient                   ...        0 min,  0.003 sec
 * total energy  :   -17.0833477 Eh     change       -0.1377799E-05 Eh
   gradient norm :     0.0000832 Eh/α   predicted    -0.4680855E-06 ( -66.03%)
   displ. norm   :     0.0166159 α      lambda       -0.8607971E-06
   maximum displ.:     0.0158034 α      in ANC's #1, #3, #2, ...

........................................................................
.............................. CYCLE   32 ..............................
........................................................................

 iter      E             dE          RMSdq      gap      omega  full diag
   1    -17.3211521 -0.173212E+02  0.513E-03   11.31       0.0  T
   2    -17.3211521 -0.348581E-08  0.295E-03   11.31       8.5  T
   3    -17.3211521 -0.132812E-08  0.222E-04   11.31     112.7  T
   4    -17.3211521 -0.462137E-10  0.120E-04   11.31     208.8  T
     SCC iter.                  ...        0 min,  0.001 sec
     gradient                   ...        0 min,  0.003 sec
 * total energy  :   -17.0833489 Eh     change       -0.1265214E-05 Eh
   gradient norm :     0.0000807 Eh/α   predicted    -0.4292571E-06 ( -66.07%)
   displ. norm   :     0.0157528 α      lambda       -0.7919554E-06
   maximum displ.:     0.0150571 α      in ANC's #1, #3, #2, ...

........................................................................
.............................. CYCLE   33 ..............................
........................................................................

 iter      E             dE          RMSdq      gap      omega  full diag
   1    -17.3211537 -0.173212E+02  0.487E-03   11.31       0.0  T
   2    -17.3211538 -0.323883E-08  0.280E-03   11.31       8.9  T
   3    -17.3211538 -0.118628E-08  0.209E-04   11.31     119.8  T
   4    -17.3211538 -0.477343E-10  0.114E-04   11.31     219.1  T
     SCC iter.                  ...        0 min,  0.001 sec
     gradient                   ...        0 min,  0.003 sec
 * total energy  :   -17.0833501 Eh     change       -0.1166923E-05 Eh
   gradient norm :     0.0000781 Eh/α   predicted    -0.3956439E-06 ( -66.10%)
   displ. norm   :     0.0149333 α      lambda       -0.7314628E-06
   maximum displ.:     0.0143473 α      in ANC's #1, #3, #2, ...

........................................................................
.............................. CYCLE   34 ..............................
........................................................................

 iter      E             dE          RMSdq      gap      omega  full diag
   1    -17.3211564 -0.173212E+02  0.456E-03   11.31       0.0  T
   2    -17.3211564 -0.276654E-08  0.262E-03   11.31       9.5  T
   3    -17.3211564 -0.103161E-08  0.194E-04   11.31     129.2  T
   4    -17.3211564 -0.397229E-10  0.105E-04   11.31     237.3  T
     SCC iter.                  ...        0 min,  0.001 sec
     gradient                   ...        0 min,  0.003 sec
 * total energy  :   -17.0833512 Eh     change       -0.1076224E-05 Eh
   gradient norm :     0.0000762 Eh/α   predicted    -0.3650331E-06 ( -66.08%)
   displ. norm   :     0.0141799 α      lambda       -0.6766787E-06
   maximum displ.:     0.0136871 α      in ANC's #1, #3, #2, ...

........................................................................
.............................. CYCLE   35 ..............................
........................................................................

 iter      E             dE          RMSdq      gap      omega  full diag
   1    -17.3211604 -0.173212E+02  0.437E-03   11.31       0.0  T
   2    -17.3211604 -0.259007E-08  0.251E-03   11.31      10.0  T
   3    -17.3211604 -0.943341E-09  0.185E-04   11.31     135.2  T
   4    -17.3211604 -0.404548E-10  0.101E-04   11.31     247.3  T
     SCC iter.                  ...        0 min,  0.001 sec
     gradient                   ...        0 min,  0.003 sec
 * total energy  :   -17.0833522 Eh     change       -0.9933942E-06 Eh
   gradient norm :     0.0000736 Eh/α   predicted    -0.3370951E-06 ( -66.07%)
   displ. norm   :     0.0135305 α      lambda       -0.6213551E-06
   maximum displ.:     0.0130862 α      in ANC's #1, #3, #2, ...

........................................................................
.............................. CYCLE   36 ..............................
........................................................................

 iter      E             dE          RMSdq      gap      omega  full diag
   1    -17.3211604 -0.173212E+02  0.413E-03   11.31       0.0  T
   2    -17.3211604 -0.236873E-08  0.237E-03   11.31      10.6  T
   3    -17.3211604 -0.868550E-09  0.175E-04   11.31     142.5  T
   4    -17.3211604 -0.358824E-10  0.963E-05   11.31     259.6  T
     SCC iter.                  ...        0 min,  0.001 sec
     gradient                   ...        0 min,  0.003 sec
 * total energy  :   -17.0833531 Eh     change       -0.9185863E-06 Eh
   gradient norm :     0.0000704 Eh/α   predicted    -0.3115475E-06 ( -66.08%)
   displ. norm   :     0.0130087 α      lambda       -0.5817826E-06
   maximum displ.:     0.0125929 α      in ANC's #1, #3, #2, ...

........................................................................
.............................. CYCLE   37 ..............................
........................................................................

 iter      E             dE          RMSdq      gap      omega  full diag
   1    -17.3211632 -0.173212E+02  0.405E-03   11.31       0.0  T
   2    -17.3211632 -0.227286E-08  0.233E-03   11.31      10.8  T
   3    -17.3211632 -0.826038E-09  0.173E-04   11.31     144.6  T
   4    -17.3211632 -0.376872E-10  0.949E-05   11.31     263.3  T
     SCC iter.                  ...        0 min,  0.001 sec
     gradient                   ...        0 min,  0.003 sec
 * total energy  :   -17.0833539 Eh     change       -0.8554954E-06 Eh
   gradient norm :     0.0000677 Eh/α   predicted    -0.2898760E-06 ( -66.12%)
   displ. norm   :     0.0127033 α      lambda       -0.5460552E-06
   maximum displ.:     0.0122606 α      in ANC's #1, #3, #2, ...

........................................................................
.............................. CYCLE   38 ..............................
........................................................................

 iter      E             dE          RMSdq      gap      omega  full diag
   1    -17.3211647 -0.173212E+02  0.392E-03   11.31       0.0  T
   2    -17.3211648 -0.220890E-08  0.225E-03   11.31      11.1  T
   3    -17.3211648 -0.820943E-09  0.168E-04   11.31     148.6  T
   4    -17.3211648 -0.306741E-10  0.923E-05   11.31     270.8  T
     SCC iter.                  ...        0 min,  0.001 sec
     gradient                   ...        0 min,  0.003 sec
 * total energy  :   -17.0833547 Eh     change       -0.8073540E-06 Eh
   gradient norm :     0.0000654 Eh/α   predicted    -0.2734335E-06 ( -66.13%)
   displ. norm   :     0.0125295 α      lambda       -0.5257914E-06
   maximum displ.:     0.0120528 α      in ANC's #1, #3, #2, ...

........................................................................
.............................. CYCLE   39 ..............................
........................................................................

 iter      E             dE          RMSdq      gap      omega  full diag
   1    -17.3211653 -0.173212E+02  0.396E-03   11.31       0.0  T
   2    -17.3211653 -0.223853E-08  0.227E-03   11.31      11.0  T
   3    -17.3211653 -0.821778E-09  0.173E-04   11.31     144.8  T
   4    -17.3211653 -0.361773E-10  0.952E-05   11.31     262.7  T
     SCC iter.                  ...        0 min,  0.001 sec
     gradient                   ...        0 min,  0.003 sec
 * total energy  :   -17.0833555 Eh     change       -0.7699129E-06 Eh
   gradient norm :     0.0000633 Eh/α   predicted    -0.2608033E-06 ( -66.13%)
   displ. norm   :     0.0124843 α      lambda       -0.5034625E-06
   maximum displ.:     0.0119378 α      in ANC's #1, #3, #2, ...

........................................................................
.............................. CYCLE   40 ..............................
........................................................................

 iter      E             dE          RMSdq      gap      omega  full diag
   1    -17.3211670 -0.173212E+02  0.393E-03   11.31       0.0  T
   2    -17.3211670 -0.226857E-08  0.225E-03   11.31      11.1  T
   3    -17.3211670 -0.855835E-09  0.172E-04   11.31     145.4  T
   4    -17.3211670 -0.297682E-10  0.943E-05   11.31     265.2  T
     SCC iter.                  ...        0 min,  0.001 sec
     gradient                   ...        0 min,  0.003 sec
 * total energy  :   -17.0833563 Eh     change       -0.7399014E-06 Eh
   gradient norm :     0.0000609 Eh/α   predicted    -0.2505497E-06 ( -66.14%)
   displ. norm   :     0.0125344 α      lambda       -0.4884624E-06
   maximum displ.:     0.0119325 α      in ANC's #1, #3, #2, ...

........................................................................
.............................. CYCLE   41 ..............................
........................................................................

 iter      E             dE          RMSdq      gap      omega  full diag
   1    -17.3211687 -0.173212E+02  0.400E-03   11.31       0.0  T
   2    -17.3211687 -0.229695E-08  0.229E-03   11.31      10.9  T
   3    -17.3211687 -0.866944E-09  0.177E-04   11.31     141.1  T
   4    -17.3211687 -0.323901E-10  0.971E-05   11.31     257.4  T
     SCC iter.                  ...        0 min,  0.001 sec
     gradient                   ...        0 min,  0.003 sec
 * total energy  :   -17.0833570 Eh     change       -0.7173337E-06 Eh
   gradient norm :     0.0000591 Eh/α   predicted    -0.2429715E-06 ( -66.13%)
   displ. norm   :     0.0125367 α      lambda       -0.4709359E-06
   maximum displ.:     0.0118730 α      in ANC's #1, #3, #2, ...

........................................................................
.............................. CYCLE   42 ..............................
........................................................................

 iter      E             dE          RMSdq      gap      omega  full diag
   1    -17.3211685 -0.173212E+02  0.401E-03   11.31       0.0  T
   2    -17.3211685 -0.239253E-08  0.230E-03   11.31      10.9  T
   3    -17.3211685 -0.903938E-09  0.179E-04   11.31     139.4  T
   4    -17.3211685 -0.327951E-10  0.985E-05   11.31     253.7  T
     SCC iter.                  ...        0 min,  0.001 sec
     gradient                   ...        0 min,  0.003 sec
 * total energy  :   -17.0833577 Eh     change       -0.6910626E-06 Eh
   gradient norm :     0.0000571 Eh/α   predicted    -0.2341562E-06 ( -66.12%)
   displ. norm   :     0.0125224 α      lambda       -0.4531285E-06
   maximum displ.:     0.0118351 α      in ANC's #1, #3, #2, ...
 * RMSD in coord.:     0.0876337 α      energy gain  -0.3195054E-04 Eh

generating ANC from exact Hessian ...
Using Lindh-Hessian (1995)
 Shifting diagonal of input Hessian by   7.635920509450785E-003
 Lowest  eigenvalues of input Hessian
    0.000000    0.000000    0.000000    0.000000    0.000000    0.000000
    0.010000    0.013041    0.013367    0.019325    0.021797    0.028675
    0.033394    0.049824    0.059079    0.059441    0.062615    0.063146
 Highest eigenvalues
    1.152786    1.195495    1.229757    1.270344    1.354257    1.439498
 

........................................................................
.............................. CYCLE   43 ..............................
........................................................................

 iter      E             dE          RMSdq      gap      omega  full diag
   1    -17.3211715 -0.173212E+02  0.401E-03   11.31       0.0  T
   2    -17.3211715 -0.230672E-08  0.230E-03   11.31      10.9  T
   3    -17.3211715 -0.885450E-09  0.179E-04   11.31     139.6  T
   4    -17.3211715 -0.296119E-10  0.974E-05   11.31     256.7  T
     SCC iter.                  ...        0 min,  0.001 sec
     gradient                   ...        0 min,  0.003 sec
 * total energy  :   -17.0833583 Eh     change       -0.6660913E-06 Eh
   gradient norm :     0.0000553 Eh/α   predicted     0.0000000E+00 (-100.00%)
   displ. norm   :     0.0082138 α      lambda       -0.3013910E-06
   maximum displ.:     0.0082125 α      in ANC's #1, #9, #5, ...

........................................................................
.............................. CYCLE   44 ..............................
........................................................................

 iter      E             dE          RMSdq      gap      omega  full diag
   1    -17.3211712 -0.173212E+02  0.227E-03   11.31       0.0  T
   2    -17.3211712 -0.828074E-09  0.130E-03   11.31      19.2  T
   3    -17.3211712 -0.268070E-09  0.104E-04   11.31     240.9  T
   4    -17.3211712 -0.236362E-10  0.566E-05   11.31     441.6  T
     SCC iter.                  ...        0 min,  0.001 sec
     gradient                   ...        0 min,  0.003 sec
 * total energy  :   -17.0833588 Eh     change       -0.4313750E-06 Eh
   gradient norm :     0.0000550 Eh/α   predicted    -0.1501489E-06 ( -65.19%)
   displ. norm   :     0.0081039 α      lambda       -0.2807898E-06
   maximum displ.:     0.0079519 α      in ANC's #1, #3, #2, ...

........................................................................
.............................. CYCLE   45 ..............................
........................................................................

 iter      E             dE          RMSdq      gap      omega  full diag
   1    -17.3211711 -0.173212E+02  0.266E-03   11.31       0.0  T
   2    -17.3211711 -0.945199E-09  0.152E-03   11.31      16.4  T
   3    -17.3211711 -0.332520E-09  0.107E-04   11.31     234.5  T
   4    -17.3211711 -0.160476E-10  0.589E-05   11.31     424.6  T
     SCC iter.                  ...        0 min,  0.001 sec
     gradient                   ...        0 min,  0.003 sec
 * total energy  :   -17.0833592 Eh     change       -0.4156351E-06 Eh
   gradient norm :     0.0000526 Eh/α   predicted    -0.1410464E-06 ( -66.06%)
   displ. norm   :     0.0090711 α      lambda       -0.3078330E-06
   maximum displ.:     0.0086240 α      in ANC's #1, #3, #2, ...

........................................................................
.............................. CYCLE   46 ..............................
........................................................................

 iter      E             dE          RMSdq      gap      omega  full diag
   1    -17.3211738 -0.173212E+02  0.281E-03   11.31       0.0  T
   2    -17.3211738 -0.115908E-08  0.161E-03   11.31      15.5  T
   3    -17.3211738 -0.440085E-09  0.124E-04   11.31     201.8  T
   4    -17.3211738 -0.153477E-10  0.671E-05   11.31     372.6  T
     SCC iter.                  ...        0 min,  0.001 sec
     gradient                   ...        0 min,  0.003 sec
 * total energy  :   -17.0833596 Eh     change       -0.4491123E-06 Eh
   gradient norm :     0.0000502 Eh/α   predicted    -0.1526333E-06 ( -66.01%)
   displ. norm   :     0.0102341 α      lambda       -0.3307786E-06
   maximum displ.:     0.0095509 α      in ANC's #1, #3, #2, ...

........................................................................
.............................. CYCLE   47 ..............................
........................................................................

 iter      E             dE          RMSdq      gap      omega  full diag
   1    -17.3211746 -0.173212E+02  0.333E-03   11.31       0.0  T
   2    -17.3211746 -0.150567E-08  0.191E-03   11.31      13.1  T
   3    -17.3211746 -0.595513E-09  0.143E-04   11.31     175.2  T
   4    -17.3211746 -0.129319E-10  0.739E-05   11.31     338.2  T
     SCC iter.                  ...        0 min,  0.001 sec
     gradient                   ...        0 min,  0.003 sec
 * total energy  :   -17.0833601 Eh     change       -0.4836253E-06 Eh
   gradient norm :     0.0000498 Eh/α   predicted    -0.1646646E-06 ( -65.95%)
   displ. norm   :     0.0109746 α      lambda       -0.3406928E-06
   maximum displ.:     0.0101921 α      in ANC's #1, #3, #2, ...

........................................................................
.............................. CYCLE   48 ..............................
........................................................................

 iter      E             dE          RMSdq      gap      omega  full diag
   1    -17.3211757 -0.173212E+02  0.352E-03   11.31       0.0  T
   2    -17.3211757 -0.185602E-08  0.202E-03   11.31      12.4  T
   3    -17.3211757 -0.699110E-09  0.161E-04   11.31     155.0  T
   4    -17.3211757 -0.273772E-10  0.883E-05   11.31     283.2  T
     SCC iter.                  ...        0 min,  0.001 sec
     gradient                   ...        0 min,  0.003 sec
 * total energy  :   -17.0833606 Eh     change       -0.5000819E-06 Eh
   gradient norm :     0.0000507 Eh/α   predicted    -0.1701287E-06 ( -65.98%)
   displ. norm   :     0.0111497 α      lambda       -0.3364881E-06
   maximum displ.:     0.0103265 α      in ANC's #1, #3, #2, ...

........................................................................
.............................. CYCLE   49 ..............................
........................................................................

 iter      E             dE          RMSdq      gap      omega  full diag
   1    -17.3211776 -0.173212E+02  0.356E-03   11.31       0.0  T
   2    -17.3211776 -0.177477E-08  0.205E-03   11.31      12.2  T
   3    -17.3211776 -0.703750E-09  0.159E-04   11.31     157.0  T
   4    -17.3211776 -0.170672E-10  0.837E-05   11.31     298.8  T
     SCC iter.                  ...        0 min,  0.001 sec
     gradient                   ...        0 min,  0.003 sec
 * total energy  :   -17.0833611 Eh     change       -0.4918779E-06 Eh
   gradient norm :     0.0000492 Eh/α   predicted    -0.1674345E-06 ( -65.96%)
   displ. norm   :     0.0109300 α      lambda       -0.3208280E-06
   maximum displ.:     0.0101416 α      in ANC's #1, #3, #2, ...

........................................................................
.............................. CYCLE   50 ..............................
........................................................................

 iter      E             dE          RMSdq      gap      omega  full diag
   1    -17.3211767 -0.173212E+02  0.353E-03   11.31       0.0  T
   2    -17.3211767 -0.180206E-08  0.203E-03   11.31      12.3  T
   3    -17.3211767 -0.673342E-09  0.164E-04   11.31     152.4  T
   4    -17.3211767 -0.315659E-10  0.905E-05   11.31     276.1  T
     SCC iter.                  ...        0 min,  0.001 sec
     gradient                   ...        0 min,  0.003 sec
 * total energy  :   -17.0833616 Eh     change       -0.4665586E-06 Eh
   gradient norm :     0.0000475 Eh/α   predicted    -0.1590449E-06 ( -65.91%)
   displ. norm   :     0.0104774 α      lambda       -0.2916888E-06
   maximum displ.:     0.0097469 α      in ANC's #1, #3, #2, ...

........................................................................
.............................. CYCLE   51 ..............................
........................................................................

 iter      E             dE          RMSdq      gap      omega  full diag
   1    -17.3211775 -0.173212E+02  0.331E-03   11.31       0.0  T
   2    -17.3211775 -0.161643E-08  0.190E-03   11.31      13.1  T
   3    -17.3211775 -0.610029E-09  0.152E-04   11.31     164.6  T
   4    -17.3211775 -0.223288E-10  0.834E-05   11.31     299.8  T
     SCC iter.                  ...        0 min,  0.001 sec
     gradient                   ...        0 min,  0.003 sec
 * total energy  :   -17.0833620 Eh     change       -0.4310923E-06 Eh
   gradient norm :     0.0000448 Eh/α   predicted    -0.1466929E-06 ( -65.97%)
   displ. norm   :     0.0099162 α      lambda       -0.2653105E-06
   maximum displ.:     0.0092695 α      in ANC's #1, #3, #2, ...

........................................................................
.............................. CYCLE   52 ..............................
........................................................................

 iter      E             dE          RMSdq      gap      omega  full diag
   1    -17.3211788 -0.173212E+02  0.316E-03   11.31       0.0  T
   2    -17.3211788 -0.136571E-08  0.182E-03   11.31      13.7  T
   3    -17.3211788 -0.527283E-09  0.144E-04   11.31     173.8  T
   4    -17.3211788 -0.200302E-10  0.782E-05   11.31     319.8  T
     SCC iter.                  ...        0 min,  0.001 sec
     gradient                   ...        0 min,  0.003 sec
 * total energy  :   -17.0833624 Eh     change       -0.3945753E-06 Eh
   gradient norm :     0.0000431 Eh/α   predicted    -0.1340317E-06 ( -66.03%)
   displ. norm   :     0.0093094 α      lambda       -0.2446130E-06
   maximum displ.:     0.0087514 α      in ANC's #1, #3, #2, ...

........................................................................
.............................. CYCLE   53 ..............................
........................................................................

 iter      E             dE          RMSdq      gap      omega  full diag
   1    -17.3211781 -0.173212E+02  0.293E-03   11.31       0.0  T
   2    -17.3211781 -0.126494E-08  0.169E-03   11.31      14.8  T
   3    -17.3211781 -0.468741E-09  0.133E-04   11.31     187.6  T
   4    -17.3211781 -0.191918E-10  0.734E-05   11.31     340.5  T
     SCC iter.                  ...        0 min,  0.001 sec
     gradient                   ...        0 min,  0.003 sec
 * total energy  :   -17.0833628 Eh     change       -0.3602249E-06 Eh
   gradient norm :     0.0000417 Eh/α   predicted    -0.1220684E-06 ( -66.11%)
   displ. norm   :     0.0087225 α      lambda       -0.2222387E-06
   maximum displ.:     0.0082554 α      in ANC's #1, #3, #2, ...

........................................................................
.............................. CYCLE   54 ..............................
........................................................................

 iter      E             dE          RMSdq      gap      omega  full diag
   1    -17.3211800 -0.173212E+02  0.275E-03   11.31       0.0  T
   2    -17.3211800 -0.105402E-08  0.158E-03   11.31      15.8  T
   3    -17.3211800 -0.400924E-09  0.123E-04   11.31     203.7  T
   4    -17.3211800 -0.151701E-10  0.669E-05   11.31     373.6  T
     SCC iter.                  ...        0 min,  0.001 sec
     gradient                   ...        0 min,  0.003 sec
 * total energy  :   -17.0833631 Eh     change       -0.3300396E-06 Eh
   gradient norm :     0.0000405 Eh/α   predicted    -0.1116642E-06 ( -66.17%)
   displ. norm   :     0.0081784 α      lambda       -0.2038590E-06
   maximum displ.:     0.0077983 α      in ANC's #1, #3, #2, ...

........................................................................
.............................. CYCLE   55 ..............................
........................................................................

 iter      E             dE          RMSdq      gap      omega  full diag
   1    -17.3211805 -0.173212E+02  0.256E-03   11.31       0.0  T
   2    -17.3211805 -0.930211E-09  0.147E-03   11.31      17.0  T
   3    -17.3211805 -0.349388E-09  0.112E-04   11.31     222.3  T
   4    -17.3211805 -0.129567E-10  0.614E-05   11.31     407.1  T
     SCC iter.                  ...        0 min,  0.001 sec
     gradient                   ...        0 min,  0.003 sec
 * total energy  :   -17.0833634 Eh     change       -0.3036137E-06 Eh
   gradient norm :     0.0000393 Eh/α   predicted    -0.1026019E-06 ( -66.21%)
   displ. norm   :     0.0077071 α      lambda       -0.1851244E-06
   maximum displ.:     0.0073951 α      in ANC's #1, #3, #2, ...

........................................................................
.............................. CYCLE   56 ..............................
........................................................................

 iter      E             dE          RMSdq      gap      omega  full diag
   1    -17.3211813 -0.173212E+02  0.242E-03   11.31       0.0  T
   2    -17.3211813 -0.835545E-09  0.139E-03   11.31      18.0  T
   3    -17.3211813 -0.309207E-09  0.106E-04   11.31     236.7  T
   4    -17.3211813 -0.129425E-10  0.581E-05   11.31     430.4  T
     SCC iter.                  ...        0 min,  0.001 sec
     gradient                   ...        0 min,  0.003 sec
 * total energy  :   -17.0833637 Eh     change       -0.2804257E-06 Eh
   gradient norm :     0.0000381 Eh/α   predicted    -0.9475239E-07 ( -66.21%)
   displ. norm   :     0.0072978 α      lambda       -0.1757078E-06
   maximum displ.:     0.0070377 α      in ANC's #1, #3, #2, ...

........................................................................
.............................. CYCLE   57 ..............................
........................................................................

 iter      E             dE          RMSdq      gap      omega  full diag
   1    -17.3211826 -0.173212E+02  0.227E-03   11.31       0.0  T
   2    -17.3211826 -0.733738E-09  0.130E-03   11.31      19.2  T
   3    -17.3211826 -0.274717E-09  0.977E-05   11.31     255.8  T
   4    -17.3211826 -0.102958E-10  0.534E-05   11.31     467.8  T
     SCC iter.                  ...        0 min,  0.001 sec
     gradient                   ...        0 min,  0.003 sec
 * total energy  :   -17.0833639 Eh     change       -0.2598329E-06 Eh
   gradient norm :     0.0000369 Eh/α   predicted    -0.8775933E-07 ( -66.22%)
   displ. norm   :     0.0069664 α      lambda       -0.1606270E-06
   maximum displ.:     0.0067372 α      in ANC's #1, #3, #2, ...

........................................................................
.............................. CYCLE   58 ..............................
........................................................................

 iter      E             dE          RMSdq      gap      omega  full diag
   1    -17.3211828 -0.173212E+02  0.218E-03   11.31       0.0  T
   2    -17.3211828 -0.687884E-09  0.125E-03   11.31      20.0  T
   3    -17.3211828 -0.250857E-09  0.944E-05   11.31     264.8  T
   4    -17.3211828 -0.113793E-10  0.521E-05   11.31     480.0  T
     SCC iter.                  ...        0 min,  0.001 sec
     gradient                   ...        0 min,  0.003 sec
 * total energy  :   -17.0833642 Eh     change       -0.2418467E-06 Eh
   gradient norm :     0.0000357 Eh/α   predicted    -0.8169376E-07 ( -66.22%)
   displ. norm   :     0.0067171 α      lambda       -0.1557631E-06
   maximum displ.:     0.0064938 α      in ANC's #1, #3, #2, ...

........................................................................
.............................. CYCLE   59 ..............................
........................................................................

 iter      E             dE          RMSdq      gap      omega  full diag
   1    -17.3211836 -0.173212E+02  0.209E-03   11.31       0.0  T
   2    -17.3211836 -0.636931E-09  0.120E-03   11.31      20.8  T
   3    -17.3211836 -0.236984E-09  0.900E-05   11.31     277.7  T
   4    -17.3211836 -0.920863E-11  0.495E-05   11.31     505.2  T
     SCC iter.                  ...        0 min,  0.001 sec
     gradient                   ...        0 min,  0.003 sec
 * total energy  :   -17.0833644 Eh     change       -0.2266051E-06 Eh
   gradient norm :     0.0000346 Eh/α   predicted    -0.7653613E-07 ( -66.22%)
   displ. norm   :     0.0065353 α      lambda       -0.1434230E-06
   maximum displ.:     0.0063146 α      in ANC's #1, #3, #2, ...

........................................................................
.............................. CYCLE   60 ..............................
........................................................................

 iter      E             dE          RMSdq      gap      omega  full diag
   1    -17.3211843 -0.173212E+02  0.204E-03   11.31       0.0  T
   2    -17.3211843 -0.605876E-09  0.117E-03   11.31      21.3  T
   3    -17.3211843 -0.222073E-09  0.894E-05   11.31     279.7  T
   4    -17.3211843 -0.100471E-10  0.493E-05   11.31     507.3  T
     SCC iter.                  ...        0 min,  0.001 sec
     gradient                   ...        0 min,  0.003 sec
 * total energy  :   -17.0833646 Eh     change       -0.2142723E-06 Eh
   gradient norm :     0.0000338 Eh/α   predicted    -0.7240850E-07 ( -66.21%)
   displ. norm   :     0.0064480 α      lambda       -0.1411434E-06
   maximum displ.:     0.0061950 α      in ANC's #1, #3, #2, ...

........................................................................
.............................. CYCLE   61 ..............................
........................................................................

 iter      E             dE          RMSdq      gap      omega  full diag
   1    -17.3211839 -0.173212E+02  0.203E-03   11.31       0.0  T
   2    -17.3211839 -0.605876E-09  0.116E-03   11.31      21.5  T
   3    -17.3211839 -0.225764E-09  0.884E-05   11.31     282.8  T
   4    -17.3211839 -0.872191E-11  0.487E-05   11.31     513.3  T
     SCC iter.                  ...        0 min,  0.001 sec
     gradient                   ...        0 min,  0.003 sec
 * total energy  :   -17.0833648 Eh     change       -0.2046437E-06 Eh
   gradient norm :     0.0000328 Eh/α   predicted    -0.6916975E-07 ( -66.20%)
   displ. norm   :     0.0064013 α      lambda       -0.1307992E-06
   maximum displ.:     0.0061302 α      in ANC's #1, #3, #2, ...

........................................................................
.............................. CYCLE   62 ..............................
........................................................................

 iter      E             dE          RMSdq      gap      omega  full diag
   1    -17.3211853 -0.173212E+02  0.202E-03   11.31       0.0  T
   2    -17.3211853 -0.589349E-09  0.116E-03   11.31      21.6  T
   3    -17.3211853 -0.219678E-09  0.894E-05   11.31     279.6  T
   4    -17.3211853 -0.907718E-11  0.491E-05   11.31     509.0  T
     SCC iter.                  ...        0 min,  0.001 sec
     gradient                   ...        0 min,  0.003 sec
 * total energy  :   -17.0833650 Eh     change       -0.1973610E-06 Eh
   gradient norm :     0.0000318 Eh/α   predicted    -0.6666660E-07 ( -66.22%)
   displ. norm   :     0.0064258 α      lambda       -0.1302154E-06
   maximum displ.:     0.0061113 α      in ANC's #1, #3, #2, ...

........................................................................
.............................. CYCLE   63 ..............................
........................................................................

 iter      E             dE          RMSdq      gap      omega  full diag
   1    -17.3211850 -0.173212E+02  0.202E-03   11.31       0.0  T
   2    -17.3211850 -0.597325E-09  0.116E-03   11.31      21.5  T
   3    -17.3211850 -0.225722E-09  0.902E-05   11.31     277.1  T
   4    -17.3211850 -0.842348E-11  0.495E-05   11.31     505.4  T
     SCC iter.                  ...        0 min,  0.001 sec
     gradient                   ...        0 min,  0.003 sec
 * total energy  :   -17.0833652 Eh     change       -0.1916937E-06 Eh
   gradient norm :     0.0000309 Eh/α   predicted    -0.6474094E-07 ( -66.23%)
   displ. norm   :     0.0064653 α      lambda       -0.1291807E-06
   maximum displ.:     0.0061168 α      in ANC's #1, #3, #2, ...

........................................................................
.............................. CYCLE   64 ..............................
........................................................................

 iter      E             dE          RMSdq      gap      omega  full diag
   1    -17.3211854 -0.173212E+02  0.207E-03   11.31       0.0  T
   2    -17.3211854 -0.622453E-09  0.119E-03   11.31      21.1  T
   3    -17.3211854 -0.232809E-09  0.926E-05   11.31     269.9  T
   4    -17.3211854 -0.929745E-11  0.509E-05   11.31     491.3  T
     SCC iter.                  ...        0 min,  0.001 sec
     gradient                   ...        0 min,  0.003 sec
 * total energy  :   -17.0833654 Eh     change       -0.1867503E-06 Eh
   gradient norm :     0.0000303 Eh/α   predicted    -0.6314146E-07 ( -66.19%)
   displ. norm   :     0.0064777 α      lambda       -0.1220932E-06
   maximum displ.:     0.0061071 α      in ANC's #1, #3, #2, ...

........................................................................
.............................. CYCLE   65 ..............................
........................................................................

 iter      E             dE          RMSdq      gap      omega  full diag
   1    -17.3211863 -0.173212E+02  0.203E-03   11.31       0.0  T
   2    -17.3211863 -0.591058E-09  0.117E-03   11.31      21.4  T
   3    -17.3211863 -0.227686E-09  0.918E-05   11.31     272.3  T
   4    -17.3211863 -0.787281E-11  0.498E-05   11.31     501.9  T
     SCC iter.                  ...        0 min,  0.001 sec
     gradient                   ...        0 min,  0.003 sec
 * total energy  :   -17.0833656 Eh     change       -0.1812011E-06 Eh
   gradient norm :     0.0000295 Eh/α   predicted    -0.6133885E-07 ( -66.15%)
   displ. norm   :     0.0064496 α      lambda       -0.1162517E-06
   maximum displ.:     0.0060588 α      in ANC's #1, #3, #2, ...

........................................................................
.............................. CYCLE   66 ..............................
........................................................................

 iter      E             dE          RMSdq      gap      omega  full diag
   1    -17.3211858 -0.173212E+02  0.207E-03   11.31       0.0  T
   2    -17.3211858 -0.621895E-09  0.119E-03   11.31      21.1  T
   3    -17.3211858 -0.232184E-09  0.932E-05   11.31     268.1  T
   4    -17.3211858 -0.945022E-11  0.513E-05   11.31     487.7  T
     SCC iter.                  ...        0 min,  0.001 sec
     gradient                   ...        0 min,  0.003 sec
 * total energy  :   -17.0833657 Eh     change       -0.1744933E-06 Eh
[...]
          :  accuracy                    1.0000000          :
          :  -> integral cutoff          0.2500000E+02      :
          :  -> integral neglect         0.1000000E-07      :
          :  -> SCF convergence          0.1000000E-05 Eh   :
          :  -> wf. convergence          0.1000000E-03 e    :
          :  Broyden damping             0.4000000          :
          :  net charge                          0          :
          :  unpaired electrons                  0          :
          ...................................................

 iter      E             dE          RMSdq      gap      omega  full diag
   1    -17.3211885 -0.173212E+02  0.388E-05   11.31       0.0  T
   2    -17.3211885 -0.778044E-12  0.235E-05   11.31    1065.6  T
   3    -17.3211885 -0.255795E-12  0.505E-06   11.31    4946.4  T

   *** convergence criteria satisfied after 3 iterations ***

         #    Occupation            Energy/Eh            Energy/eV
      -------------------------------------------------------------
         1        2.0000           -0.6272166             -17.0674
       ...           ...                  ...                  ...
        10        2.0000           -0.4779695             -13.0062
        11        2.0000           -0.4582832             -12.4705
        12        2.0000           -0.4512605             -12.2794
        13        2.0000           -0.4300524             -11.7023
        14        2.0000           -0.4252365             -11.5713
        15        2.0000           -0.4229474             -11.5090
        16        2.0000           -0.3627255              -9.8703 (HOMO)
        17                          0.0528304               1.4376 (LUMO)
        18                          0.0924601               2.5160
        19                          0.1087036               2.9580
        20                          0.1219647               3.3188
        21                          0.1358758               3.6974
       ...                                ...                  ...
        31                          0.3085331               8.3956
      -------------------------------------------------------------
                  HL-Gap            0.4155558 Eh           11.3079 eV
             Fermi-level           -0.1549475 Eh           -4.2163 eV

 SCC (total)                   0 d,  0 h,  0 min,  0.006 sec
 SCC setup                      ...        0 min,  0.001 sec ( 15.996%)
 Dispersion                     ...        0 min,  0.000 sec (  0.829%)
 classical contributions        ...        0 min,  0.000 sec (  0.243%)
 integral evaluation            ...        0 min,  0.001 sec ( 15.266%)
 iterations                     ...        0 min,  0.001 sec ( 17.188%)
 molecular gradient             ...        0 min,  0.003 sec ( 47.745%)
 printout                       ...        0 min,  0.000 sec (  2.300%)

         :::::::::::::::::::::::::::::::::::::::::::::::::::::
         ::                     SUMMARY                     ::
         :::::::::::::::::::::::::::::::::::::::::::::::::::::
         :: total energy             -17.083367043576 Eh    ::
         :: total w/o Gsasa/hb       -17.080528163066 Eh    ::
         :: gradient norm              0.000021240941 Eh/a0 ::
         :: HOMO-LUMO gap             11.307850071914 eV    ::
         ::.................................................::
         :: SCC energy               -17.321170516825 Eh    ::
         :: -> isotropic ES            0.016389062267 Eh    ::
         :: -> anisotropic ES          0.006282265587 Eh    ::
         :: -> anisotropic XC          0.013242331706 Eh    ::
         :: -> dispersion             -0.008181472288 Eh    ::
         :: -> Gsolv                  -0.004115235846 Eh    ::
         ::    -> Gelec               -0.001276355336 Eh    ::
         ::    -> Gsasa               -0.001813235831 Eh    ::
         ::    -> Ghb                 -0.002106404377 Eh    ::
         ::    -> Gshift               0.001080759698 Eh    ::
         :: repulsion energy           0.237803473249 Eh    ::
         :: add. restraining           0.000000000000 Eh    ::
         :: total charge               0.000000000000 e     ::
         :::::::::::::::::::::::::::::::::::::::::::::::::::::

           ------------------------------------------------- 
          |                Numerical Hessian                |
           ------------------------------------------------- 
step length          :   0.00500
SCC accuracy         :   0.30000
Hessian scale factor :   1.00000
frozen atoms in %    :   0.00000    0
RMS gradient         :   0.00002
estimated CPU  time      0.01 min
estimated wall time      0.01 min

writing file <hessian>.

 projected vibrational frequencies (cm⁻¹)
eigval :       -0.00    -0.00    -0.00     0.00     0.00     0.00
eigval :       38.30   142.78   223.61   257.90   288.34   391.46
eigval :      454.36   779.39   836.19   878.54   916.87   973.89
eigval :     1007.41  1052.11  1091.67  1130.79  1155.27  1175.29
eigval :     1220.21  1256.56  1293.69  1339.61  1352.84  1369.32
eigval :     1411.91  1467.10  1485.67  1493.76  1501.62  1507.88
eigval :     1548.52  2819.93  2948.39  2962.19  2974.11  2983.59
eigval :     2994.63  3026.56  3027.52  3040.05  3396.31  3427.98
           -------------------------------------------------
          |                Property Printout                |
           -------------------------------------------------

    * Orbital Energies and Occupations

         #    Occupation            Energy/Eh            Energy/eV
      -------------------------------------------------------------
         1        2.0000           -0.6272166             -17.0674
       ...           ...                  ...                  ...
         4        2.0000           -0.5708789             -15.5344
         5        2.0000           -0.5444711             -14.8158
         6        2.0000           -0.5240023             -14.2588
         7        2.0000           -0.5181837             -14.1005
         8        2.0000           -0.4941979             -13.4478
         9        2.0000           -0.4891737             -13.3111
        10        2.0000           -0.4779695             -13.0062
        11        2.0000           -0.4582832             -12.4705
        12        2.0000           -0.4512605             -12.2794
        13        2.0000           -0.4300524             -11.7023
        14        2.0000           -0.4252365             -11.5713
        15        2.0000           -0.4229474             -11.5090
        16        2.0000           -0.3627254              -9.8703 (HOMO)
        17                          0.0528304               1.4376 (LUMO)
        18                          0.0924601               2.5160
        19                          0.1087036               2.9580
        20                          0.1219647               3.3188
        21                          0.1358758               3.6974
        22                          0.1379368               3.7535
        23                          0.1506991               4.1007
        24                          0.1881324               5.1193
        25                          0.1943594               5.2888
        26                          0.2202151               5.9924
        27                          0.2412636               6.5651
       ...                                ...                  ...
        31                          0.3085331               8.3956
      -------------------------------------------------------------
                  HL-Gap            0.4155559 Eh           11.3079 eV
             Fermi-level           -0.1549475 Eh           -4.2163 eV

     #   Z          covCN         q      C6AA      α(0)
     1   6 C        3.751    -0.109    22.646     6.786
     2   6 C        3.799    -0.057    21.593     6.616
     3   6 C        3.802    -0.071    21.864     6.657
     4   6 C        3.730     0.023    20.288     6.430
     5   7 N        2.629    -0.391    30.117     8.151
     6   1 H        0.925     0.037     2.491     2.468
     7   1 H        0.925     0.037     2.493     2.469
     8   1 H        0.925     0.034     2.536     2.491
     9   1 H        0.924     0.033     2.549     2.497
    10   1 H        0.924     0.034     2.535     2.490
    11   1 H        0.924     0.047     2.359     2.402
    12   1 H        0.924     0.036     2.496     2.471
    13   1 H        0.923     0.003     3.005     2.711
    14   1 H        0.924     0.029     2.606     2.524
    15   1 H        0.860     0.156     1.363     1.829
    16   1 H        0.860     0.161     1.331     1.807

 Mol. C6AA /au·bohr⁶  :       1659.073374
 Mol. C8AA /au·bohr⁸  :      33712.031090
 Mol. α(0) /au        :         60.798340


Wiberg/Mayer (AO) data.
largest (>0.10) Wiberg bond orders for each atom

 ---------------------------------------------------------------------------
     #   Z sym  total        # sym  WBO       # sym  WBO       # sym  WBO
 ---------------------------------------------------------------------------
     1   6 C    3.997 --     2 C    1.020     6 H    0.987     7 H    0.987
                             8 H    0.985
     2   6 C    3.998 --     1 C    1.020     3 C    1.008    10 H    0.978
                             9 H    0.975
     3   6 C    3.996 --     2 C    1.008     4 C    1.005    12 H    0.976
                            11 H    0.976
     4   6 C    3.987 --     5 N    1.022     3 C    1.005    14 H    0.976
                            13 H    0.967
     5   7 N    2.985 --     4 C    1.022    16 H    0.961    15 H    0.960
     6   1 H    0.999 --     1 C    0.987
     7   1 H    0.999 --     1 C    0.987
     8   1 H    0.999 --     1 C    0.985
     9   1 H    0.999 --     2 C    0.975
    10   1 H    0.999 --     2 C    0.978
    11   1 H    0.998 --     3 C    0.976
    12   1 H    0.999 --     3 C    0.976
    13   1 H    1.000 --     4 C    0.967
    14   1 H    0.999 --     4 C    0.976
    15   1 H    0.976 --     5 N    0.960
    16   1 H    0.974 --     5 N    0.961
 ---------------------------------------------------------------------------

Topologies differ in total number of bonds
Writing topology from bond orders to xtbtopo.mol

molecular dipole:
                 x           y           z       tot (Debye)
 q only:        0.135      -0.155      -0.033
   full:        0.250      -0.485      -0.164       1.448
molecular quadrupole (traceless):
                xx          xy          yy          xz          yz          zz
 q only:       -0.560       1.527       0.617       0.649      -0.622      -0.057
  q+dip:       -1.961       3.245       1.900       1.874      -1.018       0.061
   full:       -1.736       3.357       1.648       1.854      -1.123       0.088

           -------------------------------------------------
          |                Geometry Summary                 |
           -------------------------------------------------

      molecular mass/u    :       73.1369951
   center of mass at/Å    :        0.0001834      -0.0016039      -0.0014375
  moments of inertia/u·Å² :        0.5665989E+02   0.1862681E+03   0.1944823E+03
rotational constants/cm⁻¹ :        0.2975232E+00   0.9050196E-01   0.8667954E-01

 * 15 selected distances

     #   Z          #   Z                                           value/Å
     1   6 C        2   6 C                                       1.5251560
     2   6 C        3   6 C                                       1.5305562 (max)
     3   6 C        4   6 C                                       1.5299610
     4   6 C        5   7 N                                       1.4586416
     1   6 C        6   1 H                                       1.0877843
     1   6 C        7   1 H                                       1.0874217
     1   6 C        8   1 H                                       1.0871882
     2   6 C        9   1 H                                       1.0916252
     2   6 C       10   1 H                                       1.0921612
     3   6 C       11   1 H                                       1.0908855
     3   6 C       12   1 H                                       1.0917687
     4   6 C       13   1 H                                       1.1023659
     4   6 C       14   1 H                                       1.0941370
     5   7 N       15   1 H                                       1.0145409
     5   7 N       16   1 H                                       1.0135561 (min)

 * 4 distinct bonds (by element types)

   Z      Z             #   av. dist./Å        max./Å        min./Å
   1 H    6 C           9     1.0917042     1.1023659     1.0871882
   6 C    6 C           3     1.5285577     1.5305562     1.5251560
   1 H    7 N           2     1.0140485     1.0145409     1.0135561
   6 C    7 N           1     1.4586416     1.4586416     1.4586416

           -------------------------------------------------
          |               Frequency Printout                |
           -------------------------------------------------
 projected vibrational frequencies (cm⁻¹)
eigval :       -0.00    -0.00    -0.00     0.00     0.00     0.00
eigval :       38.30   142.78   223.61   257.90   288.34   391.46
eigval :      454.36   779.39   836.19   878.54   916.87   973.89
eigval :     1007.41  1052.11  1091.67  1130.79  1155.27  1175.29
eigval :     1220.21  1256.56  1293.69  1339.61  1352.84  1369.32
eigval :     1411.91  1467.10  1485.67  1493.76  1501.62  1507.88
eigval :     1548.52  2819.93  2948.39  2962.19  2974.11  2983.59
eigval :     2994.63  3026.56  3027.52  3040.05  3396.31  3427.98
 reduced masses (amu)
   1: 10.07   2:  9.50   3: 11.06   4: 10.08   5:  9.88   6:  9.29   7:  8.43   8:  5.05
   9:  2.52  10:  4.20  11:  7.78  12:  6.76  13:  7.77  14:  3.04  15:  6.07  16:  5.07
  17:  4.19  18:  5.94  19:  5.90  20:  4.11  21:  5.45  22:  8.07  23:  7.85  24:  5.38
  25:  3.99  26:  3.06  27:  2.32  28:  3.99  29:  4.80  30:  4.63  31:  3.22  32:  1.93
  33:  1.81  34:  1.88  35:  1.61  36:  1.60  37:  2.05  38:  1.75  39:  1.64  40:  1.93
  41:  1.87  42:  1.52  43:  1.61  44:  1.92  45:  1.94  46:  1.28  47:  1.53  48:  2.06
 IR intensities (km·mol⁻¹)
   1:  0.21   2:  0.38   3:  0.17   4:  0.03   5:  0.48   6:  0.59   7:  2.29   8:  5.56
   9: 28.93  10: 17.81  11: 18.38  12:  4.11  13:  1.41  14: 12.23  15:  6.26  16: 26.37
  17: 96.94  18: 11.52  19: 34.68  20:  4.54  21:  4.67  22: 39.72  23:  4.80  24: 13.66
  25: 16.80  26:  3.56  27:  7.94  28: 11.63  29:  5.95  30: 17.34  31:  0.88  32:  0.60
  33:  4.62  34:  1.07  35:  1.72  36:  1.02  37: 39.69  38:160.28  39: 79.35  40: 52.48
  41: 80.57  42: 87.69  43: 82.64  44: 88.52  45: 89.03  46: 44.28  47: 10.53  48:  5.20
 Raman intensities (Ä⁴*amu⁻¹)
   1:  0.00   2:  0.00   3:  0.00   4:  0.00   5:  0.00   6:  0.00   7:  0.00   8:  0.00
   9:  0.00  10:  0.00  11:  0.00  12:  0.00  13:  0.00  14:  0.00  15:  0.00  16:  0.00
  17:  0.00  18:  0.00  19:  0.00  20:  0.00  21:  0.00  22:  0.00  23:  0.00  24:  0.00
  25:  0.00  26:  0.00  27:  0.00  28:  0.00  29:  0.00  30:  0.00  31:  0.00  32:  0.00
  33:  0.00  34:  0.00  35:  0.00  36:  0.00  37:  0.00  38:  0.00  39:  0.00  40:  0.00
  41:  0.00  42:  0.00  43:  0.00  44:  0.00  45:  0.00  46:  0.00  47:  0.00  48:  0.00
 output can be read by thermo (or use thermo option).
 writing <g98.out> molden fake output.
 recommended (thermochemical) frequency scaling factor: 1.0
           -------------------------------------------------
          |             Thermodynamic Functions             |
           -------------------------------------------------

Molecule has no symmetry elements
It seems to be the C1 point group
c1  symmetry found (for desy threshold:  0.10E+00) used in thermo

          ...................................................
          :                      SETUP                      :
          :.................................................:
          :  # frequencies                          42      :
          :  # imaginary freq.                       0      :
          :  linear?                             false      :
          :  only rotor calc.                    false      :
          :  symmetry                               c1      :
          :  rotational number                       1      :
          :  scaling factor                  1.0000000      :
          :  rotor cutoff                    0.0000000 cm⁻¹ :
          :  imag. cutoff                 -100.0000000 cm⁻¹ :
          :.................................................:

    mode    ω/cm⁻¹     T·S(HO)/kcal·mol⁻¹    T·S(FR)/kcal·mol⁻¹   T·S(vib)
   ------------------------------------------------------------------------
       1     38.30    -1.59358 (100.00%)    -1.13460 (  0.00%)    -1.59358
       2    142.78    -0.82475 (100.00%)    -0.74546 (  0.00%)    -0.82475
       3    223.61    -0.57534 (100.00%)    -0.61267 (  0.00%)    -0.57534
       4    257.90    -0.49969 (100.00%)    -0.57042 (  0.00%)    -0.49969
       5    288.34    -0.44236 (100.00%)    -0.53738 (  0.00%)    -0.44236
   ------------------------------------------------------------------------

   temp. (K)  partition function   enthalpy   heat capacity  entropy
                                   cal/mol     cal/K/mol   cal/K/mol   J/K/mol
 298.15  VIB   50.6                 2565.219     17.805     16.403
         ROT  0.109E+06              888.752      2.981     26.039
         INT  0.554E+07             3453.971     20.786     42.442
         TR   0.605E+27             1481.254      4.968     38.768
         TOT                        4935.2251    25.7545    81.2103   339.7841

       T/K    H(0)-H(T)+PV         H(T)/Eh          T*S/Eh         G(T)/Eh
   ------------------------------------------------------------------------
    298.15    0.786478E-02    0.155135E+00    0.385857E-01    0.116549E+00
   ------------------------------------------------------------------------

         :::::::::::::::::::::::::::::::::::::::::::::::::::::
         ::                  THERMODYNAMIC                  ::
         :::::::::::::::::::::::::::::::::::::::::::::::::::::
         :: total free energy         -16.966817763610 Eh   ::
         ::.................................................::
         :: total energy              -17.083367043522 Eh   ::
         :: zero point energy           0.147270150799 Eh   ::
         :: G(RRHO) w/o ZPVE           -0.030720870887 Eh   ::
         :: G(RRHO) contrib.            0.116549279912 Eh   ::
         :::::::::::::::::::::::::::::::::::::::::::::::::::::

optimized geometry written to: xtbopt.coord


           -------------------------------------------------
          | TOTAL ENERGY              -17.083367043522 Eh   |
          | TOTAL ENTHALPY            -16.928232110848 Eh   |
          | TOTAL FREE ENERGY         -16.966817763610 Eh   |
          | GRADIENT NORM               0.000021241835 Eh/α |
          | HOMO-LUMO GAP              11.307850495668 eV   |
           -------------------------------------------------

------------------------------------------------------------------------
 * finished run on 2025/04/11 at 12:43:50.982     
------------------------------------------------------------------------
 total:
 * wall-time:     0 d,  0 h,  0 min,  1.166 sec
 *  cpu-time:     0 d,  0 h,  0 min,  1.083 sec
 * ratio c/w:     0.929 speedup
 SCF:
 * wall-time:     0 d,  0 h,  0 min,  0.022 sec
 *  cpu-time:     0 d,  0 h,  0 min,  0.010 sec
 * ratio c/w:     0.430 speedup
 ANC optimizer:
 * wall-time:     0 d,  0 h,  0 min,  0.510 sec
 *  cpu-time:     0 d,  0 h,  0 min,  0.494 sec
 * ratio c/w:     0.969 speedup
 analytical hessian:
 * wall-time:     0 d,  0 h,  0 min,  0.579 sec
 *  cpu-time:     0 d,  0 h,  0 min,  0.569 sec
 * ratio c/w:     0.983 speedup

