16
 energy: -17.082219498466 gnorm: 0.020505556723 xtb: 6.7.1 (edcfbbe)
C            1.86176800379945       -0.72157029876217       -0.08549965423287
C            1.11078251657401        0.41243517015109        0.60944279033071
C           -0.00932099728748        1.02200966304428       -0.24197236234194
C           -1.07606425650812        0.03167779439219       -0.69322789689790
N           -1.76591121588710       -0.58648308212041        0.45771003915361
H            2.26150697163304       -0.39430689705489       -1.05244609242844
H            2.70259401254523       -1.06651687772194        0.52490192838487
H            1.21386574821701       -1.58553476636281       -0.26854868871887
H            0.70311785745550        0.05199707904085        1.56283283226905
H            1.81861927085220        1.20912549586632        0.86894671368382
H           -0.48900442591531        1.83294349636867        0.32127520448681
H            0.43247551596629        1.47508708381510       -1.13950801357912
H           -0.62053877173014       -0.71495842745270       -1.36362914499922
H           -1.82356883111137        0.56721103248159       -1.28908150284097
H           -1.09332000327135       -1.15877304753170        0.96129104016044
H           -2.45030493836410       -1.24581371704663        0.09901840324346
16
 energy: -17.082911115286 gnorm: 0.008846032172 xtb: 6.7.1 (edcfbbe)
C            1.86722161639609       -0.71741756657002       -0.08750772237944
C            1.11320497809429        0.40799657771641        0.60977511938854
C           -0.00284721783952        1.01544254184296       -0.24280607120463
C           -1.07321220045687        0.02560441803711       -0.69568505753624
N           -1.76567997490519       -0.58352198441470        0.44503437917793
H            2.26087336500243       -0.38125668901214       -1.04696802766994
H            2.70258164834796       -1.05106477879228        0.52678521473701
H            1.22247846558512       -1.57690492379897       -0.26719542330235
H            0.69669592896347        0.04299911062937        1.55292149255115
H            1.81870165165920        1.20528981076384        0.86077528072149
H           -0.48448077085551        1.81173494951323        0.33063225570328
H            0.43684194174105        1.46784363493088       -1.13717040574593
H           -0.62081977555408       -0.72619197060078       -1.36172062646676
H           -1.82677965564770        0.56541243529597       -1.27787254020471
H           -1.10021123910807       -1.14803208654575        0.96680735752051
H           -2.46787230445491       -1.22940377788826        0.09570037038353
16
 energy: -17.083059642735 gnorm: 0.002982886427 xtb: 6.7.1 (edcfbbe)
C            1.87665647855257       -0.71593954972922       -0.08926531624761
C            1.11423858982148        0.40339104570509        0.60987697949095
C           -0.00198260998708        1.01099621773200       -0.24229104029039
C           -1.07360217599102        0.01970173771554       -0.69752586483091
N           -1.76881052086440       -0.57965179735193        0.43834981229966
H            2.26568135316106       -0.37157852783103       -1.04432803029088
H            2.71153120327402       -1.04195710488034        0.52555804663063
H            1.23749568696286       -1.57588178243347       -0.26985816023592
H            0.69449585341258        0.03390582055151        1.54690418135701
H            1.81473486063004        1.20257746924474        0.86106463825206
H           -0.48802964441124        1.79836995379586        0.33509204884078
H            0.43542989185656        1.46329137823483       -1.13484594074855
H           -0.61912337585124       -0.73149040042876       -1.36323824556012
H           -1.82375841704971        0.56417206323985       -1.27846956305770
H           -1.11281257542490       -1.13849917009139        0.97675303668255
H           -2.48544814112381       -1.21287765236641        0.09772901338186
16
 energy: -17.083098256029 gnorm: 0.001747775998 xtb: 6.7.1 (edcfbbe)
C            1.88305870041381       -0.71378317942291       -0.09156554415013
C            1.11464018197069        0.40071058637958        0.61098472210339
C           -0.00210112178718        1.00784147773675       -0.24177625293967
C           -1.07445946056246        0.01570503807881       -0.69803855331066
N           -1.77411836684214       -0.57574307288786        0.43635887355202
H            2.27042789760877       -0.36447465366836       -1.04543092845374
H            2.71941308438943       -1.03593399062156        0.52321376811996
H            1.24833365994065       -1.57660113250861       -0.27400316738496
H            0.69461105711653        0.02620307563418        1.54552596600567
H            1.81182159129813        1.20136421833294        0.86605338905401
H           -0.48996186237094        1.79265381497995        0.33682094785462
H            0.43478780541391        1.46129508561361       -1.13347989643934
H           -0.61771602469327       -0.73694042252274       -1.36147233244384
H           -1.81958371113449        0.56103222179161       -1.28465447287460
H           -1.12483019636829       -1.13293751128217        0.98290562824818
H           -2.49762677742540       -1.20186185452634        0.10006344873252
16
 energy: -17.083136313173 gnorm: 0.001940738284 xtb: 6.7.1 (edcfbbe)
C            1.89185215481869       -0.70975672850689       -0.09527944380423
C            1.11474934578574        0.39695326654798        0.61212266430582
C           -0.00299923663019        1.00402697102103       -0.24016552980200
C           -1.07470331229637        0.01035779912982       -0.69782783294844
N           -1.78370043120947       -0.56858626821009        0.43529181215211
H            2.27612937551758       -0.35435736921400       -1.04895392530700
H            2.73191804563019       -1.02786231975800        0.51778617744800
H            1.26350906335540       -1.57762401401110       -0.28041381491317
H            0.69534215526467        0.01357616064174        1.54380365661179
H            1.80712454116961        1.19968740374944        0.87541871783668
H           -0.49289200525404        1.78771189556640        0.33895611382571
H            0.43391858292081        1.45966264233825       -1.13097052715979
H           -0.61361223521362       -0.74742488451271       -1.35395539443716
H           -1.81138229424421        0.55401044604698       -1.29744743705252
H           -1.14386915495146       -1.12600261907582        0.99037898117104
H           -2.51468813769557       -1.18584268064616        0.10276137774662
16
 energy: -17.083163075831 gnorm: 0.001700214255 xtb: 6.7.1 (edcfbbe)
C            1.89713407203712       -0.70579610310823       -0.09837176133913
C            1.11490918951271        0.39424081398296        0.61302583934432
C           -0.00292084151943        1.00090791948141       -0.23888529220310
C           -1.07354797271268        0.00708987946903       -0.69723313529717
N           -1.79171871397839       -0.56199078799704        0.43542316429919
H            2.27882696068630       -0.34626475520775       -1.05184330480204
H            2.73977566271333       -1.02166487884492        0.51261695222963
H            1.27338401721972       -1.57684068540617       -0.28546623512894
H            0.69529590457449        0.00436224181397        1.54231638985352
H            1.80382923760638        1.19822560785868        0.88251247224675
H           -0.49373356466725        1.78448804329872        0.34018628990873
H            0.43425751201029        1.45805633009273       -1.12914671435677
H           -0.60968330919221       -0.75695536975018       -1.34446407931011
H           -1.80479262858263        0.54758805837694       -1.30667128538776
H           -1.15812087730114       -1.12210922909513        0.99479262199801
H           -2.52619819143883       -1.17480738385815        0.10271367361833
16
 energy: -17.083189401167 gnorm: 0.000955496767 xtb: 6.7.1 (edcfbbe)
C            1.90265428269642       -0.70201378662332       -0.10136994457467
C            1.11498228340111        0.39107618693107        0.61349644463777
C           -0.00274696095945        0.99816553048889       -0.23768422939348
C           -1.07193323689007        0.00419657945195       -0.69646947468970
N           -1.80039406141980       -0.55436658194315        0.43605437394265
H            2.28105789025496       -0.33725881633646       -1.05409020928590
H            2.74776366652173       -1.01548111351396        0.50730756116369
H            1.28357107535927       -1.57577266944883       -0.29070997482922
H            0.69448202215786       -0.00511280459790        1.53971134823404
H            1.80018392418928        1.19616211272087        0.88896308930468
H           -0.49435709089930        1.78143238009029        0.34133792532818
H            0.43485726360896        1.45616996064088       -1.12743903614064
H           -0.60610092695917       -0.76713616881720       -1.33295471336366
H           -1.79784137328381        0.54111143908573       -1.31504686967420
H           -1.17295919739536       -1.11819595378872        0.99934713788372
H           -2.53652310341485       -1.16444659323323        0.10105216713018
16
 energy: -17.083209600843 gnorm: 0.000608190389 xtb: 6.7.1 (edcfbbe)
C            1.90816270443839       -0.69813422936916       -0.10464547799065
C            1.11528779402873        0.38800095328684        0.61473297544214
C           -0.00208364794879        0.99477410360505       -0.23703540044062
C           -1.07126246839170        0.00146746320464       -0.69606510785551
N           -1.80921204358722       -0.54689948140869        0.43637195861663
H            2.28438123401916       -0.32806491613944       -1.05599098013225
H            2.75487507835428       -1.00892913701994        0.50275054265827
H            1.29404948213500       -1.57461817863995       -0.29675055123102
H            0.69332286637863       -0.01440177087172        1.53752958838385
H            1.79697276501460        1.19402139244347        0.89586138604916
H           -0.49412360364431        1.77741052151327        0.34217331449319
H            0.43592197870513        1.45339007012868       -1.12624901031127
H           -0.60401038987829       -0.77649386051057       -1.32246292228585
H           -1.79207972525899        0.53558401050574       -1.32263500675216
H           -1.18753167567904       -1.11285167982072        1.00460589429263
H           -2.54597389171778       -1.15572555980062        0.09931439273693
16
 energy: -17.083223935923 gnorm: 0.000685158056 xtb: 6.7.1 (edcfbbe)
C            1.91340114803501       -0.69563122647555       -0.10673979215306
C            1.11503725890612        0.38495254952094        0.61490424530266
C           -0.00215497977632        0.99271638020042       -0.23641721059633
C           -1.07108744006823       -0.00067598764700       -0.69564863795306
N           -1.81630141824350       -0.54107809650445        0.43625122236801
H            2.28830235746473       -0.32042880107487       -1.05646074516735
H            2.76109206863242       -1.00473816356530        0.50006071422874
H            1.30305376288317       -1.57383117946820       -0.30220379032629
H            0.69226821484555       -0.02264523057256        1.53488405973984
H            1.79364550877056        1.19173526137206        0.90077136211723
H           -0.49450901869071        1.77523117325080        0.34262970643813
H            0.43646367283295        1.45105582338538       -1.12535089599522
H           -0.60325869307868       -0.78340201156624       -1.31509957400733
H           -1.78774718227741        0.53194350007022       -1.32793789821326
H           -1.19887278944511       -1.10659323140460        1.00981277585156
H           -2.55263601382277       -1.15008105841417        0.09805005403920
16
 energy: -17.083236016935 gnorm: 0.000636698748 xtb: 6.7.1 (edcfbbe)
C            1.91746685732151       -0.69339291419254       -0.10868469961800
C            1.11484714489549        0.38243106817362        0.61549548141411
C           -0.00197914394612        0.99036752771487       -0.23623568619920
C           -1.07161185273623       -0.00236523606662       -0.69549931079291
N           -1.82201188096414       -0.53646962427675        0.43590190915812
H            2.29289542349338       -0.31361620164714       -1.05633649853956
H            2.76496930565101       -1.00185617590120        0.49860198304957
H            1.31019552426171       -1.57274735540525       -0.30833466467625
H            0.69124007792021       -0.02970409290796        1.53300121275803
H            1.79079942037325        1.18984176991576        0.90573904101983
H           -0.49433047053007        1.77299313551048        0.34254909212512
H            0.43711481631317        1.44836599812779       -1.12504946053199
H           -0.60342438729680       -0.78848584604102       -1.31009145529583
H           -1.78483100589600        0.52946160289488       -1.33224251167262
H           -1.20755494732706       -1.09938002947204        1.01517687045837
H           -2.55708842456554       -1.14691392531998        0.09751429301669
16
 energy: -17.083248364728 gnorm: 0.000455732092 xtb: 6.7.1 (edcfbbe)
C            1.92158635755855       -0.69107997632863       -0.11064784377911
C            1.11432438796354        0.37972132053320        0.61602683062419
C           -0.00190929548990        0.98806933539767       -0.23622152606342
C           -1.07230635190871       -0.00409143915023       -0.69534619765790
N           -1.82758777323764       -0.53208277937192        0.43542346230662
H            2.29918046557934       -0.30628862127018       -1.05545895187454
H            2.76787755132785       -1.00042525240486        0.49790463164334
H            1.31682569263940       -1.57083437308602       -0.31616122990104
H            0.68986867700847       -0.03706659530454        1.53108529992154
H            1.78759238332879        1.18768474559461        0.91093294497902
H           -0.49409647277809        1.77117840466724        0.34207114731796
H            0.43789094588242        1.44552232062856       -1.12496377840966
H           -0.60394378803412       -0.79339745492793       -1.30589414621253
H           -1.78224692327716        0.52716435636179       -1.33630755800821
H           -1.21560312497355       -1.09046636128726        1.02151588777760
H           -2.56075627462140       -1.14507792894462        0.09754662300961
16
 energy: -17.083261490357 gnorm: 0.000282976232 xtb: 6.7.1 (edcfbbe)
C            1.92617435984432       -0.68857419821214       -0.11273722231445
C            1.11385550734651        0.37672911158619        0.61637035448570
C           -0.00197333653833        0.98534133091314       -0.23625074774149
C           -1.07335149921925       -0.00591845870253       -0.69518554522986
N           -1.83376330732257       -0.52706824197865        0.43498080235119
H            2.30770686260647       -0.29722889254385       -1.05335800390158
H            2.77014602462368       -1.00021802548817        0.49799160480772
H            1.32383334161180       -1.56809180911532       -0.32675033102111
H            0.68847610969367       -0.04557165716432        1.52851174086451
H            1.78393123291482        1.18534081057942        0.91693850842295
H           -0.49396806017763        1.76917995761795        0.34129172005176
H            0.43857047523539        1.44198883881504       -1.12502267204209
H           -0.60481836013497       -0.79880940851489       -1.30123242914751
H           -1.77970985380938        0.52450915578018       -1.34095663433105
H           -1.22422521112081       -1.07944952207703        1.02901030831495
H           -2.56418782858593       -1.14362929038812        0.09790414210381
16
 energy: -17.083274308991 gnorm: 0.000309775046 xtb: 6.7.1 (edcfbbe)
C            1.93119476826983       -0.68550859758913       -0.11529759168028
C            1.11295260675445        0.37328864052524        0.61684680436027
C           -0.00193464179306        0.98257365855560       -0.23653926288481
C           -1.07415209232629       -0.00812729942608       -0.69483035340971
N           -1.84042764176299       -0.52166535505106        0.43468866445655
H            2.31825658999805       -0.28717012541552       -1.05077719603554
H            2.77165293788863       -1.00084521471712        0.49845176692534
H            1.33104640151705       -1.56402684564179       -0.33940230240538
H            0.68662638027607       -0.05465781862345        1.52599508825017
H            1.77961608705745        1.18253383110761        0.92313174907736
H           -0.49361101796664        1.76712272138160        0.34037894425906
H            0.43939112543705        1.43846292635252       -1.12535255195272
H           -0.60569080207599       -0.80503894544352       -1.29588062952506
H           -1.77660611354651        0.52133346133545       -1.34573809620841
H           -1.23364444279323       -1.06763853060484        1.03727113823765
H           -2.56797368796610       -1.14210680563860        0.09855942420898
16
 energy: -17.083285739230 gnorm: 0.000357911337 xtb: 6.7.1 (edcfbbe)
C            1.93620687362136       -0.68261639934037       -0.11757096600556
C            1.11265778557445        0.37029412025797        0.61697077078225
C           -0.00206494150090        0.97963242700069       -0.23662659814212
C           -1.07518852618071       -0.01027234876888       -0.69459403283805
N           -1.84702694498022       -0.51611583011526        0.43447745706087
H            2.32905911417450       -0.27667817146259       -1.04738779229645
H            2.77293509959322       -1.00209059613693        0.49922137221238
H            1.33811155836185       -1.55978517030866       -0.35251531729046
H            0.68523210296575       -0.06356913880034        1.52282617348773
H            1.77593357374209        1.18011596220317        0.92924204973064
H           -0.49352834076642        1.76485972211344        0.33957524000256
H            0.43996081625599        1.43473688171576       -1.12543460413284
H           -0.60657155648207       -0.81139644487349       -1.29005677203295
H           -1.77393410665854        0.51779303472549       -1.35073332855828
H           -1.24306469102608       -1.05635475781760        1.04485623266304
H           -2.57202135972650       -1.14002358928553        0.09925571103070
16
 energy: -17.083295365918 gnorm: 0.000345488947 xtb: 6.7.1 (edcfbbe)
C            1.94078929420716       -0.67979869744640       -0.11981279573056
C            1.11210975429237        0.36733745888366        0.61720235065561
C           -0.00201331999359        0.97711796690631       -0.23688984547099
C           -1.07572499433266       -0.01240612590555       -0.69412468588410
N           -1.85296423868807       -0.51097746899716        0.43451319645201
H            2.33895945998645       -0.26706676408529       -1.04433048155052
H            2.77402087342641       -1.00304443963669        0.49975170299297
H            1.34470321113501       -1.55563017957962       -0.36451539791948
H            0.68394522068801       -0.07163437380570        1.52023309294449
H            1.77220587660702        1.17774225209839        0.93451396994456
H           -0.49342449374223        1.76272641421125        0.33883700534710
H            0.44038089408099        1.43165078911620       -1.12581229281260
H           -0.60706641850446       -0.81744902498857       -1.28417124557824
H           -1.77091611756740        0.51422284113455       -1.35517234763944
H           -1.25199635102253       -1.04712515396437        1.05132147894167
H           -2.57631219360467       -1.13713579283409        0.09996189098100
16
 energy: -17.083303344773 gnorm: 0.000276930666 xtb: 6.7.1 (edcfbbe)
C            1.94493328014777       -0.67718322619830       -0.12175141587846
C            1.11185474873585        0.36497271352368        0.61734680892918
C           -0.00204565091706        0.97485225108987       -0.23693790134510
C           -1.07615981689105       -0.01443381776369       -0.69376911086941
N           -1.85806966520314       -0.50643977966447        0.43457504071285
H            2.34720397317521       -0.25880701467911       -1.04184728015575
H            2.77534130939988       -1.00355352323592        0.49992619564774
H            1.35067075525371       -1.55186408504408       -0.37445776796560
H            0.68279512317590       -0.07844603157656        1.51777802264038
H            1.76928609305912        1.17577507282501        0.93909847301447
H           -0.49331744987034        1.76084150950592        0.33837281756737
H            0.44085137027016        1.42890358105778       -1.12581203025792
H           -0.60741614981677       -0.82308732603305       -1.27871038848052
H           -1.76827661070202        0.51069963623876       -1.35917715471364
H           -1.26003196136794       -1.04019595735566        1.05630138893476
H           -2.58092289148148       -1.13350430158328        0.10056989789314
16
 energy: -17.083310150862 gnorm: 0.000256954945 xtb: 6.7.1 (edcfbbe)
C            1.94850139937551       -0.67494695940514       -0.12333435146176
C            1.11163744108024        0.36284693782186        0.61751184732978
C           -0.00190007123105        0.97291639149420       -0.23714098878254
C           -1.07637314111802       -0.01622311938275       -0.69325746582544
N           -1.86243285385079       -0.50241313069936        0.43482155349892
H            2.35379711606642       -0.25140635787175       -1.03972660103426
H            2.77694254651158       -1.00336425066790        0.49986279412571
H            1.35618103597032       -1.54900829759915       -0.38270200483196
H            0.68199783742041       -0.08458961088022        1.51566626895101
H            1.76660351835930        1.17408231150237        0.94314190347831
H           -0.49330840826537        1.75909123289951        0.33777587813107
H            0.44117967815012        1.42660404245983       -1.12611315519853
H           -0.60747635749835       -0.82802918885790       -1.27354403229660
H           -1.76574885667174        0.50745758014036       -1.36258117757875
H           -1.26721587256123       -1.03526817662777        1.05998752664353
H           -2.58568855476958       -1.12921970321929        0.10113760052500
16
 energy: -17.083316098257 gnorm: 0.000187384930 xtb: 6.7.1 (edcfbbe)
C            1.95192666921699       -0.67272799898706       -0.12482109810385
C            1.11146690287841        0.36096368022893        0.61772113340203
C           -0.00187902017400        0.97107680054594       -0.23708897862479
C           -1.07659142494572       -0.01793087169616       -0.69289588772151
N           -1.86624913331669       -0.49874374539703        0.43504344886545
H            2.35923487000227       -0.24520319490696       -1.03836523581054
H            2.77896995619809       -1.00260321531996        0.49942057867063
H            1.36149239378090       -1.54642296697425       -0.38928085574727
H            0.68111238428394       -0.08993793289636        1.51376533076742
H            1.76423033799037        1.17252769459486        0.94686956532318
H           -0.49321885601898        1.75758541549618        0.33742323481198
H            0.44156852740371        1.42430399866827       -1.12607889663991
H           -0.60756765705060       -0.83263935653405       -1.26889964739519
H           -1.76346509167644        0.50438750693298       -1.36580254939477
H           -1.27379694631125       -1.03164143846496        1.06290367897831
H           -2.59053745529321       -1.12446467418345        0.10159177429233
16
 energy: -17.083321267563 gnorm: 0.000159657056 xtb: 6.7.1 (edcfbbe)
C            1.95501409075318       -0.67072499262686       -0.12604654955956
C            1.11135913482201        0.35927464644048        0.61790963140717
C           -0.00167037875084        0.96943481026089       -0.23725623175137
C           -1.07672271044123       -0.01951441859012       -0.69240370363860
N           -1.86971788322228       -0.49549971882226        0.43531612612943
H            2.36367919798076       -0.23938489322401       -1.03722234328646
H            2.78120822917315       -1.00130182315187        0.49894530948641
H            1.36657401173801       -1.54448297342638       -0.39480495854718
H            0.68036308628852       -0.09504059826241        1.51194411857688
H            1.76204846860306        1.17115009011158        0.95040325579124
H           -0.49301205301275        1.75621209910585        0.33687223211621
H            0.44210347370135        1.42229561381800       -1.12627553280722
H           -0.60772209592716       -0.83683195528560       -1.26462724007985
H           -1.76135144430479        0.50160936448947       -1.36842692565327
H           -1.27991689571575       -1.02907658261494        1.06512210470924
H           -2.59553977471746       -1.11958896711491        0.10205630278041
16
 energy: -17.083325709304 gnorm: 0.000139738126 xtb: 6.7.1 (edcfbbe)
C            1.95797896382849       -0.66885934640560       -0.12716794583203
C            1.11118386661450        0.35755960856370        0.61818240069138
C           -0.00156307287976        0.96783322120145       -0.23726759590789
C           -1.07693971876929       -0.02088448563274       -0.69203950356891
N           -1.87283385204745       -0.49239949631776        0.43556031156739
H            2.36745355177433       -0.23426821277206       -1.03642169406221
H            2.78370494096427       -0.99973763518819        0.49826429424156
H            1.37153475480652       -1.54285924194439       -0.39944801603990
H            0.67967642178026       -0.09980883562291        1.51037444257787
H            1.75988350663799        1.16973738371781        0.95374151472310
H           -0.49292855857074        1.75495507709294        0.33636624395613
H            0.44243040805540        1.42017354907226       -1.12643350977551
H           -0.60779523329852       -0.84056054885690       -1.26074306688441
H           -1.75945665181608        0.49918785033940       -1.37101786476453
H           -1.28553756993817       -1.02672478015654        1.06715000811724
H           -2.60009530017396       -1.11481440598358        0.10240557663421
16
 energy: -17.083329503712 gnorm: 0.000134419633 xtb: 6.7.1 (edcfbbe)
C            1.96071180557338       -0.66708168825308       -0.12821256370046
C            1.11107832496652        0.35606113729334        0.61838057439964
C           -0.00137371126262        0.96636684039950       -0.23736460907966
C           -1.07711167443443       -0.02224540786018       -0.69163622013109
N           -1.87581155958449       -0.48964588725635        0.43572815413848
H            2.37081140124049       -0.22951334807033       -1.03576363104281
H            2.78606082175021       -0.99808799309024        0.49766026267980
H            1.37620145538095       -1.54140534694773       -0.40359630378409
H            0.67891118340283       -0.10427582864170        1.50874004745074
H            1.75790333108867        1.16849627926154        0.95697154245701
H           -0.49258156165562        1.75386065366816        0.33589484471203
H            0.44305586419455        1.41825931286914       -1.12653933096173
H           -0.60814201713018       -0.84406913504410       -1.25731461015530
H           -1.75771551050905        0.49689222894238       -1.37316773185457
H           -1.29084901202129       -1.02456117236716        1.06899413757587
H           -2.60445268403213       -1.11052094379626        0.10273103296962
16
 energy: -17.083331536405 gnorm: 0.000124140911 xtb: 6.7.1 (edcfbbe)
C            1.96250568610547       -0.66616117689770       -0.12868070063431
C            1.11104069453677        0.35499360327127        0.61858734842730
C           -0.00134791886004        0.96527057813864       -0.23733130132701
C           -1.07751695992544       -0.02288690080359       -0.69156911511776
N           -1.87775046671188       -0.48811134408204        0.43560540564704
H            2.37274379183376       -0.22686972438362       -1.03536975502216
H            2.78790630967401       -0.99684671805467        0.49730877955307
H            1.37934281193317       -1.54088491384613       -0.40566370061656
H            0.67880066828803       -0.10673962796400        1.50817680498843
H            1.75685682349110        1.16766224208860        0.95846275850550
H           -0.49257477492822        1.75296502718831        0.33563100643637
H            0.44328577688966        1.41691889992878       -1.12652545148693
H           -0.60872027932364       -0.84574092435724       -1.25594322471251
H           -1.75700591653560        0.49623228481479       -1.37427269342724
H           -1.29408964204851       -1.02266598145529        1.07033185910075
H           -2.60678014745083       -1.10860562247920        0.10275757535951
16
 energy: -17.083333440490 gnorm: 0.000117925098 xtb: 6.7.1 (edcfbbe)
C            1.96395497318410       -0.66525685467216       -0.12928460280327
C            1.11091555030061        0.35405407361760        0.61871702006795
C           -0.00128081940536        0.96449641299609       -0.23732422678025
C           -1.07763867322298       -0.02355628617516       -0.69139381849661
N           -1.87949264690229       -0.48655950720691        0.43548839010913
H            2.37441745525644       -0.22426270470914       -1.03505746190238
H            2.78924882433193       -0.99589733703090        0.49687969750639
H            1.38194056453894       -1.54023103922928       -0.40793513822659
H            0.67842874263543       -0.10947632524064        1.50723397598600
H            1.75561057324857        1.16688131826475        0.96034197049610
H           -0.49242112024505        1.75238583043693        0.33545725094921