      -----------------------------------------------------------      
     |                   =====================                   |     
     |                           x T B                           |     
     |                   =====================                   |     
     |                         S. Grimme                         |     
     |          Mulliken Center for Theoretical Chemistry        |     
     |                    University of Bonn                     |     
      -----------------------------------------------------------      

   * xtb version 6.7.1 (edcfbbe) compiled by 'albert@albert-system' on 2024-07-22

   xtb is free software: you can redistribute it and/or modify it under
   the terms of the GNU Lesser General Public License as published by
   the Free Software Foundation, either version 3 of the License, or
   (at your option) any later version.
   
   xtb is distributed in the hope that it will be useful,
   but WITHOUT ANY WARRANTY; without even the implied warranty of
   MERCHANTABILITY or FITNESS FOR A PARTICULAR PURPOSE.  See the
   GNU Lesser General Public License for more details.
   
   Cite this work as:
   * C. Bannwarth, E. Caldeweyher, S. Ehlert, A. Hansen, P. Pracht,
     J. Seibert, S. Spicher, S. Grimme, WIREs Comput. Mol. Sci., 2020, 11,
     e01493. DOI: 10.1002/wcms.1493
   
   for GFN2-xTB:
   * C. Bannwarth, S. Ehlert and S. Grimme., J. Chem. Theory Comput., 2019,
     15, 1652-1671. DOI: 10.1021/acs.jctc.8b01176
   for GFN1-xTB:
   * S. Grimme, C. Bannwarth, P. Shushkov, J. Chem. Theory Comput., 2017,
     13, 1989-2009. DOI: 10.1021/acs.jctc.7b00118
   for GFN0-xTB:
   * P. Pracht, E. Caldeweyher, S. Ehlert, S. Grimme, ChemRxiv, 2019, preprint.
     DOI: 10.26434/chemrxiv.8326202.v1
   for GFN-FF:
   * S. Spicher and S. Grimme, Angew. Chem. Int. Ed., 2020, 59, 15665-15673.
     DOI: 10.1002/anie.202004239
   
   for ALPB and GBSA implicit solvation:
   * S. Ehlert, M. Stahn, S. Spicher, S. Grimme, J. Chem. Theory Comput.,
     2021, 17, 4250-4261. DOI: 10.1021/acs.jctc.1c00471
   
   for ddCOSMO and CPCM-X implicit solvation:
   * M. Stahn, S. Ehlert, S. Grimme, J. Phys. Chem. A,
     2023, XX, XXXX-XXXX. DOI: 10.1021/acs.jpca.3c04382
   
   for DFT-D4:
   * E. Caldeweyher, C. Bannwarth and S. Grimme, J. Chem. Phys., 2017,
     147, 034112. DOI: 10.1063/1.4993215
   * E. Caldeweyher, S. Ehlert, A. Hansen, H. Neugebauer, S. Spicher,
     C. Bannwarth and S. Grimme, J. Chem. Phys., 2019, 150, 154122.
     DOI: 10.1063/1.5090222
   * E. Caldeweyher, J.-M. Mewes, S. Ehlert and S. Grimme, Phys. Chem. Chem. Phys.
     2020, 22, 8499-8512. DOI: 10.1039/D0CP00502A
   
   for sTDA-xTB:
   * S. Grimme and C. Bannwarth, J. Chem. Phys., 2016, 145, 054103.
     DOI: 10.1063/1.4959605
   
   in the mass-spec context:
   * V. Asgeirsson, C. Bauer and S. Grimme, Chem. Sci., 2017, 8, 4879.
     DOI: 10.1039/c7sc00601b
   * J. Koopman and S. Grimme, ACS Omega 2019, 4, 12, 15120-15133.
     DOI: 10.1021/acsomega.9b02011
   
   for metadynamics refer to:
   * S. Grimme, J. Chem. Theory Comput., 2019, 155, 2847-2862
     DOI: 10.1021/acs.jctc.9b00143
   
   for SPH calculations refer to:
   * S. Spicher and S. Grimme, J. Chem. Theory Comput., 2021, 17, 1701-1714
     DOI: 10.1021/acs.jctc.0c01306
   
   for ONIOM refer to:
   * C. Plett, A. Katbashev, S. Ehlert, S. Grimme, M. Bursch,
     Phys. Chem. Chem. Phys., 2023, 25, 17860-17868. DOI: 10.1039/D3CP02178E
   
   for DIPRO refer to:
   * J. Kohn, N. Gildemeister, S. Grimme, D. Fazzi, A. Hansen,
     J. Chem. Phys., 2023, just accepted.
   
   for PTB refer to:
   * S. Grimme, M. Mueller, A. Hansen, J. Chem. Phys., 2023, 158, 124111.
     DOI: 10.1063/5.0137838
   
   with help from (in alphabetical order)
   P. Atkinson, C. Bannwarth, F. Bohle, G. Brandenburg, E. Caldeweyher
   M. Checinski, S. Dohm, S. Ehlert, S. Ehrlich, I. Gerasimov, C. Hölzer
   A. Katbashev, J. Kohn, J. Koopman, C. Lavigne, S. Lehtola, F. März, M. Müller,
   F. Musil, H. Neugebauer, J. Pisarek, C. Plett, P. Pracht, F. Pultar,
   J. Seibert, P. Shushkov, S. Spicher, M. Stahn, M. Steiner, T. Strunk,
   J. Stückrath, T. Rose, and J. Unsleber
   
 * started run on 2025/04/11 at 15:55:28.551     
   ID    Z sym.   atoms
    1    6 C      1, 3, 5, 7
    2    8 O      2, 4, 6
    3    1 H      8-17

           -------------------------------------------------
          |                Calculation Setup                |
           -------------------------------------------------

          program call               : /srv/scratch/z5358697/.xtb/bin/xtb gas.coord --gfn2 --sp --chrg 0 --norestart --parallel 1
          hostname                   : k063
          coordinate file            : gas.coord
          omp threads                :                     1


           -------------------------------------------------
          |                 G F N 2 - x T B                 |
           -------------------------------------------------

        Reference                      10.1021/acs.jctc.8b01176
      * Hamiltonian:
        H0-scaling (s, p, d)           1.850000    2.230000    2.230000
        zeta-weighting                 0.500000
      * Dispersion:
        s8                             2.700000
        a1                             0.520000
        a2                             5.000000
        s9                             5.000000
      * Repulsion:
        kExp                           1.500000    1.000000
        rExp                           1.000000
      * Coulomb:
        alpha                          2.000000
        third order                    shell-resolved
        anisotropic                    true
        a3                             3.000000
        a5                             4.000000
        cn-shift                       1.200000
        cn-exp                         4.000000
        max-rad                        5.000000


          ...................................................
          :                      SETUP                      :
          :.................................................:
          :  # basis functions                  38          :
          :  # atomic orbitals                  38          :
          :  # shells                           24          :
          :  # electrons                        44          :
          :  max. iterations                   250          :
          :  Hamiltonian                  GFN2-xTB          :
          :  restarted?                      false          :
          :  GBSA solvation                  false          :
          :  PC potential                    false          :
          :  electronic temp.          300.0000000     K    :
          :  accuracy                    1.0000000          :
          :  -> integral cutoff          0.2500000E+02      :
          :  -> integral neglect         0.1000000E-07      :
          :  -> SCF convergence          0.1000000E-05 Eh   :
          :  -> wf. convergence          0.1000000E-03 e    :
          :  Broyden damping             0.4000000          :
          :  net charge                          0          :
          :  unpaired electrons                  0          :
          ...................................................

 iter      E             dE          RMSdq      gap      omega  full diag
   1    -26.0007046 -0.260007E+02  0.491E+00   11.43       0.0  T
   2    -26.0618580 -0.611534E-01  0.253E+00   10.88       1.0  T
   3    -26.0625289 -0.670885E-03  0.101E+00   11.00       1.0  T
   4    -26.0629190 -0.390095E-03  0.130E-01   11.04       1.0  T
   5    -26.0629713 -0.523008E-04  0.743E-02   11.05       1.0  T
   6    -26.0629731 -0.186572E-05  0.755E-03   11.06       3.2  T
   7    -26.0629733 -0.177124E-06  0.387E-03   11.06       6.3  T
   8    -26.0629734 -0.521575E-07  0.114E-03   11.06      21.2  T
   9    -26.0629734 -0.164656E-08  0.198E-04   11.06     122.5  T
  10    -26.0629734 -0.213412E-09  0.557E-05   11.06     435.3  T

   *** convergence criteria satisfied after 10 iterations ***

         #    Occupation            Energy/Eh            Energy/eV
      -------------------------------------------------------------
         1        2.0000           -0.7245527             -19.7161
       ...           ...                  ...                  ...
        16        2.0000           -0.4946637             -13.4605
        17        2.0000           -0.4771837             -12.9848
        18        2.0000           -0.4747571             -12.9188
        19        2.0000           -0.4514129             -12.2836
        20        2.0000           -0.4283506             -11.6560
        21        2.0000           -0.4223511             -11.4928
        22        2.0000           -0.4207673             -11.4497 (HOMO)
        23                         -0.0144073              -0.3920 (LUMO)
        24                          0.0328651               0.8943
        25                          0.0764545               2.0804
        26                          0.1049843               2.8568
        27                          0.1111018               3.0232
       ...                                ...                  ...
        38                          0.3061502               8.3308
      -------------------------------------------------------------
                  HL-Gap            0.4063600 Eh           11.0576 eV
             Fermi-level           -0.2175873 Eh           -5.9209 eV

 SCC (total)                   0 d,  0 h,  0 min,  0.015 sec
 SCC setup                      ...        0 min,  0.000 sec (  2.827%)
 Dispersion                     ...        0 min,  0.000 sec (  1.127%)
 classical contributions        ...        0 min,  0.000 sec (  0.303%)
 integral evaluation            ...        0 min,  0.003 sec ( 21.970%)
 iterations                     ...        0 min,  0.007 sec ( 45.105%)
 molecular gradient             ...        0 min,  0.004 sec ( 27.421%)
 printout                       ...        0 min,  0.000 sec (  1.094%)

         :::::::::::::::::::::::::::::::::::::::::::::::::::::
         ::                     SUMMARY                     ::
         :::::::::::::::::::::::::::::::::::::::::::::::::::::
         :: total energy             -25.851780255764 Eh    ::
         :: gradient norm              0.017280123496 Eh/a0 ::
         :: HOMO-LUMO gap             11.057619487273 eV    ::
         ::.................................................::
         :: SCC energy               -26.062943991538 Eh    ::
         :: -> isotropic ES            0.062561394054 Eh    ::
         :: -> anisotropic ES         -0.004024022011 Eh    ::
         :: -> anisotropic XC         -0.001075853912 Eh    ::
         :: -> dispersion             -0.009580294883 Eh    ::
         :: repulsion energy           0.211163735773 Eh    ::
         :: add. restraining           0.000000000000 Eh    ::
         :: total charge               0.000000000000 e     ::
         :::::::::::::::::::::::::::::::::::::::::::::::::::::

           -------------------------------------------------
          |                Property Printout                |
           -------------------------------------------------

    * Orbital Energies and Occupations

         #    Occupation            Energy/Eh            Energy/eV
      -------------------------------------------------------------
         1        2.0000           -0.7245527             -19.7161
       ...           ...                  ...                  ...
        10        2.0000           -0.5697431             -15.5035
        11        2.0000           -0.5413865             -14.7319
        12        2.0000           -0.5331417             -14.5075
        13        2.0000           -0.5245149             -14.2728
        14        2.0000           -0.5192637             -14.1299
        15        2.0000           -0.5162559             -14.0480
        16        2.0000           -0.4946637             -13.4605
        17        2.0000           -0.4771837             -12.9848
        18        2.0000           -0.4747571             -12.9188
        19        2.0000           -0.4514129             -12.2836
        20        2.0000           -0.4283506             -11.6560
        21        2.0000           -0.4223511             -11.4928
        22        2.0000           -0.4207673             -11.4497 (HOMO)
        23                         -0.0144073              -0.3920 (LUMO)
        24                          0.0328651               0.8943
        25                          0.0764545               2.0804
        26                          0.1049843               2.8568
        27                          0.1111018               3.0232
        28                          0.1196558               3.2560
        29                          0.1422932               3.8720
        30                          0.1463014               3.9811
        31                          0.1538823               4.1874
        32                          0.1791904               4.8760
        33                          0.1952274               5.3124
       ...                                ...                  ...
        38                          0.3061502               8.3308
      -------------------------------------------------------------
                  HL-Gap            0.4063600 Eh           11.0576 eV
             Fermi-level           -0.2175873 Eh           -5.9209 eV

     #   Z          covCN         q      C6AA      α(0)
     1   6 C        3.651     0.034    20.302     6.471
     2   8 O        1.701    -0.321    19.368     5.942
     3   6 C        3.558     0.394    15.625     5.767
     4   8 O        1.701    -0.321    19.368     5.942
     5   6 C        3.651     0.034    20.302     6.471
     6   8 O        1.699    -0.355    19.977     6.034
     7   6 C        3.644     0.041    20.221     6.464
     8   1 H        0.924     0.042     2.423     2.434
     9   1 H        0.924     0.051     2.309     2.376
    10   1 H        0.925     0.075     2.032     2.229
    11   1 H        0.921    -0.004     3.127     2.765
    12   1 H        0.924     0.042     2.423     2.434
    13   1 H        0.925     0.075     2.032     2.229
    14   1 H        0.924     0.051     2.309     2.376
    15   1 H        0.924     0.050     2.322     2.383
    16   1 H        0.924     0.050     2.321     2.383
    17   1 H        0.925     0.062     2.176     2.307

 Mol. C6AA /au·bohr⁶  :       2106.476275
 Mol. C8AA /au·bohr⁸  :      42513.335115
 Mol. α(0) /au        :         67.008488


Wiberg/Mayer (AO) data.
largest (>0.10) Wiberg bond orders for each atom

 ---------------------------------------------------------------------------
     #   Z sym  total        # sym  WBO       # sym  WBO       # sym  WBO
 ---------------------------------------------------------------------------
     1   6 C    3.934 --     9 H    0.981    10 H    0.981     8 H    0.979
                             2 O    0.971
     2   8 O    2.089 --     3 C    0.988     1 C    0.971
     3   6 C    3.929 --     4 O    0.988     2 O    0.988     6 O    0.972
                            11 H    0.931
     4   8 O    2.089 --     3 C    0.988     5 C    0.971
     5   6 C    3.934 --    14 H    0.981    13 H    0.981    12 H    0.979
                             4 O    0.971
     6   8 O    2.074 --     3 C    0.972     7 C    0.965
     7   6 C    3.937 --    17 H    0.983    15 H    0.981    16 H    0.981
                             6 O    0.965
     8   1 H    0.998 --     1 C    0.979
     9   1 H    0.997 --     1 C    0.981
    10   1 H    0.994 --     1 C    0.981
    11   1 H    1.000 --     3 C    0.931
    12   1 H    0.998 --     5 C    0.979
    13   1 H    0.994 --     5 C    0.981
    14   1 H    0.997 --     5 C    0.981
    15   1 H    0.998 --     7 C    0.981
    16   1 H    0.998 --     7 C    0.981
    17   1 H    0.996 --     7 C    0.983
 ---------------------------------------------------------------------------

Topologies differ in total number of bonds
Writing topology from bond orders to xtbtopo.mol

molecular dipole:
                 x           y           z       tot (Debye)
 q only:       -0.197      -0.027      -0.311
   full:       -0.182      -0.037      -0.508       1.374
molecular quadrupole (traceless):
                xx          xy          yy          xz          yz          zz
 q only:       -1.142      -0.593       6.401      -3.883      -0.853      -5.259
  q+dip:       -0.118      -0.516       4.830      -4.783      -0.778      -4.712
   full:       -0.639      -0.591       5.638      -4.949      -0.848      -4.999


           -------------------------------------------------
          | TOTAL ENERGY              -25.851780255764 Eh   |
          | GRADIENT NORM               0.017280123496 Eh/α |
          | HOMO-LUMO GAP              11.057619487273 eV   |
           -------------------------------------------------

------------------------------------------------------------------------
 * finished run on 2025/04/11 at 15:55:28.646     
------------------------------------------------------------------------
 total:
 * wall-time:     0 d,  0 h,  0 min,  0.093 sec
 *  cpu-time:     0 d,  0 h,  0 min,  0.029 sec
 * ratio c/w:     0.308 speedup
 SCF:
 * wall-time:     0 d,  0 h,  0 min,  0.015 sec
 *  cpu-time:     0 d,  0 h,  0 min,  0.015 sec
 * ratio c/w:     0.991 speedup

