      -----------------------------------------------------------      
     |                   =====================                   |     
     |                           x T B                           |     
     |                   =====================                   |     
     |                         S. Grimme                         |     
     |          Mulliken Center for Theoretical Chemistry        |     
     |                    University of Bonn                     |     
      -----------------------------------------------------------      

   * xtb version 6.7.1 (edcfbbe) compiled by 'albert@albert-system' on 2024-07-22

   xtb is free software: you can redistribute it and/or modify it under
   the terms of the GNU Lesser General Public License as published by
   the Free Software Foundation, either version 3 of the License, or
   (at your option) any later version.
   
   xtb is distributed in the hope that it will be useful,
   but WITHOUT ANY WARRANTY; without even the implied warranty of
   MERCHANTABILITY or FITNESS FOR A PARTICULAR PURPOSE.  See the
   GNU Lesser General Public License for more details.
   
   Cite this work as:
   * C. Bannwarth, E. Caldeweyher, S. Ehlert, A. Hansen, P. Pracht,
     J. Seibert, S. Spicher, S. Grimme, WIREs Comput. Mol. Sci., 2020, 11,
     e01493. DOI: 10.1002/wcms.1493
   
   for GFN2-xTB:
   * C. Bannwarth, S. Ehlert and S. Grimme., J. Chem. Theory Comput., 2019,
     15, 1652-1671. DOI: 10.1021/acs.jctc.8b01176
   for GFN1-xTB:
   * S. Grimme, C. Bannwarth, P. Shushkov, J. Chem. Theory Comput., 2017,
     13, 1989-2009. DOI: 10.1021/acs.jctc.7b00118
   for GFN0-xTB:
   * P. Pracht, E. Caldeweyher, S. Ehlert, S. Grimme, ChemRxiv, 2019, preprint.
     DOI: 10.26434/chemrxiv.8326202.v1
   for GFN-FF:
   * S. Spicher and S. Grimme, Angew. Chem. Int. Ed., 2020, 59, 15665-15673.
     DOI: 10.1002/anie.202004239
   
   for ALPB and GBSA implicit solvation:
   * S. Ehlert, M. Stahn, S. Spicher, S. Grimme, J. Chem. Theory Comput.,
     2021, 17, 4250-4261. DOI: 10.1021/acs.jctc.1c00471
   
   for ddCOSMO and CPCM-X implicit solvation:
   * M. Stahn, S. Ehlert, S. Grimme, J. Phys. Chem. A,
     2023, XX, XXXX-XXXX. DOI: 10.1021/acs.jpca.3c04382
   
   for DFT-D4:
   * E. Caldeweyher, C. Bannwarth and S. Grimme, J. Chem. Phys., 2017,
     147, 034112. DOI: 10.1063/1.4993215
   * E. Caldeweyher, S. Ehlert, A. Hansen, H. Neugebauer, S. Spicher,
     C. Bannwarth and S. Grimme, J. Chem. Phys., 2019, 150, 154122.
     DOI: 10.1063/1.5090222
   * E. Caldeweyher, J.-M. Mewes, S. Ehlert and S. Grimme, Phys. Chem. Chem. Phys.
     2020, 22, 8499-8512. DOI: 10.1039/D0CP00502A
   
   for sTDA-xTB:
   * S. Grimme and C. Bannwarth, J. Chem. Phys., 2016, 145, 054103.
     DOI: 10.1063/1.4959605
   
   in the mass-spec context:
   * V. Asgeirsson, C. Bauer and S. Grimme, Chem. Sci., 2017, 8, 4879.
     DOI: 10.1039/c7sc00601b
   * J. Koopman and S. Grimme, ACS Omega 2019, 4, 12, 15120-15133.
     DOI: 10.1021/acsomega.9b02011
   
   for metadynamics refer to:
   * S. Grimme, J. Chem. Theory Comput., 2019, 155, 2847-2862
     DOI: 10.1021/acs.jctc.9b00143
   
   for SPH calculations refer to:
   * S. Spicher and S. Grimme, J. Chem. Theory Comput., 2021, 17, 1701-1714
     DOI: 10.1021/acs.jctc.0c01306
   
   for ONIOM refer to:
   * C. Plett, A. Katbashev, S. Ehlert, S. Grimme, M. Bursch,
     Phys. Chem. Chem. Phys., 2023, 25, 17860-17868. DOI: 10.1039/D3CP02178E
   
   for DIPRO refer to:
   * J. Kohn, N. Gildemeister, S. Grimme, D. Fazzi, A. Hansen,
     J. Chem. Phys., 2023, just accepted.
   
   for PTB refer to:
   * S. Grimme, M. Mueller, A. Hansen, J. Chem. Phys., 2023, 158, 124111.
     DOI: 10.1063/5.0137838
   
   with help from (in alphabetical order)
   P. Atkinson, C. Bannwarth, F. Bohle, G. Brandenburg, E. Caldeweyher
   M. Checinski, S. Dohm, S. Ehlert, S. Ehrlich, I. Gerasimov, C. Hölzer
   A. Katbashev, J. Kohn, J. Koopman, C. Lavigne, S. Lehtola, F. März, M. Müller,
   F. Musil, H. Neugebauer, J. Pisarek, C. Plett, P. Pracht, F. Pultar,
   J. Seibert, P. Shushkov, S. Spicher, M. Stahn, M. Steiner, T. Strunk,
   J. Stückrath, T. Rose, and J. Unsleber
   
 * started run on 2025/04/11 at 15:55:28.682     
   ID    Z sym.   atoms
    1    6 C      1, 3, 5, 7
    2    8 O      2, 4, 6
    3    1 H      8-17

           -------------------------------------------------
          |                Calculation Setup                |
           -------------------------------------------------

          program call               : /srv/scratch/z5358697/.xtb/bin/xtb solv.coord --gfn2 --sp --chrg 0 --norestart --parallel 1 --alpb water reference -I xtb_sp-xcontrol-inp
          hostname                   : k063
          coordinate file            : solv.coord
          omp threads                :                     1


           -------------------------------------------------
          |                 G F N 2 - x T B                 |
           -------------------------------------------------

        Reference                      10.1021/acs.jctc.8b01176
      * Hamiltonian:
        H0-scaling (s, p, d)           1.850000    2.230000    2.230000
        zeta-weighting                 0.500000
      * Dispersion:
        s8                             2.700000
        a1                             0.520000
        a2                             5.000000
        s9                             5.000000
      * Repulsion:
        kExp                           1.500000    1.000000
        rExp                           1.000000
      * Coulomb:
        alpha                          2.000000
        third order                    shell-resolved
        anisotropic                    true
        a3                             3.000000
        a5                             4.000000
        cn-shift                       1.200000
        cn-exp                         4.000000
        max-rad                        5.000000

      * Solvation model:               ALPB
        Solvent                        water
        Parameter file                 internal GFN2-xTB/ALPB
        Dielectric constant                8.0200E+01
        Reference state                gsolv=reference [X=1]
        Free energy shift                  2.8945E-03 Eh       1.8164E+00 kcal/mol
        Temperature                        2.9815E+02 K
        Density                            1.0000E+00 kg/L
        Solvent mass                       1.8000E+01 g/mol
        Interaction kernel             P16
        Born radius scaling (c1)           1.4744E+00
        Born radii integrator          GBOBC
        Born offset                        0.0000E+00 a0       0.0000E+00 AA
        H-bond correction              true
        Ion screening                  false
        Surface tension                    1.0000E-05 Eh       1.5569E+01 dyn/cm
        Grid points                               974 per atom

          ...................................................
          :                      SETUP                      :
          :.................................................:
          :  # basis functions                  38          :
          :  # atomic orbitals                  38          :
          :  # shells                           24          :
          :  # electrons                        44          :
          :  max. iterations                   250          :
          :  Hamiltonian                  GFN2-xTB          :
          :  restarted?                      false          :
          :  GBSA solvation                   true          :
          :  PC potential                    false          :
          :  electronic temp.          300.0000000     K    :
          :  accuracy                    1.0000000          :
          :  -> integral cutoff          0.2500000E+02      :
          :  -> integral neglect         0.1000000E-07      :
          :  -> SCF convergence          0.1000000E-05 Eh   :
          :  -> wf. convergence          0.1000000E-03 e    :
          :  Broyden damping             0.4000000          :
          :  net charge                          0          :
          :  unpaired electrons                  0          :
          ...................................................

 iter      E             dE          RMSdq      gap      omega  full diag
   1    -26.0154515 -0.260155E+02  0.511E+00   11.47       0.0  T
   2    -26.0679335 -0.524820E-01  0.261E+00   10.99       1.0  T
   3    -26.0688390 -0.905461E-03  0.887E-01   11.05       1.0  T
   4    -26.0691723 -0.333336E-03  0.151E-01   11.09       1.0  T
   5    -26.0692121 -0.398119E-04  0.838E-02   11.11       1.0  T
   6    -26.0692162 -0.409333E-05  0.101E-02   11.12       2.4  T
   7    -26.0692164 -0.246288E-06  0.256E-03   11.12       9.5  T
   8    -26.0692165 -0.658180E-08  0.117E-03   11.11      20.7  T
   9    -26.0692165 -0.115282E-08  0.160E-04   11.12     151.2  T
  10    -26.0692165 -0.637606E-10  0.819E-05   11.12     296.0  T

   *** convergence criteria satisfied after 10 iterations ***

         #    Occupation            Energy/Eh            Energy/eV
      -------------------------------------------------------------
         1        2.0000           -0.7389119             -20.1068
       ...           ...                  ...                  ...
        16        2.0000           -0.4965637             -13.5122
        17        2.0000           -0.4793132             -13.0428
        18        2.0000           -0.4748100             -12.9202
        19        2.0000           -0.4596852             -12.5087
        20        2.0000           -0.4375766             -11.9071
        21        2.0000           -0.4319051             -11.7527
        22        2.0000           -0.4307800             -11.7221 (HOMO)
        23                         -0.0223069              -0.6070 (LUMO)
        24                          0.0228607               0.6221
        25                          0.0698555               1.9009
        26                          0.0964487               2.6245
        27                          0.1045880               2.8460
       ...                                ...                  ...
        38                          0.2977170               8.1013
      -------------------------------------------------------------
                  HL-Gap            0.4084732 Eh           11.1151 eV
             Fermi-level           -0.2265435 Eh           -6.1646 eV

 SCC (total)                   0 d,  0 h,  0 min,  0.027 sec
 SCC setup                      ...        0 min,  0.001 sec (  4.613%)
 Dispersion                     ...        0 min,  0.000 sec (  0.352%)
 classical contributions        ...        0 min,  0.000 sec (  0.081%)
 integral evaluation            ...        0 min,  0.002 sec (  5.977%)
 iterations                     ...        0 min,  0.018 sec ( 66.628%)
 molecular gradient             ...        0 min,  0.006 sec ( 21.603%)
 printout                       ...        0 min,  0.000 sec (  0.691%)

         :::::::::::::::::::::::::::::::::::::::::::::::::::::
         ::                     SUMMARY                     ::
         :::::::::::::::::::::::::::::::::::::::::::::::::::::
         :: total energy             -25.858023347869 Eh    ::
         :: total w/o Gsasa/hb       -25.859988683822 Eh    ::
         :: gradient norm              0.000071638348 Eh/a0 ::
         :: HOMO-LUMO gap             11.115120362820 eV    ::
         ::.................................................::
         :: SCC energy               -26.069187083642 Eh    ::
         :: -> isotropic ES            0.075214598348 Eh    ::
         :: -> anisotropic ES         -0.007078411910 Eh    ::
         :: -> anisotropic XC         -0.000085917833 Eh    ::
         :: -> dispersion             -0.009489336342 Eh    ::
         :: -> Gsolv                  -0.008427198378 Eh    ::
         ::    -> Gelec               -0.010392534332 Eh    ::
         ::    -> Gsasa                0.001308584391 Eh    ::
         ::    -> Ghb                 -0.002237797598 Eh    ::
         ::    -> Gshift               0.002894549160 Eh    ::
         :: repulsion energy           0.211163735773 Eh    ::
         :: add. restraining           0.000000000000 Eh    ::
         :: total charge              -0.000000000000 e     ::
         :::::::::::::::::::::::::::::::::::::::::::::::::::::

           -------------------------------------------------
          |                Property Printout                |
           -------------------------------------------------

    * Orbital Energies and Occupations

         #    Occupation            Energy/Eh            Energy/eV
      -------------------------------------------------------------
         1        2.0000           -0.7389119             -20.1068
       ...           ...                  ...                  ...
        10        2.0000           -0.5736004             -15.6085
        11        2.0000           -0.5477050             -14.9038
        12        2.0000           -0.5404105             -14.7053
        13        2.0000           -0.5295467             -14.4097
        14        2.0000           -0.5261684             -14.3178
        15        2.0000           -0.5233622             -14.2414
        16        2.0000           -0.4965637             -13.5122
        17        2.0000           -0.4793132             -13.0428
        18        2.0000           -0.4748100             -12.9202
        19        2.0000           -0.4596852             -12.5087
        20        2.0000           -0.4375766             -11.9071
        21        2.0000           -0.4319051             -11.7527
        22        2.0000           -0.4307800             -11.7221 (HOMO)
        23                         -0.0223069              -0.6070 (LUMO)
        24                          0.0228607               0.6221
        25                          0.0698555               1.9009
        26                          0.0964487               2.6245
        27                          0.1045880               2.8460
        28                          0.1105551               3.0084
        29                          0.1375951               3.7442
        30                          0.1452996               3.9538
        31                          0.1528042               4.1580
        32                          0.1767001               4.8083
        33                          0.1966928               5.3523
       ...                                ...                  ...
        38                          0.2977170               8.1013
      -------------------------------------------------------------
                  HL-Gap            0.4084732 Eh           11.1151 eV
             Fermi-level           -0.2265435 Eh           -6.1646 eV

     #   Z          covCN         q      C6AA      α(0)
     1   6 C        3.651     0.019    20.563     6.513
     2   8 O        1.701    -0.362    20.103     6.054
     3   6 C        3.558     0.396    15.595     5.762
     4   8 O        1.701    -0.361    20.102     6.053
     5   6 C        3.651     0.019    20.563     6.513
     6   8 O        1.699    -0.383    20.508     6.114
     7   6 C        3.644     0.028    20.448     6.500
     8   1 H        0.924     0.058     2.224     2.332
     9   1 H        0.924     0.063     2.169     2.303
    10   1 H        0.925     0.101     1.780     2.086
    11   1 H        0.921    -0.000     3.063     2.737
    12   1 H        0.924     0.058     2.223     2.332
    13   1 H        0.925     0.101     1.780     2.086
    14   1 H        0.924     0.063     2.170     2.304
    15   1 H        0.924     0.057     2.237     2.339
    16   1 H        0.924     0.057     2.237     2.339
    17   1 H        0.925     0.088     1.894     2.152

 Mol. C6AA /au·bohr⁶  :       2081.350130
 Mol. C8AA /au·bohr⁸  :      42276.560295
 Mol. α(0) /au        :         66.518492


Wiberg/Mayer (AO) data.
largest (>0.10) Wiberg bond orders for each atom

 ---------------------------------------------------------------------------
     #   Z sym  total        # sym  WBO       # sym  WBO       # sym  WBO
 ---------------------------------------------------------------------------
     1   6 C    3.910 --     9 H    0.980     8 H    0.978    10 H    0.976
                             2 O    0.953
     2   8 O    2.066 --     3 C    0.986     1 C    0.953
     3   6 C    3.926 --     4 O    0.986     2 O    0.986     6 O    0.971
                            11 H    0.931
     4   8 O    2.066 --     3 C    0.986     5 C    0.953
     5   6 C    3.910 --    14 H    0.980    12 H    0.978    13 H    0.976
                             4 O    0.953
     6   8 O    2.058 --     3 C    0.971     7 C    0.953
     7   6 C    3.920 --    16 H    0.981    15 H    0.981    17 H    0.978
                             6 O    0.953
     8   1 H    0.997 --     1 C    0.978
     9   1 H    0.996 --     1 C    0.980
    10   1 H    0.989 --     1 C    0.976
    11   1 H    1.000 --     3 C    0.931
    12   1 H    0.997 --     5 C    0.978
    13   1 H    0.989 --     5 C    0.976
    14   1 H    0.996 --     5 C    0.980
    15   1 H    0.997 --     7 C    0.981
    16   1 H    0.997 --     7 C    0.981
    17   1 H    0.992 --     7 C    0.978
 ---------------------------------------------------------------------------

Topologies differ in total number of bonds
Writing topology from bond orders to xtbtopo.mol

molecular dipole:
                 x           y           z       tot (Debye)
 q only:       -0.256      -0.033      -0.376
   full:       -0.217      -0.041      -0.543       1.489
molecular quadrupole (traceless):
                xx          xy          yy          xz          yz          zz
 q only:       -1.265      -0.691       7.824      -4.266      -1.027      -6.559
  q+dip:       -0.138      -0.566       5.616      -4.956      -0.874      -5.478
   full:       -0.687      -0.646       6.473      -5.143      -0.950      -5.787


           -------------------------------------------------
          | TOTAL ENERGY              -25.858023347869 Eh   |
          | GRADIENT NORM               0.000071638348 Eh/α |
          | HOMO-LUMO GAP              11.115120362820 eV   |
           -------------------------------------------------

------------------------------------------------------------------------
 * finished run on 2025/04/11 at 15:55:28.751     
------------------------------------------------------------------------
 total:
 * wall-time:     0 d,  0 h,  0 min,  0.067 sec
 *  cpu-time:     0 d,  0 h,  0 min,  0.027 sec
 * ratio c/w:     0.398 speedup
 SCF:
 * wall-time:     0 d,  0 h,  0 min,  0.028 sec
 *  cpu-time:     0 d,  0 h,  0 min,  0.015 sec
 * ratio c/w:     0.563 speedup

