
                                 *****************
                                 * O   R   C   A *
                                 *****************

                                            #,                                       
                                            ###                                      
                                            ####                                     
                                            #####                                    
                                            ######                                   
                                           ########,                                 
                                     ,,################,,,,,                         
                               ,,#################################,,                 
                          ,,##########################################,,             
                       ,#########################################, ''#####,          
                    ,#############################################,,   '####,        
                  ,##################################################,,,,####,       
                ,###########''''           ''''###############################       
              ,#####''   ,,,,##########,,,,          '''####'''          '####       
            ,##' ,,,,###########################,,,                        '##       
           ' ,,###''''                  '''############,,,                           
         ,,##''                                '''############,,,,        ,,,,,,###''
      ,#''                                            '''#######################'''  
     '                                                          ''''####''''         
             ,#######,   #######,   ,#######,      ##                                
            ,#'     '#,  ##    ##  ,#'     '#,    #''#        ,####,   ,####,        
            ##       ##  ##   ,#'  ##            #'  '#       #'       #'  '#        
            ##       ##  #######   ##           ,######,      #####,   #    #        
            '#,     ,#'  ##    ##  '#,     ,#' ,#      #,     #,   #   #,  ,#        
             '#######'   ##     ##  '#######'  #'      '#     '####' # '####'        



                #########################################################
                #                        -***-                          #
                #          Department of theory and spectroscopy        #
                #                                                       #
                #                      Frank Neese                      #
                #                                                       #
                #     Directorship, Architecture, Infrastructure        #
                #                    SHARK, DRIVERS                     #
                #        Core code/Algorithms in most modules           #
                #                                                       #
                #        Max Planck Institute fuer Kohlenforschung      #
                #                Kaiser Wilhelm Platz 1                 #
                #                 D-45470 Muelheim/Ruhr                 #
                #                      Germany                          #
                #                                                       #
                #                  All rights reserved                  #
                #                        -***-                          #
                #########################################################


                         Program Version 6.0.0  -   RELEASE  -


 With contributions from (in alphabetic order):
   Daniel Aravena         : Magnetic Suceptibility
   Michael Atanasov       : Ab Initio Ligand Field Theory (pilot matlab implementation)
   Alexander A. Auer      : GIAO ZORA, VPT2 properties, NMR spectrum
   Ute Becker             : All parallelization in ORCA, NUMFREQ, NUMCALC
   Giovanni Bistoni       : ED, misc. LED, open-shell LED, HFLD
   Martin Brehm           : Molecular dynamics
   Dmytro Bykov           : pre 5.0 version of the SCF Hessian
   Marcos Casanova-Páez   : Triplet and SCS-CIS(D). UHF-(DLPNO)-IP/EA/STEOM-CCSD. UHF-CVS-IP/STEOM-CCSD
   Vijay G. Chilkuri      : MRCI spin determinant printing, contributions to CSF-ICE
   Pauline Colinet        : FMM embedding
   Dipayan Datta          : RHF DLPNO-CCSD density
   Achintya Kumar Dutta   : EOM-CC, STEOM-CC
   Nicolas Foglia         : Exact transition moments, OPA infrastructure, MCD improvements
   Dmitry Ganyushin       : Spin-Orbit,Spin-Spin,Magnetic field MRCI
   Miquel Garcia          : C-PCM and meta-GGA Hessian, CCSD/C-PCM, Gaussian charge scheme
   Tiago L. C. Gouveia    : GS-ROHF, GS-ROCIS
   Yang Guo               : DLPNO-NEVPT2, F12-NEVPT2, CIM, IAO-localization
   Andreas Hansen         : Spin unrestricted coupled pair/coupled cluster methods
   Ingolf Harden          : AUTO-CI MPn and infrastructure 
   Benjamin Helmich-Paris : MC-RPA, TRAH-(SCF,CASSCF), AVAS, COSX integrals, SCF dyn. polar.
   Lee Huntington         : MR-EOM, pCC
   Robert Izsak           : Overlap fitted RIJCOSX, COSX-SCS-MP3, EOM
   Riya Kayal             : Wick's Theorem for AUTO-CI, AUTO-CI UHF-CCSDT
   Emily Kempfer          : AUTO-CI, RHF CISDT and CCSDT
   Christian Kollmar      : KDIIS, OOCD, Brueckner-CCSD(T), CCSD density, CASPT2, CASPT2-K, improved NEVPT2
   Axel Koslowski         : Symmetry handling
   Simone Kossmann        : Meta GGA functionals, TD-DFT gradient, OOMP2, (MP2 Hessian; deprecated post 5.0)
   Lucas Lang             : DCDCAS
   Marvin Lechner         : AUTO-CI (C++ implementation), FIC-MRCC
   Spencer Leger          : CASSCF response
   Dagmar Lenk            : GEPOL surface, SMD, ORCA-2-JSON
   Dimitrios Liakos       : Extrapolation schemes; Compound Job, initial MDCI parallelization
   Dimitrios Manganas     : Further ROCIS development; embedding schemes. LFT, Crystal Embedding
   Dimitrios Pantazis     : SARC Basis sets
   Anastasios Papadopoulos: AUTO-CI, single reference methods and gradients
   Taras Petrenko         : pre 6.0 DFT Hessian and TD-DFT gradient, (ASA, deprecated), ECA, 1-Electron XAS/XES, NRVS
   Peter Pinski           : DLPNO-MP2, DLPNO-MP2 Gradient
   Christoph Reimann      : Effective Core Potentials
   Marius Retegan         : Local ZFS, SOC
   Christoph Riplinger    : Optimizer, TS searches, QM/MM, DLPNO-CCSD(T), (RO)-DLPNO pert. Triples
   Michael Roemelt        : Original ROCIS implementation
   Masaaki Saitow         : Open-shell DLPNO-CCSD energy and density
   Barbara Sandhoefer     : DKH picture change effects
   Kantharuban Sivalingam : CASSCF convergence/infrastructure, NEVPT2 and variants, FIC-MRCI
   Bernardo de Souza      : ESD, SOC TD-DFT
   Georgi Stoychev        : AutoAux, RI-MP2 NMR, DLPNO-MP2 response, X2C
   Van Anh Tran           : RI-MP2 g-tensors
   Willem Van den Heuvel  : Paramagnetic NMR
   Zikuan Wang            : NOTCH, Electric field optimization 
   Frank Wennmohs         : Technical directorship and infrastructure
   Hang Xu                : AUTO-CI-Response properties 


 We gratefully acknowledge several colleagues who have allowed us to
 interface, adapt or use parts of their codes:
   Stefan Grimme, W. Hujo, H. Kruse, P. Pracht,  : VdW corrections, initial TS optimization,
                  C. Bannwarth, S. Ehlert,         DFT functionals, gCP, sTDA/sTD-DF
                  L. Wittmann, M. Mueller
   Ed Valeev, F. Pavosevic, A. Kumar             : LibInt (2-el integral package), F12 methods
   Garnet Chan, S. Sharma, J. Yang, R. Olivares  : DMRG
   Ulf Ekstrom                                   : XCFun DFT Library
   Mihaly Kallay                                 : mrcc  (arbitrary order and MRCC methods)
   Frank Weinhold                                : gennbo (NPA and NBO analysis)
   Simon Mueller                                 : openCOSMO-RS
   Christopher J. Cramer and Donald G. Truhlar   : smd solvation model
   Lars Goerigk                                  : TD-DFT with DH, B97 family of functionals
   V. Asgeirsson, H. Jonsson                     : NEB implementation
   FAccTs GmbH                                   : IRC, NEB, NEB-TS, DLPNO-Multilevel, CI-OPT
                                                   MM, QMMM, 2- and 3-layer-ONIOM, Crystal-QMMM,
                                                   LR-CPCM, SF, NACMEs, symmetry and pop. for TD-DFT,
                                                   nearIR, NL-DFT gradient (VV10), updates on ESD,
                                                   ML-optimized integration grids, MBIS, APM,
                                                   GOAT, DOCKER, SOLVATOR, interface openCOSMO-RS
   S Lehtola, MJT Oliveira, MAL Marques          : LibXC Library
   Liviu Ungur et al                             : ANISO software


 Your calculation uses the libint2 library for the computation of 2-el integrals
 For citations please refer to: http://libint.valeyev.net

 Your ORCA version has been built with support for libXC version: 6.2.2
 For citations please refer to: https://libxc.gitlab.io

 This ORCA versions uses:
   CBLAS   interface :  Fast vector & matrix operations
   LAPACKE interface :  Fast linear algebra routines
   SCALAPACK package :  Parallel linear algebra routines
   Shared memory     :  Shared parallel matrices
   BLAS/LAPACK       :  OpenBLAS 0.3.27  USE64BITINT DYNAMIC_ARCH NO_AFFINITY SkylakeX SINGLE_THREADED
        Core in use  :  SkylakeX
   Copyright (c) 2011-2014, The OpenBLAS Project


Your calculation utilizes the geometrical counterpoise correction gCP
Please cite in your paper:
H.Kruse, S. Grimme J.Chem.Phys., 136, (2012), 154101 
   

Your calculation utilizes the atom-pairwise dispersion correction
based on EEQ partial charges (D4)


================================================================================

----- Orbital basis set information -----
Your calculation utilizes the basis: def2-mTZVPP
   Stefan Grimme, Andreas Hansen, Sebastian Ehlert, and Jan-Michael Mewes 
   J. Chem. Phys. 154, 064103 (2021). DOI: 10.1063/5.0040021

----- AuxJ basis set information -----
Your calculation utilizes the auxiliary basis: def2/J
   F. Weigend, Phys. Chem. Chem. Phys. 8, 1057 (2006).

================================================================================
                                        WARNINGS
                       Please study these warnings very carefully!
================================================================================

Using LibXC functional ID 497 : Re-regularized SCAN exchange by Furness et al
[ 1]  J. W. Furness, A. D. Kaplan, J. Ning, J. P. Perdew, and J. Sun.,  J. Phys. Chem. Lett. 11, 8208-8215 (2020)
[ 2]  J. W. Furness, A. D. Kaplan, J. Ning, J. P. Perdew, and J. Sun.,  J. Phys. Chem. Lett. 11, 9248-9248 (2020)
Using LibXC functional ID 498 : Re-regularized SCAN correlation by Furness et al
[ 1]  J. W. Furness, A. D. Kaplan, J. Ning, J. P. Perdew, and J. Sun.,  J. Phys. Chem. Lett. 11, 8208-8215 (2020)
[ 2]  J. W. Furness, A. D. Kaplan, J. Ning, J. P. Perdew, and J. Sun.,  J. Phys. Chem. Lett. 11, 9248-9248 (2020)
Using LibXC functional ID 497 : Re-regularized SCAN exchange by Furness et al
[ 1]  J. W. Furness, A. D. Kaplan, J. Ning, J. P. Perdew, and J. Sun.,  J. Phys. Chem. Lett. 11, 8208-8215 (2020)
[ 2]  J. W. Furness, A. D. Kaplan, J. Ning, J. P. Perdew, and J. Sun.,  J. Phys. Chem. Lett. 11, 9248-9248 (2020)
Using LibXC functional ID 498 : Re-regularized SCAN correlation by Furness et al
[ 1]  J. W. Furness, A. D. Kaplan, J. Ning, J. P. Perdew, and J. Sun.,  J. Phys. Chem. Lett. 11, 8208-8215 (2020)
[ 2]  J. W. Furness, A. D. Kaplan, J. Ning, J. P. Perdew, and J. Sun.,  J. Phys. Chem. Lett. 11, 9248-9248 (2020)

================================================================================
                                       INPUT FILE
================================================================================
NAME = sp_gas.inp
|  1> ! r2scan-3c def2/J RI DEFGRID2 scfconv6 printgap
|  2> %output
|  3>     printlevel normal
|  4> end
|  5> * xyz 0 1
|  6> C 3.1399342385 -0.7599432202 0.1260120453
|  7> C 1.9559492607 0.1302996115 0.486029034
|  8> C 1.0104475171 0.306187995 -0.70103807
|  9> C -0.1366502556 1.2807638207 -0.429175283
| 10> C -1.153467523 0.7735602231 0.5783808243
| 11> Cl -2.0078568881 -0.687743228 -0.0366458699
| 12> H 2.7950276485 -1.7442426036 -0.1832782648
| 13> H 3.8018357414 -0.8808358599 0.9800102281
| 14> H 3.7098777397 -0.325389545 -0.6922186729
| 15> H 1.421151375 -0.3168320826 1.3254884592
| 16> H 2.3221231874 1.1088977774 0.8040632098
| 17> H 0.5977046463 -0.6645237252 -0.9834495953
| 18> H 1.5839823858 0.6800222743 -1.551643395
| 19> H -0.6495113961 1.4983849275 -1.3676165987
| 20> H 0.2677023023 2.2170409789 -0.0388498075
| 21> H -0.6884491301 0.4779981159 1.5159332798
| 22> H -1.9289680069 1.5144166894 0.7630872273
| 23> *
| 24> 
| 25>                          ****END OF INPUT****
================================================================================

                       ****************************
                       * Single Point Calculation *
                       ****************************

---------------------------------
CARTESIAN COORDINATES (ANGSTROEM)
---------------------------------
  C      3.139934   -0.759943    0.126012
  C      1.955949    0.130300    0.486029
  C      1.010448    0.306188   -0.701038
  C     -0.136650    1.280764   -0.429175
  C     -1.153468    0.773560    0.578381
  Cl    -2.007857   -0.687743   -0.036646
  H      2.795028   -1.744243   -0.183278
  H      3.801836   -0.880836    0.980010
  H      3.709878   -0.325390   -0.692219
  H      1.421151   -0.316832    1.325488
  H      2.322123    1.108898    0.804063
  H      0.597705   -0.664524   -0.983450
  H      1.583982    0.680022   -1.551643
  H     -0.649511    1.498385   -1.367617
  H      0.267702    2.217041   -0.038850
  H     -0.688449    0.477998    1.515933
  H     -1.928968    1.514417    0.763087

----------------------------
CARTESIAN COORDINATES (A.U.)
----------------------------
  NO LB      ZA    FRAG     MASS         X           Y           Z
   0 C     6.0000    0    12.011    5.933616   -1.436085    0.238128
   1 C     6.0000    0    12.011    3.696208    0.246231    0.918462
   2 C     6.0000    0    12.011    1.909469    0.578611   -1.324770
   3 C     6.0000    0    12.011   -0.258232    2.420293   -0.811024
   4 C     6.0000    0    12.011   -2.179738    1.461817    1.092981
   5 Cl   17.0000    0    35.453   -3.794300   -1.299646   -0.069251
   6 H     1.0000    0     1.008    5.281837   -3.296141   -0.346346
   7 H     1.0000    0     1.008    7.184428   -1.664539    1.851951
   8 H     1.0000    0     1.008    7.010653   -0.614897   -1.308104
   9 H     1.0000    0     1.008    2.685587   -0.598726    2.504810
  10 H     1.0000    0     1.008    4.388177    2.095513    1.519459
  11 H     1.0000    0     1.008    1.129498   -1.255768   -1.858450
  12 H     1.0000    0     1.008    2.993293    1.285056   -2.932181
  13 H     1.0000    0     1.008   -1.227399    2.831537   -2.584421
  14 H     1.0000    0     1.008    0.505884    4.189600   -0.073415
  15 H     1.0000    0     1.008   -1.300980    0.903286    2.864699
  16 H     1.0000    0     1.008   -3.645221    2.861833    1.442026

--------------------------------
INTERNAL COORDINATES (ANGSTROEM)
--------------------------------
 C      0   0   0     0.000000000000     0.00000000     0.00000000
 C      1   0   0     1.524455627167     0.00000000     0.00000000
 C      2   1   0     1.527756060371   111.37046816     0.00000000
 C      3   2   1     1.529555724754   113.53979239   184.60913869
 C      4   3   2     1.518664595643   114.03230132   291.15870931
 Cl     5   4   3     1.801012714550   111.22630370   295.71130446
 H      1   2   3     1.087872385856   110.44329997   300.29878431
 H      1   2   3     1.087217331586   110.62599815   180.27660840
 H      1   2   3     1.087738019652   110.56665089    60.13135030
 H      2   1   3     1.091158859642   108.84702699   121.41230207
 H      2   1   3     1.092192039833   109.36700634   239.08032255
 H      3   2   1     1.091968035591   109.42265821    62.33168104
 H      3   2   1     1.091889982055   108.64100014   305.18637609
 H      4   3   2     1.091355853319   109.06518570   169.31222958
 H      4   3   2     1.092002694535   109.39834102    51.28630458
 H      5   4   3     1.087475825829   112.11384046    54.28464382
 H      5   4   3     1.088294886277   111.24471954   178.04183020

---------------------------
INTERNAL COORDINATES (A.U.)
---------------------------
 C      0   0   0     0.000000000000     0.00000000     0.00000000
 C      1   0   0     2.880803638661     0.00000000     0.00000000
 C      2   1   0     2.887040553539   111.37046816     0.00000000
 C      3   2   1     2.890441426356   113.53979239   184.60913869
 C      4   3   2     2.869860175047   114.03230132   291.15870931
 Cl     5   4   3     3.403420794210   111.22630370   295.71130446
 H      1   2   3     2.055780877924   110.44329997   300.29878431
 H      1   2   3     2.054543004750   110.62599815   180.27660840
 H      1   2   3     2.055526962596   110.56665089    60.13135030
 H      2   1   3     2.061991413325   108.84702699   121.41230207
 H      2   1   3     2.063943840933   109.36700634   239.08032255
 H      3   2   1     2.063520534263   109.42265821    62.33168104
 H      3   2   1     2.063373034457   108.64100014   305.18637609
 H      4   3   2     2.062363677424   109.06518570   169.31222958
 H      4   3   2     2.063586030175   109.39834102    51.28630458
 H      5   4   3     2.055031488076   112.11384046    54.28464382
 H      5   4   3     2.056579288011   111.24471954   178.04183020

---------------------
BASIS SET INFORMATION
---------------------
There are 3 groups of distinct atoms

 Group   1 Type C   : 11s6p1d contracted to 5s3p1d pattern {62111/411/1}
 Group   2 Type Cl  : 14s9p2d contracted to 5s4p2d pattern {73211/6111/11}
 Group   3 Type H   : 4s1p contracted to 2s1p pattern {31/1}

Atom   0C    basis set group =>   1
Atom   1C    basis set group =>   1
Atom   2C    basis set group =>   1
Atom   3C    basis set group =>   1
Atom   4C    basis set group =>   1
Atom   5Cl   basis set group =>   2
Atom   6H    basis set group =>   3
Atom   7H    basis set group =>   3
Atom   8H    basis set group =>   3
Atom   9H    basis set group =>   3
Atom  10H    basis set group =>   3
Atom  11H    basis set group =>   3
Atom  12H    basis set group =>   3
Atom  13H    basis set group =>   3
Atom  14H    basis set group =>   3
Atom  15H    basis set group =>   3
Atom  16H    basis set group =>   3
---------------------------------
AUXILIARY/J BASIS SET INFORMATION
---------------------------------
There are 3 groups of distinct atoms

 Group   1 Type C   : 12s5p4d2f1g contracted to 6s4p3d1f1g pattern {711111/2111/211/2/1}
 Group   2 Type Cl  : 14s5p5d2f1g contracted to 8s4p3d1f1g pattern {71111111/2111/311/2/1}
 Group   3 Type H   : 5s2p1d contracted to 3s1p1d pattern {311/2/1}

Atom   0C    basis set group =>   1
Atom   1C    basis set group =>   1
Atom   2C    basis set group =>   1
Atom   3C    basis set group =>   1
Atom   4C    basis set group =>   1
Atom   5Cl   basis set group =>   2
Atom   6H    basis set group =>   3
Atom   7H    basis set group =>   3
Atom   8H    basis set group =>   3
Atom   9H    basis set group =>   3
Atom  10H    basis set group =>   3
Atom  11H    basis set group =>   3
Atom  12H    basis set group =>   3
Atom  13H    basis set group =>   3
Atom  14H    basis set group =>   3
Atom  15H    basis set group =>   3
Atom  16H    basis set group =>   3

Checking for AutoStart:
The File: sp_gas.gbw exists
Trying to determine its content:
     ... Fine, the file contains calculation information
     ... Fine, the calculation information was read
     ... Fine, the file contains a basis set
     ... Fine, the basis set was read
     ... Fine, the file contains a geometry
     ... Fine, the geometry was read
     ... Fine, the file contains a set of orbitals
     ... Fine, the orbitals can be read
     => possible old guess file was deleted
     => GBW file was renamed to GES file
     => GES file is set as startup file
     => Guess is set to MORead
     ... now leaving AutoStart

------------------------------------------------------------------------------
                             ORCA STARTUP CALCULATIONS
                           -- RI-GTO INTEGRALS CHOSEN --
------------------------------------------------------------------------------
------------------------------------------------------------------------------
                   ___                                                        
                  /   \      - P O W E R E D   B Y -                         
                 /     \                                                     
                 |  |  |   _    _      __       _____    __    __             
                 |  |  |  | |  | |    /  \     |  _  \  |  |  /  |          
                  \  \/   | |  | |   /    \    | | | |  |  | /  /          
                 / \  \   | |__| |  /  /\  \   | |_| |  |  |/  /          
                |  |  |   |  __  | /  /__\  \  |    /   |      \           
                |  |  |   | |  | | |   __   |  |    \   |  |\   \          
                \     /   | |  | | |  |  |  |  | |\  \  |  | \   \       
                 \___/    |_|  |_| |__|  |__|  |_| \__\ |__|  \__/        
                                                                              
                      - O R C A' S   B I G   F R I E N D -                    
                                      &                                       
                       - I N T E G R A L  F E E D E R -                       
                                                                              
 v1 FN, 2020, v2 2021, v3 2022-2024                                           
------------------------------------------------------------------------------


----------------------
SHARK INTEGRAL PACKAGE
----------------------

Number of atoms                             ...     17
Number of basis functions                   ...    177
Number of shells                            ...     89
Maximum angular momentum                    ...      2
Integral batch strategy                     ... SHARK/LIBINT Hybrid
RI-J (if used) integral strategy            ... SPLIT-RIJ (Revised 2003 algorithm where possible)
Printlevel                                  ...      1
Contraction scheme used                     ... SEGMENTED contraction
Prescreening option                         ... SCHWARTZ
   Thresh                                   ... 1.000e-10
   Tcut                                     ... 1.000e-11
   Tpresel                                  ... 1.000e-11 
Coulomb Range Separation                    ... NOT USED
Exchange Range Separation                   ... NOT USED
Multipole approximations                    ... NOT USED
Finite Nucleus Model                        ... NOT USED
CABS basis                                  ... NOT available
Auxiliary Coulomb fitting basis             ... AVAILABLE
   # of basis functions in Aux-J            ...    417
   # of shells in Aux-J                     ...    147
   Maximum angular momentum in Aux-J        ...      4
Auxiliary J/K fitting basis                 ... NOT available
Auxiliary Correlation fitting basis         ... NOT available
Auxiliary 'external' fitting basis          ... NOT available

Checking pre-screening integrals            ... done (  0.0 sec) Dimension = 89
Check shell pair data                       ... done (  0.0 sec)
Shell pair information
Shell pair cut-off parameter TPreSel        ...   1.0e-11
Total number of shell pairs                 ...      4005
Shell pairs after pre-screening             ...      3632
Total number of primitive shell pairs       ...     14718
Primitive shell pairs kept                  ...      9662
          la=0 lb=0:   1243 shell pairs
          la=1 lb=0:   1411 shell pairs
          la=1 lb=1:    425 shell pairs
          la=2 lb=0:    332 shell pairs
          la=2 lb=1:    194 shell pairs
          la=2 lb=2:     27 shell pairs

Calculating one electron integrals          ... done (  0.0 sec)
Calculating RI/J V-Matrix + Cholesky decomp.... done (  0.1 sec)
Calculating Nuclear repulsion               ... done (  0.0 sec) ENN=    297.033047835853 Eh

Diagonalization of the overlap matrix:
Smallest eigenvalue                        ... 2.032e-04
Time for diagonalization                   ...    0.003 sec
Threshold for overlap eigenvalues          ... 1.000e-07
Number of eigenvalues below threshold      ... 0
Time for construction of square roots      ...    0.012 sec
Total time needed                          ...    0.023 sec

-------------------
DFT GRID GENERATION
-------------------

General Integration Accuracy     IntAcc      ... 4.388
Radial Grid Type                 RadialGrid  ... OptM3 with GC (2021)
Angular Grid (max. ang.)         AngularGrid ... 4 (Lebedev-302)
Angular grid pruning method      GridPruning ... 4 (adaptive)
Weight generation scheme         WeightScheme... mBecke (2022)
Basis function cutoff            BFCut       ... 1.0000e-10
Integration weight cutoff        WCut        ... 1.0000e-14
Partially contracted basis set               ... off
Rotationally invariant grid construction     ... off
Angular grids for H and He will be reduced by one unit

Total number of grid points                  ...    72685
Total number of batches                      ...     1143
Average number of points per batch           ...       63
Average number of grid points per atom       ...     4276
Initializing property integral containers    ... done (  0.0 sec)

SHARK setup successfully completed in   1.0 seconds

Maximum memory used throughout the entire STARTUP-calculation: 32.6 MB
-------------------------------------------------------------------------------
                                 ORCA GUESS
                   Start orbitals & Density for SCF / CASSCF
-------------------------------------------------------------------------------

------------
SCF SETTINGS
------------
Hamiltonian:
 Density Functional     Method          .... DFT(GTOs)
  Functional kind                       .... Exchange
  Functional name                       .... Re-regularized SCAN exchange by Furness et al
  Functional family                     .... MGGA
  Functional refs                              
    [ 0] J. W. Furness, A. D. Kaplan, J. Ning, J. P. Perdew, and J. Sun.,  J. Phys. Chem. Lett. 11, 8208-8215 (2020), doi: 10.1021/acs.jpclett.0c02405
    [ 1] J. W. Furness, A. D. Kaplan, J. Ning, J. P. Perdew, and J. Sun.,  J. Phys. Chem. Lett. 11, 9248-9248 (2020), doi: 10.1021/acs.jpclett.0c03077
  Functional external parameters        .... 6
    Parameter  0 _c1        =  6.670000e-01 : c1 parameter        
    Parameter  1 _c2        =  8.000000e-01 : c2 parameter        
    Parameter  2 _d         =  1.240000e+00 : d parameter         
    Parameter  3 _k1        =  6.500000e-02 : k1 parameter        
    Parameter  4 _eta       =  1.000000e-03 : eta parameter       
    Parameter  5 _dp2       =  3.610000e-01 : dp2 parameter       
  Functional kind                       .... Correlation
  Functional name                       .... Re-regularized SCAN correlation by Furness et al
  Functional family                     .... MGGA
  Functional refs                              
    [ 0] J. W. Furness, A. D. Kaplan, J. Ning, J. P. Perdew, and J. Sun.,  J. Phys. Chem. Lett. 11, 8208-8215 (2020), doi: 10.1021/acs.jpclett.0c02405
    [ 1] J. W. Furness, A. D. Kaplan, J. Ning, J. P. Perdew, and J. Sun.,  J. Phys. Chem. Lett. 11, 9248-9248 (2020), doi: 10.1021/acs.jpclett.0c03077
  Functional external parameters        .... 1
    Parameter  0 _eta       =  1.000000e-03 : Regularization parameter
 Gradients option       PostSCFGGA      .... off
 RI-approximation to the Coulomb term is turned on
   Number of AuxJ basis functions       .... 417


General Settings:
 Integral files         IntName         .... sp_gas
 Hartree-Fock type      HFTyp           .... RHF
 Total Charge           Charge          ....    0
 Multiplicity           Mult            ....    1
 Number of Electrons    NEL             ....   58
 Basis Dimension        Dim             ....  177
 Nuclear Repulsion      ENuc            ....    297.0330478359 Eh

Convergence Acceleration:
 AO-DIIS                CNVDIIS         .... on
   Start iteration      DIISMaxIt       ....    12
   Startup error        DIISStart       ....  0.200000
   # of expansion vecs  DIISMaxEq       ....     5
   Bias factor          DIISBfac        ....   1.050
   Max. coefficient     DIISMaxC        ....  10.000
 MO-DIIS                CNVKDIIS        .... off
 Trust-Rad. Augm. Hess. CNVTRAH         .... auto
   Auto Start mean grad. ratio tolernc. ....  1.125000
   Auto Start start iteration           ....     1
   Auto Start num. interpolation iter.  ....    10
   Max. Number of Micro iterations      ....    24
   Max. Number of Macro iterations      .... Maxiter - #DIIS iter
   Number of Davidson start vectors     ....     2
   Converg. threshold    (grad. norm)   ....   3.330e-04
   Grad. Scal. Fac. for Micro threshold ....   0.100
   Minimum threshold for Micro iter.    ....   1.000e-02
   NR start threshold (gradient norm)   ....   1.000e-04
   Initial trust radius                 ....   0.400
   Minimum AH scaling param. (alpha)    ....   1.000
   Maximum AH scaling param. (alpha)    .... 1000.000
   Quad. conv. algorithm                .... NR
   White noise on init. David. guess    .... on
   Maximum white noise                  ....   0.010
   Pseudo random numbers                .... off
   Inactive MOs                         .... canonical
   Orbital update algorithm             .... Taylor
   Preconditioner                       .... Diag
   Full preconditioner red. dimension   ....   250
   COSX micro iterations for RIJONX calc.... off
 SOSCF                  CNVSOSCF        .... on
   Start iteration      SOSCFMaxIt      ....   150
   Startup grad/error   SOSCFStart      ....  0.003300
   Hessian update       SOSCFHessUp     .... L-BFGS
 Level Shifting         CNVShift        .... on
   Level shift para.    LevelShift      ....    0.2500
   Turn off err/grad.   ShiftErr        ....    0.0010
 Zerner damping         CNVZerner       .... off
 Static damping         CNVDamp         .... on
   Fraction old density DampFac         ....    0.7000
   Max. Damping (<1)    DampMax         ....    0.9800
   Min. Damping (>=0)   DampMin         ....    0.0000
   Turn off err/grad.   DampErr         ....    0.1000

SCF Procedure:
 Maximum # iterations   MaxIter         ....   125
 SCF integral mode      SCFMode         .... Direct
   Integral package                     .... SHARK and LIBINT hybrid scheme
 Reset frequency        DirectResetFreq ....    20
 Integral Threshold     Thresh          ....  1.000e-10 Eh
 Primitive CutOff       TCut            ....  1.000e-11 Eh

Convergence Tolerance:
 Convergence Check Mode ConvCheckMode   .... Total+1el-Energy
 Convergence forced     ConvForced      .... 0
 Energy Change          TolE            ....  1.000e-06 Eh
 1-El. energy change                    ....  1.000e-03 Eh
 Orbital Gradient       TolG            ....  3.330e-04
 Orbital Rotation angle TolX            ....  3.330e-04
 DIIS Error             TolErr          ....  1.000e-06

---------------------
INITIAL GUESS: MOREAD
---------------------
Guess MOs are being read from file: sp_gas.ges
Input Geometry matches current geometry (good)
Atom 0: N(Shells)= 9 and 6 - projection required
Input basis set needs projection
NBasis(read)= 110
NBasis(calc)= 177
Basis set overlap was calculated
Using GuessMode=FMatrix for the initial guess
C*T matrix was formed
Effective Fockian was calculated
Effective Fockian was diagonalized
Initial density was built
                      ------------------
                      INITIAL GUESS DONE (   0.0 sec)
                      ------------------
             **** ENERGY FILE WAS UPDATED (sp_gas.en.tmp) ****
Finished Guess after   0.3 sec
Maximum memory used throughout the entire GUESS-calculation: 11.9 MB

-------------------------------------------------------------------------------------------
                                      ORCA LEAN-SCF
                              memory conserving SCF solver
-------------------------------------------------------------------------------------------

----------------------------------------D-I-I-S--------------------------------------------
Iteration    Energy (Eh)           Delta-E    RMSDP     MaxDP     DIISErr   Damp  Time(sec)
-------------------------------------------------------------------------------------------
               ***  Starting incremental Fock matrix formation  ***
    1    -657.1461710990521397     0.00e+00  3.75e-03  1.21e-01  5.38e-01  0.700   1.9
    2    -657.1841338447233056    -3.80e-02  3.07e-03  9.30e-02  3.77e-01  0.700   1.9
    3    -657.2110318584996094    -2.69e-02  2.25e-03  6.80e-02  2.64e-01  0.700   1.8
                               ***Turning on AO-DIIS***
    4    -657.2299231450448360    -1.89e-02  1.64e-03  4.88e-02  1.85e-01  0.700   1.7
    5    -657.2431767422890516    -1.33e-02  1.16e-03  3.45e-02  1.29e-01  0.700   1.8
    6    -657.2524705486902121    -9.29e-03  8.22e-04  2.42e-02  9.05e-02  0.700   1.7
    7    -657.2589849290513939    -6.51e-03  1.93e-03  5.67e-02  6.33e-02  0.000   1.7
                              *** Initializing SOSCF ***
---------------------------------------S-O-S-C-F--------------------------------------
Iteration    Energy (Eh)           Delta-E    RMSDP     MaxDP     MaxGrad    Time(sec)
--------------------------------------------------------------------------------------
    8    -657.2742139826232233    -1.52e-02  1.22e-05  2.94e-04  1.07e-04     1.9
               *** Restarting incremental Fock matrix formation ***
    9    -657.2742140596322997    -7.70e-08  5.20e-06  1.41e-04  1.39e-05     1.9
                  *** Gradient check signals convergence ***

               *****************************************************
               *                     SUCCESS                       *
               *           SCF CONVERGED AFTER   9 CYCLES          *
               *****************************************************

             **** ENERGY FILE WAS UPDATED (sp_gas.en.tmp) ****

----------------
TOTAL SCF ENERGY
----------------

Total Energy       :       -657.27421405963230 Eh          -17885.34064 eV

Components:
Nuclear Repulsion  :        297.03304783585338 Eh            8082.68015 eV
Electronic Energy  :       -954.30726189548568 Eh          -25968.02078 eV
One Electron Energy:      -1489.03072403166379 Eh          -40518.58593 eV
Two Electron Energy:        534.72346213617811 Eh           14550.56514 eV

Virial components:
Potential Energy   :      -1312.54765760445116 Eh          -35716.23754 eV
Kinetic Energy     :        655.27344354481886 Eh           17830.89690 eV
Virial Ratio       :          2.00305333679325

DFT components:
N(Alpha)           :       29.000046400706 electrons
N(Beta)            :       29.000046400706 electrons
N(Total)           :       58.000092801411 electrons
E(X)               :      -57.489828555294 Eh       
E(C)               :       -1.922377813283 Eh       
E(XC)              :      -59.412206368577 Eh       

---------------
SCF CONVERGENCE
---------------

  Last Energy change         ...    7.7009e-08  Tolerance :   1.0000e-06
  Last MAX-Density change    ...    1.4085e-04  Tolerance :   1.0000e-05
  Last RMS-Density change    ...    5.1961e-06  Tolerance :   1.0000e-06
  Last DIIS Error            ...    1.0661e-04  Tolerance :   1.0000e-06
  Last Orbital Gradient      ...    1.3900e-05  Tolerance :   3.3300e-04
  Last Orbital Rotation      ...    1.9127e-05  Tolerance :   3.3300e-04


----------------
ORBITAL ENERGIES
----------------

  NO   OCC          E(Eh)            E(eV) 
   0   2.0000    -101.197444     -2753.7224 
   1   2.0000     -10.091073      -274.5921 
   2   2.0000     -10.041145      -273.2334 
   3   2.0000     -10.028974      -272.9023 
   4   2.0000     -10.027771      -272.8695 
   5   2.0000     -10.018551      -272.6186 
   6   2.0000      -9.353472      -254.5209 
   7   2.0000      -7.099592      -193.1897 
   8   2.0000      -7.089581      -192.9173 
   9   2.0000      -7.089538      -192.9161 
  10   2.0000      -0.822150       -22.3718 
  11   2.0000      -0.765426       -20.8283 
  12   2.0000      -0.710932       -19.3454 
  13   2.0000      -0.641061       -17.4442 
  14   2.0000      -0.581577       -15.8255 
  15   2.0000      -0.537815       -14.6347 
  16   2.0000      -0.453206       -12.3324 
  17   2.0000      -0.442621       -12.0443 
  18   2.0000      -0.416258       -11.3270 
  19   2.0000      -0.397831       -10.8255 
  20   2.0000      -0.375881       -10.2282 
  21   2.0000      -0.368993       -10.0408 
  22   2.0000      -0.342255        -9.3132 
  23   2.0000      -0.329950        -8.9784 
  24   2.0000      -0.307948        -8.3797 
  25   2.0000      -0.300499        -8.1770 
  26   2.0000      -0.294452        -8.0124 
  27   2.0000      -0.263928        -7.1818 
  28   2.0000      -0.261776        -7.1233 
  29   0.0000       0.009152         0.2490 
  30   0.0000       0.081680         2.2226 
  31   0.0000       0.104759         2.8506 
  32   0.0000       0.114252         3.1090 
  33   0.0000       0.122306         3.3281 
  34   0.0000       0.134073         3.6483 
  35   0.0000       0.136329         3.7097 
  36   0.0000       0.145826         3.9681 
  37   0.0000       0.158288         4.3072 
  38   0.0000       0.168866         4.5951 
  39   0.0000       0.185359         5.0439 
*Only the first 10 virtual orbitals were printed.

                    ********************************
                    * MULLIKEN POPULATION ANALYSIS *
                    ********************************

-----------------------
MULLIKEN ATOMIC CHARGES
-----------------------
   0 C :   -0.468082
   1 C :   -0.249689
   2 C :   -0.280894
   3 C :   -0.241536
   4 C :   -0.183307
   5 Cl:   -0.209500
   6 H :    0.144832
   7 H :    0.146359
   8 H :    0.142130
   9 H :    0.135900
  10 H :    0.136408
  11 H :    0.160403
  12 H :    0.143233
  13 H :    0.160152
  14 H :    0.140503
  15 H :    0.157964
  16 H :    0.165124
Sum of atomic charges:   -0.0000000

--------------------------------
MULLIKEN REDUCED ORBITAL CHARGES
--------------------------------
  0 C s       :     3.328373  s :     3.328373
      pz      :     1.083391  p :     3.112579
      px      :     0.998442
      py      :     1.030746
      dz2     :     0.003545  d :     0.027130
      dxz     :     0.008534
      dyz     :     0.003579
      dx2y2   :     0.005629
      dxy     :     0.005842

  1 C s       :     3.216214  s :     3.216214
      pz      :     0.989272  p :     2.996381
      px      :     0.970591
      py      :     1.036518
      dz2     :     0.006304  d :     0.037094
      dxz     :     0.010211
      dyz     :     0.006102
      dx2y2   :     0.006579
      dxy     :     0.007898

  2 C s       :     3.233972  s :     3.233972
      pz      :     1.000270  p :     3.010471
      px      :     0.971050
      py      :     1.039151
      dz2     :     0.006570  d :     0.036451
      dxz     :     0.010012
      dyz     :     0.005392
      dx2y2   :     0.005830
      dxy     :     0.008646

  3 C s       :     3.196607  s :     3.196607
      pz      :     1.039069  p :     3.008290
      px      :     0.970176
      py      :     0.999044
      dz2     :     0.005898  d :     0.036639
      dxz     :     0.010275
      dyz     :     0.005488
      dx2y2   :     0.006719
      dxy     :     0.008258

  4 C s       :     3.251736  s :     3.251736
      pz      :     0.999456  p :     2.890456
      px      :     1.018835
      py      :     0.872165
      dz2     :     0.008346  d :     0.041114
      dxz     :     0.008475
      dyz     :     0.006725
      dx2y2   :     0.005782
      dxy     :     0.011786

  5 Cls       :     5.951590  s :     5.951590
      pz      :     3.880113  p :    11.213123
      px      :     3.811767
      py      :     3.521243
      dz2     :     0.006333  d :     0.044787
      dxz     :     0.005520
      dyz     :     0.009357
      dx2y2   :     0.010167
      dxy     :     0.013410

  6 H s       :     0.836909  s :     0.836909
      pz      :     0.004327  p :     0.018258
      px      :     0.004233
      py      :     0.009698

  7 H s       :     0.835321  s :     0.835321
      pz      :     0.008038  p :     0.018320
      px      :     0.006460
      py      :     0.003822

  8 H s       :     0.839601  s :     0.839601
      pz      :     0.007867  p :     0.018269
      px      :     0.005703
      py      :     0.004699

  9 H s       :     0.846054  s :     0.846054
      pz      :     0.007965  p :     0.018046
      px      :     0.005311
      py      :     0.004770

 10 H s       :     0.845758  s :     0.845758
      pz      :     0.004199  p :     0.017835
      px      :     0.004259
      py      :     0.009377

 11 H s       :     0.821442  s :     0.821442
      pz      :     0.003931  p :     0.018154
      px      :     0.004706
      py      :     0.009517

 12 H s       :     0.838859  s :     0.838859
      pz      :     0.008146  p :     0.017908
      px      :     0.005457
      py      :     0.004305

 13 H s       :     0.822009  s :     0.822009
      pz      :     0.009102  p :     0.017839
      px      :     0.005029
      py      :     0.003708

 14 H s       :     0.841504  s :     0.841504
      pz      :     0.004326  p :     0.017993
      px      :     0.004524
      py      :     0.009143

 15 H s       :     0.823816  s :     0.823816
      pz      :     0.009681  p :     0.018220
      px      :     0.004970
      py      :     0.003569

 16 H s       :     0.816904  s :     0.816904
      pz      :     0.003679  p :     0.017972
      px      :     0.007443
      py      :     0.006850


------------------------
MULLIKEN OVERLAP CHARGES
------------------------
B(  0-C ,  1-C ) :   0.4773 B(  0-C ,  2-C ) :  -0.1720 B(  0-C ,  6-H ) :   0.8454 
B(  0-C ,  7-H ) :   0.8079 B(  0-C ,  8-H ) :   0.8653 B(  0-C , 10-H ) :  -0.0662 
B(  1-C ,  2-C ) :   0.3958 B(  1-C ,  3-C ) :  -0.1432 B(  1-C ,  6-H ) :  -0.0836 
B(  1-C ,  7-H ) :  -0.0798 B(  1-C ,  8-H ) :  -0.0990 B(  1-C ,  9-H ) :   0.8296 
B(  1-C , 10-H ) :   0.8619 B(  1-C , 11-H ) :  -0.0690 B(  1-C , 12-H ) :  -0.0728 
B(  2-C ,  3-C ) :   0.3658 B(  2-C ,  4-C ) :  -0.1648 B(  2-C ,  9-H ) :  -0.0768 
B(  2-C , 10-H ) :  -0.1068 B(  2-C , 11-H ) :   0.8375 B(  2-C , 12-H ) :   0.8342 
B(  2-C , 13-H ) :  -0.0975 B(  2-C , 14-H ) :  -0.0997 B(  3-C ,  4-C ) :   0.4463 
B(  3-C ,  5-Cl) :  -0.1080 B(  3-C , 11-H ) :  -0.0765 B(  3-C , 12-H ) :  -0.0973 
B(  3-C , 13-H ) :   0.8441 B(  3-C , 14-H ) :   0.8216 B(  3-C , 15-H ) :  -0.0902 
B(  3-C , 16-H ) :  -0.0968 B(  4-C ,  5-Cl) :   0.4579 B(  4-C , 13-H ) :  -0.0530 
B(  4-C , 14-H ) :  -0.0608 B(  4-C , 15-H ) :   0.8685 B(  4-C , 16-H ) :   0.8292 
B(  5-Cl, 15-H ) :  -0.0871 B(  5-Cl, 16-H ) :  -0.0824 B(  6-H ,  8-H ) :  -0.0528 
B(  9-H , 10-H ) :  -0.0556 B( 15-H , 16-H ) :  -0.0568 


                     *******************************
                     * LOEWDIN POPULATION ANALYSIS *
                     *******************************

----------------------
LOEWDIN ATOMIC CHARGES
----------------------
   0 C :   -0.422825
   1 C :   -0.317369
   2 C :   -0.318742
   3 C :   -0.326845
   4 C :   -0.318248
   5 Cl:   -0.008240
   6 H :    0.151861
   7 H :    0.150336
   8 H :    0.149699
   9 H :    0.150007
  10 H :    0.149985
  11 H :    0.163339
  12 H :    0.156603
  13 H :    0.163491
  14 H :    0.162520
  15 H :    0.156816
  16 H :    0.157610

-------------------------------
LOEWDIN REDUCED ORBITAL CHARGES
-------------------------------
  0 C s       :     2.974088  s :     2.974088
      pz      :     1.151592  p :     3.385272
      px      :     1.103722
      py      :     1.129959
      dz2     :     0.008533  d :     0.063465
      dxz     :     0.020414
      dyz     :     0.008436
      dx2y2   :     0.012151
      dxy     :     0.013930

  1 C s       :     2.938215  s :     2.938215
      pz      :     1.103267  p :     3.298767
      px      :     1.074562
      py      :     1.120937
      dz2     :     0.013370  d :     0.080388
      dxz     :     0.022814
      dyz     :     0.013054
      dx2y2   :     0.013455
      dxy     :     0.017695

  2 C s       :     2.936587  s :     2.936587
      pz      :     1.101134  p :     3.303079
      px      :     1.078274
      py      :     1.123671
      dz2     :     0.014128  d :     0.079076
      dxz     :     0.022502
      dyz     :     0.010917
      dx2y2   :     0.011872
      dxy     :     0.019656

  3 C s       :     2.945162  s :     2.945162
      pz      :     1.114158  p :     3.301816
      px      :     1.080246
      py      :     1.107411
      dz2     :     0.012947  d :     0.079867
      dxz     :     0.023073
      dyz     :     0.011886
      dx2y2   :     0.013369
      dxy     :     0.018593

  4 C s       :     2.992718  s :     2.992718
      pz      :     1.114109  p :     3.235321
      px      :     1.100620
      py      :     1.020592
      dz2     :     0.017688  d :     0.090210
      dxz     :     0.019919
      dyz     :     0.014239
      dx2y2   :     0.011174
      dxy     :     0.027189

  5 Cls       :     5.701048  s :     5.701048
      pz      :     3.868472  p :    11.207667
      px      :     3.797788
      py      :     3.541407
      dz2     :     0.013462  d :     0.099525
      dxz     :     0.011543
      dyz     :     0.021414
      dx2y2   :     0.022024
      dxy     :     0.031081

  6 H s       :     0.804764  s :     0.804764
      pz      :     0.009667  p :     0.043374
      px      :     0.009841
      py      :     0.023866

  7 H s       :     0.806188  s :     0.806188
      pz      :     0.019787  p :     0.043476
      px      :     0.015279
      py      :     0.008411

  8 H s       :     0.807024  s :     0.807024
      pz      :     0.019032  p :     0.043276
      px      :     0.013251
      py      :     0.010993

  9 H s       :     0.806446  s :     0.806446
      pz      :     0.019306  p :     0.043547
      px      :     0.012883
      py      :     0.011358

 10 H s       :     0.806974  s :     0.806974
      pz      :     0.009793  p :     0.043040
      px      :     0.010195
      py      :     0.023053

 11 H s       :     0.791934  s :     0.791934
      pz      :     0.009459  p :     0.044727
      px      :     0.011254
      py      :     0.024014

 12 H s       :     0.800019  s :     0.800019
      pz      :     0.019849  p :     0.043378
      px      :     0.013132
      py      :     0.010397

 13 H s       :     0.792806  s :     0.792806
      pz      :     0.022858  p :     0.043703
      px      :     0.012202
      py      :     0.008643

 14 H s       :     0.793830  s :     0.793830
      pz      :     0.010339  p :     0.043650
      px      :     0.010905
      py      :     0.022406

 15 H s       :     0.798005  s :     0.798005
      pz      :     0.024409  p :     0.045178
      px      :     0.012414
      py      :     0.008355

 16 H s       :     0.797773  s :     0.797773
      pz      :     0.008701  p :     0.044617
      px      :     0.018550
      py      :     0.017367


---------------------------------
LOEWDIN BOND ORDERS (THRESH 0.050000)
---------------------------------
B(  0-C ,  1-C ) :   1.1447 B(  0-C ,  2-C ) :   0.0759 B(  0-C ,  6-H ) :   0.9293 
B(  0-C ,  7-H ) :   0.9306 B(  0-C ,  8-H ) :   0.9294 B(  1-C ,  2-C ) :   1.1016 
B(  1-C ,  3-C ) :   0.0677 B(  1-C ,  9-H ) :   0.8938 B(  1-C , 10-H ) :   0.8962 
B(  2-C ,  3-C ) :   1.1074 B(  2-C ,  4-C ) :   0.0623 B(  2-C , 11-H ) :   0.8859 
B(  2-C , 12-H ) :   0.8887 B(  3-C ,  4-C ) :   1.1274 B(  3-C ,  5-Cl) :   0.1161 
B(  3-C , 13-H ) :   0.8888 B(  3-C , 14-H ) :   0.8770 B(  4-C ,  5-Cl) :   1.3412 
B(  4-C , 15-H ) :   0.8933 B(  4-C , 16-H ) :   0.8971 

------------------------------------------
LOEWDIN REDUCED ORBITAL POPULATIONS PER MO
-------------------------------------------
THRESHOLD FOR PRINTING IS 0.1%%
                      0         1         2         3         4         5   
                 -101.19744 -10.09107 -10.04115 -10.02897 -10.02777 -10.01855
                   2.00000   2.00000   2.00000   2.00000   2.00000   2.00000
                  --------  --------  --------  --------  --------  --------
 0 C  s               0.0       0.0       0.0       0.0       0.0      99.7
 1 C  s               0.0       0.0       0.0      99.4       0.3       0.0
 2 C  s               0.0       0.0       0.0       0.3      99.4       0.0
 3 C  s               0.0       0.0      99.7       0.0       0.0       0.0
 4 C  s               0.0      99.7       0.0       0.0       0.0       0.0
 5 Cl s             100.0       0.0       0.0       0.0       0.0       0.0

                      6         7         8         9        10        11   
                  -9.35347  -7.09959  -7.08958  -7.08954  -0.82215  -0.76543
                   2.00000   2.00000   2.00000   2.00000   2.00000   2.00000
                  --------  --------  --------  --------  --------  --------
 0 C  s               0.0       0.0       0.0       0.0       0.2       9.3
 0 C  px              0.0       0.0       0.0       0.0       0.1       1.6
 0 C  py              0.0       0.0       0.0       0.0       0.0       0.8
 1 C  s               0.0       0.0       0.0       0.0       1.2      19.8
 1 C  pz              0.0       0.0       0.0       0.0       0.2       1.4
 1 C  px              0.0       0.0       0.0       0.0       0.3       0.1
 2 C  s               0.0       0.0       0.0       0.0       3.6      18.4
 2 C  pz              0.0       0.0       0.0       0.0       0.3       1.3
 2 C  px              0.0       0.0       0.0       0.0       1.0       0.4
 2 C  py              0.0       0.0       0.0       0.0       0.2       0.1
 3 C  s               0.0       0.0       0.0       0.0       9.9       6.7
 3 C  pz              0.0       0.0       0.0       0.0       0.9       0.1
 3 C  px              0.0       0.0       0.0       0.0       0.9       2.8
 3 C  py              0.0       0.0       0.0       0.0       1.3       0.4
 4 C  s               0.0       0.0       0.0       0.0      23.5       0.2
 4 C  pz              0.0       0.0       0.0       0.0       1.7       0.1
 4 C  px              0.0       0.0       0.0       0.0       0.3       3.1
 4 C  py              0.1       0.0       0.0       0.0       2.8       2.1
 4 C  dxy             0.0       0.0       0.0       0.0       0.1       0.0
 5 Cl s              99.8       0.0       0.0       0.0      38.4      13.3
 5 Cl pz              0.0      12.8      81.5       5.8       0.3       0.0
 5 Cl px              0.0      22.4      15.7      61.9       0.6       0.0
 5 Cl py              0.0      64.9       2.8      32.3       1.6       0.1
 5 Cl dyz             0.0       0.0       0.0       0.0       0.1       0.0
 5 Cl dxy             0.0       0.0       0.0       0.0       0.3       0.0
 6 H  s               0.0       0.0       0.0       0.0       0.0       1.2
 7 H  s               0.0       0.0       0.0       0.0       0.0       1.2
 8 H  s               0.0       0.0       0.0       0.0       0.0       1.3
 9 H  s               0.0       0.0       0.0       0.0       0.1       2.7
 9 H  pz              0.0       0.0       0.0       0.0       0.0       0.1
10 H  s               0.0       0.0       0.0       0.0       0.1       2.7
10 H  py              0.0       0.0       0.0       0.0       0.0       0.2
11 H  s               0.0       0.0       0.0       0.0       0.5       2.3
11 H  py              0.0       0.0       0.0       0.0       0.0       0.2
12 H  s               0.0       0.0       0.0       0.0       0.4       2.6
12 H  pz              0.0       0.0       0.0       0.0       0.0       0.2
13 H  s               0.0       0.0       0.0       0.0       1.1       0.9
14 H  s               0.0       0.0       0.0       0.0       1.1       1.0
15 H  s               0.0       0.0       0.0       0.0       2.8       0.0
15 H  pz              0.0       0.0       0.0       0.0       0.2       0.0
16 H  s               0.0       0.0       0.0       0.0       2.8       0.0
16 H  px              0.0       0.0       0.0       0.0       0.1       0.0
16 H  py              0.0       0.0       0.0       0.0       0.1       0.0

                     12        13        14        15        16        17   
                  -0.71093  -0.64106  -0.58158  -0.53781  -0.45321  -0.44262
                   2.00000   2.00000   2.00000   2.00000   2.00000   2.00000
                  --------  --------  --------  --------  --------  --------
 0 C  s              15.3      12.1       9.6       1.1       0.1       0.2
 0 C  pz              0.1       0.0       0.5       2.0       1.4       0.5
 0 C  px              0.4       0.6       3.2       0.8       0.1       3.4
 0 C  py              0.2       0.2       1.8       1.3       4.0       0.0
 1 C  s               8.7       0.1       8.9       6.4       0.1       0.8
 1 C  pz              0.0       1.2       1.1       8.0       3.9       0.4
 1 C  px              3.1       5.0       2.6       0.2       3.9       0.1
 1 C  py              1.2       1.4       1.2       1.5       6.3       3.9
 1 C  dxz             0.0       0.1       0.0       0.1       0.0       0.0
 2 C  s               0.8      13.1       0.0       8.5       0.1       0.0
 2 C  pz              0.4       0.4       3.3       5.5       3.6       1.1
 2 C  px              4.9       0.0       2.9       0.1      11.0       0.2
 2 C  py              2.1       0.0       1.1       3.6       5.0       6.4
 2 C  dz2             0.0       0.0       0.1       0.0       0.0       0.0
 3 C  s              16.0       0.3       7.1       5.2       0.2       0.0
 3 C  pz              0.1       3.1       3.9       0.0       1.0       8.3
 3 C  px              0.1       6.4       0.2       0.2       0.1      14.3
 3 C  py              0.1       1.1       0.8       5.7       9.0       0.9
 3 C  dxy             0.0       0.1       0.0       0.1       0.0       0.0
 4 C  s               3.2      12.3       5.8       3.0       0.1       0.1
 4 C  pz              0.3       0.8       5.2       3.5       0.5      14.3
 4 C  px              3.4       0.1       0.3       0.8      13.4       8.9
 4 C  py              4.1       2.9       0.0       0.4       6.3       2.0
 4 C  dxz             0.1       0.0       0.0       0.0       0.0       0.1
 5 Cl s              14.4       9.2       2.9       2.3       0.1       1.0
 5 Cl pz              0.0       0.4       0.8       0.7       0.1       0.9
 5 Cl px              0.2       0.4       0.3       0.6       3.0       0.1
 5 Cl py              0.4       1.9       1.2       1.4       0.3       5.6
 5 Cl dz2             0.0       0.0       0.0       0.0       0.0       0.2
 5 Cl dyz             0.0       0.1       0.2       0.2       0.0       0.0
 5 Cl dx2y2           0.0       0.1       0.0       0.0       0.3       0.2
 5 Cl dxy             0.1       0.2       0.1       0.1       0.1       0.0
 6 H  s               2.6       2.9       3.6       1.2       1.0       0.0
 6 H  py              0.2       0.2       0.2       0.1       0.0       0.0
 7 H  s               2.7       3.4       3.6       0.2       0.4       0.3
 7 H  pz              0.1       0.2       0.2       0.0       0.0       0.0
 8 H  s               2.6       2.8       3.8       1.1       0.8       1.2
 8 H  pz              0.1       0.1       0.2       0.0       0.0       0.0
 9 H  s               1.4       0.0       4.1       3.9       3.4       1.0
 9 H  pz              0.1       0.0       0.2       0.1       0.1       0.0
 9 H  px              0.0       0.0       0.0       0.1       0.0       0.1
10 H  s               1.4       0.0       3.3       5.1       2.0       0.1
10 H  py              0.1       0.0       0.2       0.3       0.0       0.0
11 H  s               0.1       3.2       0.0       6.1       1.7       2.0
11 H  py              0.0       0.2       0.0       0.3       0.0       0.0
12 H  s               0.1       3.5       0.1       4.9       5.5       0.0
12 H  pz              0.0       0.2       0.0       0.1       0.2       0.0
13 H  s               2.9       0.1       4.1       2.6       0.3       5.0
13 H  pz              0.2       0.0       0.2       0.2       0.0       0.2
14 H  s               3.1       0.2       2.2       4.7       1.4       4.0
14 H  py              0.2       0.0       0.1       0.2       0.0       0.2
15 H  s               0.6       3.6       4.2       2.5       0.7       8.1
15 H  pz              0.0       0.2       0.2       0.1       0.1       0.2
16 H  s               0.6       4.3       2.7       1.7       7.6       2.5
16 H  pz              0.0       0.0       0.0       0.0       0.0       0.1
16 H  px              0.0       0.2       0.1       0.0       0.1       0.0
16 H  py              0.0       0.1       0.1       0.1       0.1       0.0

                     18        19        20        21        22        23   
                  -0.41626  -0.39783  -0.37588  -0.36899  -0.34225  -0.32995
                   2.00000   2.00000   2.00000   2.00000   2.00000   2.00000
                  --------  --------  --------  --------  --------  --------
 0 C  pz              1.1      17.6       6.3       0.1      19.4       0.7
 0 C  px              6.7       0.2      11.8       3.2       4.1       2.4
 0 C  py              7.1       3.9       1.7      10.1       0.4      14.7
 0 C  dxz             0.0       0.1       0.0       0.0       0.2       0.0
 0 C  dx2y2           0.0       0.0       0.0       0.0       0.0       0.2
 0 C  dxy             0.0       0.0       0.0       0.1       0.1       0.0
 1 C  s               0.0       0.1       0.2       0.1       0.1       0.0
 1 C  pz              1.1      11.6       1.4       0.0       1.9       0.6
 1 C  px              5.5       0.1       0.1       9.2       4.4       0.0
 1 C  py             10.0       1.4       2.4       2.5       1.0       5.1
 1 C  dx2y2           0.0       0.0       0.0       0.0       0.0       0.2
 1 C  dxy             0.0       0.0       0.0       0.0       0.1       0.0
 2 C  s               0.0       0.2       0.8       0.5       0.0       0.0
 2 C  pz              1.2       5.1       0.0       9.3       2.5       1.5
 2 C  px              1.3       1.9       2.7       0.2       6.1       0.9
 2 C  py              3.6       1.8       2.0       4.4       0.4       8.6
 2 C  dxz             0.0       0.0       0.0       0.0       0.1       0.0
 2 C  dx2y2           0.1       0.1       0.0       0.0       0.0       0.2
 3 C  s               0.0       0.1       0.2       0.1       0.0       0.1
 3 C  pz              3.8       8.3       5.4       2.1      10.8       0.6
 3 C  px              0.0       4.5       0.2       6.3       0.3       2.5
 3 C  py              8.1       1.1       3.3       0.9       0.7       8.9
 3 C  dz2             0.0       0.0       0.0       0.3       0.0       0.1
 3 C  dxz             0.0       0.0       0.2       0.0       0.2       0.1
 3 C  dx2y2           0.0       0.0       0.0       0.0       0.0       0.2
 3 C  dxy             0.0       0.1       0.0       0.0       0.2       0.0
 4 C  s               0.2       0.2       0.1       0.1       0.4       0.4
 4 C  pz              1.1      10.1       0.5       5.5       5.7       0.0
 4 C  px              0.2       4.8       0.2       8.9       2.1       3.0
 4 C  py             10.7       0.1      14.7       0.2       0.4       1.8
 4 C  dz2             0.0       0.0       0.0       0.2       0.0       0.1
 4 C  dyz             0.0       0.0       0.0       0.2       0.0       0.0
 4 C  dxy             0.0       0.1       0.1       0.0       0.2       0.1
 5 Cl s               1.9       0.0       1.0       0.5       0.0       0.2
 5 Cl pz              0.8       2.4       7.1       0.2       0.3       5.8
 5 Cl px              6.2       0.9       4.7       0.1       2.8       0.9
 5 Cl py              6.1       0.0       6.6      14.0       1.7       4.4
 5 Cl dxz             0.0       0.0       0.1       0.0       0.0       0.0
 5 Cl dyz             0.0       0.1       0.1       0.0       0.0       0.1
 5 Cl dx2y2           0.0       0.0       0.0       0.2       0.0       0.0
 5 Cl dxy             0.3       0.1       0.1       0.0       0.1       0.0
 6 H  s               4.2       0.1       3.7       3.0       0.0      10.4
 6 H  pz              0.0       0.1       0.0       0.0       0.2       0.0
 6 H  py              0.1       0.0       0.1       0.0       0.0       0.1
 7 H  s               1.6       5.9       7.3       0.9       3.3       1.0
 7 H  pz              0.0       0.0       0.1       0.0       0.0       0.0
 7 H  px              0.0       0.1       0.0       0.0       0.2       0.0
 7 H  py              0.1       0.0       0.0       0.1       0.0       0.1
 8 H  s               1.1       5.2       0.1       0.0      11.9       1.7
 8 H  pz              0.1       0.0       0.1       0.0       0.1       0.1
 8 H  px              0.0       0.2       0.1       0.0       0.0       0.0
 9 H  s               0.8       4.0       0.1       0.0       2.3       0.0
10 H  s               5.5       0.1       0.8       0.0       0.3       3.2
10 H  px              0.0       0.0       0.0       0.1       0.0       0.0
10 H  py              0.2       0.0       0.0       0.0       0.0       0.0
11 H  s               0.5       0.0       3.4       1.7       0.3       4.4
11 H  py              0.0       0.0       0.1       0.0       0.0       0.0
12 H  s               0.3       1.5       0.1       1.0       4.4       3.3
12 H  px              0.0       0.1       0.0       0.0       0.0       0.0
13 H  s               0.5       1.2       3.2       3.8       4.9       0.3
13 H  px              0.0       0.1       0.1       0.0       0.1       0.0
13 H  py              0.1       0.0       0.0       0.0       0.0       0.1
14 H  s               4.2       0.1       0.7       0.1       1.7       8.9
14 H  pz              0.0       0.1       0.1       0.0       0.0       0.0
15 H  s               0.1       1.7       1.0       6.9       1.1       0.6
15 H  px              0.0       0.1       0.0       0.0       0.0       0.0
15 H  py              0.1       0.0       0.1       0.0       0.0       0.0
16 H  s               2.7       1.5       3.6       1.3       1.6       0.0
16 H  px              0.1       0.0       0.1       0.0       0.0       0.0

                     24        25        26        27        28        29   
                  -0.30795  -0.30050  -0.29445  -0.26393  -0.26178   0.00915
                   2.00000   2.00000   2.00000   2.00000   2.00000   0.00000
                  --------  --------  --------  --------  --------  --------
 0 C  s               0.8       0.0       0.1       0.0       0.0       0.1
 0 C  pz              2.6       0.1       5.2       0.1       0.0       0.0
 0 C  px              7.7       3.9       5.0       0.0       0.0       0.0
 0 C  py              4.6       3.6       1.9       0.1       0.1       0.0
 0 C  dxz             0.0       0.0       0.5       0.0       0.0       0.0
 0 C  dyz             0.0       0.1       0.0       0.0       0.0       0.0
 0 C  dx2y2           0.0       0.3       0.0       0.0       0.0       0.0
 0 C  dxy             0.1       0.0       0.0       0.0       0.0       0.0
 1 C  s               0.6       0.0       0.2       0.0       0.0       0.0
 1 C  pz              8.5       0.4      12.6       0.6       0.0       0.2
 1 C  px              4.1       8.5       6.5       0.0       0.0       0.1
 1 C  py              4.3      10.9       2.5       0.0       0.5       0.1
 1 C  dz2             0.1       0.3       0.0       0.0       0.0       0.0
 1 C  dxz             0.0       0.1       0.5       0.0       0.0       0.0
 1 C  dyz             0.0       0.5       0.0       0.0       0.0       0.0
 1 C  dx2y2           0.1       0.2       0.0       0.0       0.0       0.0
 1 C  dxy             0.5       0.0       0.0       0.0       0.0       0.0
 2 C  s               0.6       0.0       0.2       0.0       0.0       0.1
 2 C  pz              7.8       0.2      10.6       0.9       0.1       0.1
 2 C  px              3.8       6.8       9.1       0.3       0.1       0.3
 2 C  py              5.5       7.5       1.5       0.1       2.3       0.1
 2 C  dz2             0.1       0.3       0.1       0.0       0.0       0.0
 2 C  dxz             0.0       0.1       0.4       0.1       0.0       0.0
 2 C  dyz             0.0       0.3       0.0       0.0       0.0       0.0
 2 C  dx2y2           0.1       0.1       0.0       0.0       0.0       0.0
 2 C  dxy             0.5       0.0       0.0       0.0       0.0       0.0
 3 C  s               0.9       0.0       0.1       0.6       0.0       0.1
 3 C  pz              1.1       0.1       4.2       2.0       0.0       0.5
 3 C  px              3.7       0.7       7.3       3.1       0.5       0.8
 3 C  py             10.2       0.5       1.1       1.0       0.3       0.2
 3 C  dz2             0.0       0.0       0.1       0.0       0.0       0.4
 3 C  dxz             0.0       0.0       0.3       0.1       0.0       0.0
 3 C  dyz             0.0       0.1       0.2       0.0       0.0       0.1
 3 C  dx2y2           0.0       0.1       0.0       0.0       0.0       0.0
 3 C  dxy             0.2       0.0       0.0       0.0       0.0       0.5
 4 C  s               0.0       0.1       0.0       0.1       0.0       9.1
 4 C  pz              0.9       0.8       0.5       3.7       0.5       5.1
 4 C  px              0.8       1.0       0.1       1.0       2.4       5.7
 4 C  py              0.3       0.0       0.2       0.2       1.7      20.6
 4 C  dz2             0.0       0.0       0.1       0.1       0.2       0.1
 4 C  dxz             0.0       0.0       0.0       0.2       0.2       0.1
 4 C  dyz             0.0       0.0       0.1       0.2       0.0       0.3
 4 C  dx2y2           0.1       0.0       0.0       0.0       0.2       0.2
 4 C  dxy             0.1       0.0       0.0       0.2       0.2       0.6
 5 Cl s               0.0       0.0       0.0       0.0       0.0       5.3
 5 Cl pz              0.2       1.8       1.3      64.9       5.5       3.4
 5 Cl px              7.1       0.7       0.3      14.0      47.0       6.3
 5 Cl py              0.2       0.2       2.3       1.7      27.3      17.7
 5 Cl dz2             0.0       0.0       0.0       0.0       0.0       1.8
 5 Cl dxz             0.0       0.0       0.0       0.0       0.0       1.6
 5 Cl dyz             0.0       0.0       0.0       0.0       0.0       4.1
 5 Cl dx2y2           0.0       0.0       0.0       0.0       0.1       2.0
 5 Cl dxy             0.0       0.0       0.0       0.0       0.0       6.4
 6 H  s               0.9       5.1       0.1       0.0       0.0       0.0
 6 H  px              0.1       0.0       0.0       0.0       0.0       0.0
 7 H  s               0.1       0.4       7.8       0.0       0.1       0.0
 8 H  s               1.5       3.6       1.6       0.0       0.1       0.0
 8 H  px              0.0       0.0       0.1       0.0       0.0       0.0
 9 H  s               4.0       9.7       2.5       0.1       0.2       0.0
 9 H  pz              0.0       0.1       0.0       0.0       0.0       0.0
 9 H  px              0.0       0.0       0.2       0.0       0.0       0.0
 9 H  py              0.1       0.0       0.0       0.0       0.0       0.0
10 H  s               2.9      12.3       0.0       0.1       0.3       0.1
10 H  pz              0.1       0.0       0.1       0.0       0.0       0.0
11 H  s               3.3       9.2       0.3       0.0       0.7       0.1
12 H  s               3.8       6.7       1.0       0.7       0.0       0.0
12 H  px              0.0       0.0       0.2       0.0       0.0       0.0
12 H  py              0.1       0.0       0.0       0.0       0.0       0.0
13 H  s               0.0       0.0       8.1       0.1       0.4       0.8
14 H  s               3.1       1.5       1.0       0.6       0.1       1.3
14 H  pz              0.0       0.0       0.0       0.0       0.0       0.2
14 H  px              0.1       0.0       0.0       0.0       0.0       0.1
15 H  s               0.0       0.1       0.8       1.8       3.3       0.1
15 H  pz              0.0       0.0       0.0       0.0       0.0       0.3
15 H  px              0.0       0.0       0.0       0.0       0.0       0.3
15 H  py              0.0       0.0       0.0       0.0       0.0       0.7
16 H  s               0.8       0.2       0.2       0.6       5.0       0.1
16 H  pz              0.0       0.0       0.0       0.1       0.0       0.2
16 H  px              0.0       0.0       0.0       0.0       0.0       0.2
16 H  py              0.0       0.0       0.0       0.0       0.0       0.8

                     30        31        32        33        34        35   
                   0.08168   0.10476   0.11425   0.12231   0.13407   0.13633
                   0.00000   0.00000   0.00000   0.00000   0.00000   0.00000
                  --------  --------  --------  --------  --------  --------
 0 C  s               1.4      24.8       3.7       0.7       0.4       4.3
 0 C  pz              0.6       0.1       0.9       1.8       3.0       0.2
 0 C  px              2.1       0.8       0.7       2.7       1.2       9.7
 0 C  py              1.5       0.6       0.0       0.1       1.7       1.8
 0 C  dz2             0.0       0.1       0.0       0.3       0.0       0.1
 0 C  dxz             0.2       0.1       0.1       0.4       0.1       0.2
 0 C  dx2y2           0.0       0.0       0.0       0.4       0.0       0.1
 0 C  dxy             0.2       0.1       0.1       0.0       0.1       0.2
 1 C  s              12.9       4.8       0.1       0.1       6.5       0.5
 1 C  pz              2.3       1.9       6.0       2.4       6.3       0.1
 1 C  px              2.0       6.5       1.3       3.3       0.5       4.6
 1 C  py              0.7       2.8       1.6       6.8       2.8       4.6
 1 C  dz2             0.1       0.4       0.4       0.0       0.0       0.1
 1 C  dxz             0.2       0.1       0.1       0.0       0.0       0.4
 1 C  dyz             0.0       0.1       0.0       0.7       0.1       0.0
 1 C  dxy             0.0       0.5       0.1       0.2       0.0       0.6
 2 C  s               5.4       0.3       6.4       3.0       2.0       5.8
 2 C  pz              1.3       1.1       4.0      12.7       1.8       4.9
 2 C  px              0.3       7.4       0.8       1.2       1.3       0.4
 2 C  py              0.1       2.6       0.3       3.4       2.2       3.9
 2 C  dz2             0.0       0.9       0.1       0.1       0.1       0.0
 2 C  dxz             0.4       0.2       0.1       0.0       0.1       0.0
 2 C  dyz             0.0       0.1       0.2       0.1       0.1       0.6
 2 C  dx2y2           0.0       0.0       0.1       0.3       0.1       0.6
 2 C  dxy             0.2       0.3       0.1       1.0       0.1       0.1
 3 C  s               5.6      10.3       3.4       1.6       1.8       0.6
 3 C  pz              0.2       0.3       5.4       1.6       4.2       1.9
 3 C  px              0.2       0.4       4.5       2.0       4.2       2.1
 3 C  py              3.7       2.7       3.5      10.3       1.6       8.7
 3 C  dz2             0.1       0.0       0.6       0.4       0.0       0.3
 3 C  dxz             0.3       0.0       0.1       1.0       0.5       0.0
 3 C  dyz             0.0       0.0       0.7       0.1       0.0       0.2
 3 C  dx2y2           0.0       0.1       0.0       0.1       0.2       0.9
 3 C  dxy             0.1       0.0       0.0       0.5       0.0       0.0
 4 C  s              14.6       0.3       5.3       0.0       5.3       1.2
 4 C  pz              3.9       0.6       9.5       4.7       1.8       1.5
 4 C  px              0.2       0.2       5.6       1.1      18.0       1.8
 4 C  py              1.3       2.5       0.3       2.2       4.8       8.3
 4 C  dz2             0.0       0.0       1.0       0.0       0.0       0.0
 4 C  dxz             0.1       0.1       0.0       0.4       1.2       0.1
 4 C  dyz             0.0       0.0       0.5       0.2       0.1       0.1
 4 C  dx2y2           0.1       0.0       0.0       0.2       0.1       0.1
 4 C  dxy             1.0       0.1       0.0       0.2       0.1       0.2
 5 Cl s               1.5       0.1       0.4       0.1       2.1       0.2
 5 Cl pz              0.0       0.2       0.3       0.5       0.2       0.3
 5 Cl px              0.2       0.2       0.2       0.5       0.3       0.1
 5 Cl py              0.2       0.3       0.4       0.4       0.1       0.3
 5 Cl dz2             0.2       0.1       0.4       0.4       1.3       0.0
 5 Cl dxz             0.0       0.0       0.2       1.0       0.2       0.1
 5 Cl dyz             1.1       0.0       0.1       0.4       0.4       0.0
 5 Cl dx2y2           0.3       0.0       1.3       1.1       1.3       0.5
 5 Cl dxy             0.4       0.4       0.0       0.6       1.0       0.7
 6 H  s               0.5       2.8       0.7       1.1       0.1       0.0
 6 H  pz              0.0       0.2       0.0       0.0       0.0       0.0
 6 H  px              0.3       0.4       0.1       0.0       0.0       0.2
 6 H  py              0.0       1.2       0.2       0.3       0.2       0.1
 7 H  s               0.3       2.8       0.0       4.8       0.2       0.5
 7 H  pz              0.2       1.6       0.0       0.5       0.1       0.1
 7 H  px              0.0       0.4       0.0       0.1       0.0       0.2
 8 H  s               0.3       2.1       1.3       0.2       0.1       0.5
 8 H  pz              0.0       0.9       0.2       0.3       0.0       0.2
 8 H  px              0.0       0.2       0.3       0.1       0.1       0.4
 8 H  py              0.3       0.4       0.2       0.0       0.0       0.0
 9 H  s               3.4       1.3       1.0       2.4       0.5       0.2
 9 H  pz              0.6       0.7       0.9       0.1       0.4       0.2
 9 H  px              1.1       0.0       0.1       0.1       0.2       0.3
 9 H  py              0.2       0.5       0.0       0.4       0.1       0.1
10 H  s               1.3       0.3       1.2       0.7       2.7       1.4
10 H  pz              0.0       0.0       0.0       0.5       0.2       0.1
10 H  px              0.1       0.6       0.1       0.2       0.1       0.6
10 H  py              0.9       0.1       0.1       0.4       1.6       0.1
11 H  s               1.0       0.5       0.4       1.3       0.5       5.2
11 H  pz              0.1       0.0       0.1       0.3       0.0       0.5
11 H  px              0.1       0.2       0.1       0.2       0.2       0.2
11 H  py              0.4       0.4       0.4       0.0       0.2       2.1
12 H  s               2.4       0.3       3.3       0.2       1.4       0.3
12 H  pz              0.2       0.2       1.0       0.7       0.2       0.1
12 H  px              0.4       0.3       0.2       0.2       0.1       0.0
12 H  py              0.3       0.0       0.7       0.5       0.0       0.1
13 H  s               1.2       0.8       1.5       2.5       0.2       1.3
13 H  pz              0.3       0.6       1.3       0.4       0.0       0.2
13 H  px              0.4       0.1       0.1       0.0       0.2       0.0
13 H  py              0.0       0.0       0.3       0.8       0.0       0.0
14 H  s               1.7       2.2       0.8       2.7       0.3       4.2
14 H  pz              0.1       0.3       0.1       0.9       0.0       0.1
14 H  px              0.4       0.1       0.1       0.4       0.3       0.0
14 H  py              0.6       1.2       0.0       0.0       0.3       1.9
15 H  s               4.5       0.0       7.2       1.4       0.5       0.4
15 H  pz              0.6       0.0       3.1       0.0       0.0       0.0
15 H  px              0.9       0.1       0.1       0.2       0.4       0.1
15 H  py              0.6       0.0       0.4       0.3       0.3       0.0
16 H  s               4.6       0.2       0.8       0.4       4.0       2.3
16 H  pz              0.1       0.0       0.0       0.4       0.4       0.2
16 H  px              1.1       0.0       0.2       0.0       1.9       0.3
16 H  py              0.7       0.1       0.1       0.3       0.2       0.9

                     36        37        38        39        40        41   
                   0.14583   0.15829   0.16887   0.18536   0.18750   0.19840
                   0.00000   0.00000   0.00000   0.00000   0.00000   0.00000
                  --------  --------  --------  --------  --------  --------
 0 C  s               1.1       2.6       3.3       0.0       0.4       0.0
 0 C  pz              0.9       3.0       3.7      16.5       5.0       7.1
 0 C  px              5.6       3.2       4.0       8.9      10.9       3.1
 0 C  py              5.2      16.3       0.5       1.8       3.5      13.6
 0 C  dz2             0.5       0.1       0.0       0.0       0.1       1.2
 0 C  dxz             0.1       0.4       0.9       0.4       0.0       1.2
 0 C  dyz             0.2       0.2       0.0       0.4       0.0       1.2
 0 C  dx2y2           0.1       0.0       0.1       0.2       0.6       0.8
 0 C  dxy             0.4       0.8       0.1       0.3       0.5       0.4
 1 C  s               3.1       3.4       0.5       2.3       1.2       0.2
 1 C  pz             16.6       3.6       0.7       0.3       2.0       0.5
 1 C  px              0.7       2.6       0.3       1.8       1.0       1.6
 1 C  py              0.5       1.6       0.3       0.3       4.6       0.0
 1 C  dz2             0.1       0.5       0.0       0.3       0.0       0.0
 1 C  dxz             1.0       0.2       0.4       0.0       0.0       0.2
 1 C  dyz             0.3       0.0       0.1       0.7       0.3       0.0
 1 C  dx2y2           0.5       0.2       0.1       0.0       0.5       0.7
 1 C  dxy             0.5       0.1       0.4       0.0       0.2       0.4
 2 C  s               5.9       0.2       2.6       1.1       0.5       0.1
 2 C  pz              3.2       3.0       4.4       2.0       1.4       0.5
 2 C  px              2.0       1.8       2.7       5.8       0.9       3.4
 2 C  py              2.8       5.1       2.4       1.9       1.2       0.8
 2 C  dz2             0.0       0.0       0.3       0.2       0.0       0.6
 2 C  dxz             1.6       0.5       0.0       0.1       0.0       0.0
 2 C  dyz             0.0       0.3       0.1       0.4       0.0       0.3
 2 C  dx2y2           0.1       0.0       0.0       0.0       0.1       0.2
 2 C  dxy             0.1       0.2       0.5       0.2       0.2       0.0
 3 C  s               0.1       2.8       3.5       1.9       0.1       0.2
 3 C  pz              1.4       0.4       4.8       1.8      10.6       4.8
 3 C  px              5.0       4.2       8.3       0.4       4.2       0.5
[...]
 0 C  dyz             1.7       0.7       0.0       0.0       0.0       0.0
 0 C  dx2y2           0.9       0.2       0.2       0.0       0.0       0.0
 0 C  dxy             0.4       2.9       0.1       0.0       0.0       0.0
 1 C  s               0.1       2.1       0.1       3.1      11.3      82.4
 1 C  pz              0.3       5.2       0.2       0.0       0.0       0.0
 1 C  px              2.0       1.0       0.2       0.0       0.0       0.0
 1 C  py              6.5       0.5       0.1       0.0       0.0       0.0
 1 C  dz2             4.4       0.5       0.3       0.0       0.0       0.0
 1 C  dxz             4.0       2.5       0.5       0.0       0.0       0.0
 1 C  dyz             7.3       0.9       0.3       0.0       0.0       0.0
 1 C  dx2y2           3.9       1.4       0.1       0.0       0.0       0.0
 1 C  dxy             0.8       6.4       0.1       0.0       0.0       0.0
 2 C  s               0.0       2.6       0.1       5.7       8.0       1.1
 2 C  pz              0.2       3.8       1.0       0.0       0.0       0.0
 2 C  px              0.1       0.3       1.7       0.0       0.0       0.0
 2 C  py              0.4       3.4       4.0       0.0       0.0       0.0
 2 C  dz2             0.1       0.1       4.2       0.0       0.0       0.0
 2 C  dxz             0.2       1.1       3.6       0.0       0.0       0.0
 2 C  dyz             0.4       0.0       3.4       0.0       0.0       0.0
 2 C  dx2y2           1.2       2.0       2.2       0.0       0.0       0.0
 2 C  dxy             0.3      10.1       0.6       0.0       0.0       0.0
 3 C  s               0.3       0.8       0.0       2.7       0.1       2.3
 3 C  pz              0.7       0.0       2.9       0.0       0.0       0.0
 3 C  px              0.2       2.2       0.8       0.0       0.0       0.0
 3 C  py              0.0       2.2       0.7       0.0       0.0       0.0
 3 C  dz2             0.5       0.6       3.3       0.0       0.0       0.0
 3 C  dxz             0.7       0.7       0.6       0.0       0.0       0.0
 3 C  dyz             0.1       0.1       2.9       0.0       0.0       0.0
 3 C  dx2y2           0.3       0.5       1.7       0.0       0.0       0.0
 3 C  dxy             0.0       3.4       1.6       0.0       0.0       0.0
 4 C  s               0.1       0.0       0.1      82.0      12.7       0.6
 4 C  pz              0.3       0.0       0.4       0.0       0.0       0.0
 4 C  px              0.3       0.0       0.9       0.0       0.0       0.0
 4 C  py              0.6       0.0       1.1       0.0       0.0       0.0
 4 C  dz2             1.4       0.0       1.5       0.0       0.0       0.0
 4 C  dxz             1.1       0.0       1.4       0.0       0.0       0.0
 4 C  dyz             0.4       0.0       0.8       0.0       0.0       0.0
 4 C  dxy             0.2       0.0       0.2       0.0       0.0       0.0
 5 Cl s               0.0       0.0       0.0       0.2       0.0       0.0
 6 H  s               1.2       0.0       0.0       0.0       0.0       0.0
 6 H  pz              0.2       0.0       0.0       0.0       0.0       0.0
 6 H  px              0.1       0.3       0.0       0.0       0.0       0.0
 6 H  py              2.8       0.0       0.0       0.0       0.0       0.0
 7 H  pz              0.0       0.2       0.0       0.0       0.0       0.0
 8 H  s               0.7       0.7       0.0       0.0       0.0       0.0
 8 H  pz              0.9       1.4       0.0       0.0       0.0       0.0
 8 H  px              0.9       0.2       0.0       0.0       0.0       0.0
 8 H  py              0.1       0.6       0.0       0.0       0.0       0.0
 9 H  s               4.5       2.9       0.4       0.0       0.0       0.0
 9 H  pz              7.3       4.2       0.7       0.0       0.0       0.0
 9 H  px              2.9       2.2       0.0       0.0       0.0       0.0
 9 H  py              0.8       2.1       0.6       0.0       0.0       0.0
10 H  s               6.3       0.5       0.0       0.0       0.0       0.0
10 H  pz              2.0       0.0       0.1       0.0       0.0       0.0
10 H  px              1.5       0.6       0.0       0.0       0.0       0.0
10 H  py             11.7       1.4       0.0       0.0       0.0       0.0
11 H  s               0.6       2.7       4.1       0.0       0.0       0.0
11 H  pz              0.0       0.2       2.1       0.0       0.0       0.0
11 H  px              0.7       1.6       1.0       0.0       0.0       0.0
11 H  py              1.0       6.4       7.4       0.0       0.0       0.0
12 H  s               0.1       1.0       3.9       0.0       0.0       0.0
12 H  pz              0.3       1.4       5.1       0.0       0.0       0.0
12 H  px              0.0       0.7       2.6       0.0       0.0       0.0
12 H  py              0.0       1.4       0.7       0.0       0.0       0.0
13 H  s               0.7       0.3       2.7       0.0       0.0       0.0
13 H  pz              1.3       1.0       3.8       0.0       0.0       0.0
13 H  px              0.3       0.0       1.5       0.0       0.0       0.0
13 H  py              0.2       0.1       0.4       0.0       0.0       0.0
14 H  s               0.1       0.4       2.8       0.0       0.0       0.0
14 H  pz              0.0       0.4       0.3       0.0       0.0       0.0
14 H  px              0.1       0.7       0.9       0.0       0.0       0.0
14 H  py              0.1       0.4       5.2       0.0       0.0       0.0
15 H  s               0.9       0.0       1.6       0.0       0.0       0.0
15 H  pz              1.6       0.0       3.9       0.0       0.0       0.0
15 H  px              0.7       0.0       0.3       0.0       0.0       0.0
16 H  s               0.7       0.0       1.0       0.0       0.0       0.0
16 H  pz              0.1       0.0       0.1       0.0       0.0       0.0
16 H  px              0.9       0.0       1.5       0.0       0.0       0.0
16 H  py              0.6       0.0       0.7       0.0       0.0       0.0

                    174       175       176   
                  22.01407  22.04927  25.18017
                   0.00000   0.00000   0.00000
                  --------  --------  --------
 0 C  s               1.2      11.6       0.0
 1 C  s               2.2       0.7       0.0
 2 C  s               4.1      80.7       0.0
 3 C  s              90.8       3.9       0.0
 4 C  s               1.4       2.7       0.7
 5 Cl s               0.0       0.0      99.0


                      *****************************
                      * MAYER POPULATION ANALYSIS *
                      *****************************

  NA   - Mulliken gross atomic population
  ZA   - Total nuclear charge
  QA   - Mulliken gross atomic charge
  VA   - Mayer's total valence
  BVA  - Mayer's bonded valence
  FA   - Mayer's free valence

  ATOM       NA         ZA         QA         VA         BVA        FA
  0 C      6.4681     6.0000    -0.4681     3.8154     3.8154    -0.0000
  1 C      6.2497     6.0000    -0.2497     3.6942     3.6942    -0.0000
  2 C      6.2809     6.0000    -0.2809     3.6227     3.6227     0.0000
  3 C      6.2415     6.0000    -0.2415     3.6408     3.6408    -0.0000
  4 C      6.1833     6.0000    -0.1833     3.8267     3.8267    -0.0000
  5 Cl    17.2095    17.0000    -0.2095     1.0293     1.0293     0.0000
  6 H      0.8552     1.0000     0.1448     0.9640     0.9640     0.0000
  7 H      0.8536     1.0000     0.1464     0.9625     0.9625    -0.0000
  8 H      0.8579     1.0000     0.1421     0.9651     0.9651    -0.0000
  9 H      0.8641     1.0000     0.1359     0.9623     0.9623    -0.0000
 10 H      0.8636     1.0000     0.1364     0.9610     0.9610    -0.0000
 11 H      0.8396     1.0000     0.1604     0.9626     0.9626     0.0000
 12 H      0.8568     1.0000     0.1432     0.9622     0.9622     0.0000
 13 H      0.8398     1.0000     0.1602     0.9589     0.9589    -0.0000
 14 H      0.8595     1.0000     0.1405     0.9657     0.9657    -0.0000
 15 H      0.8420     1.0000     0.1580     0.9561     0.9561     0.0000
 16 H      0.8349     1.0000     0.1651     0.9489     0.9489    -0.0000

  Mayer bond orders larger than 0.100000
B(  0-C ,  1-C ) :   0.9120 B(  0-C ,  6-H ) :   0.9801 B(  0-C ,  7-H ) :   0.9742 
B(  0-C ,  8-H ) :   0.9853 B(  1-C ,  2-C ) :   0.9182 B(  1-C ,  9-H ) :   0.9645 
B(  1-C , 10-H ) :   0.9750 B(  2-C ,  3-C ) :   0.8966 B(  2-C , 11-H ) :   0.9669 
B(  2-C , 12-H ) :   0.9717 B(  3-C ,  4-C ) :   0.9205 B(  3-C , 13-H ) :   0.9674 
B(  3-C , 14-H ) :   0.9657 B(  4-C ,  5-Cl) :   0.9757 B(  4-C , 15-H ) :   0.9717 
B(  4-C , 16-H ) :   0.9548 

-------
TIMINGS
-------

Total SCF time: 0 days 0 hours 0 min 16 sec 

Total time                  ....      16.730 sec
Sum of individual times     ....      16.288 sec  ( 97.4%)

SCF preparation             ....       0.174 sec  (  1.0%)
Fock matrix formation       ....      15.268 sec  ( 91.3%)
  Startup                   ....       0.058 sec  (  0.4% of F)
  Split-RI-J                ....       2.553 sec  ( 16.7% of F)
  XC integration            ....      12.163 sec  ( 79.7% of F)
    XC Preparation          ....       0.000 sec  (  0.0% of XC)
    Basis function eval.    ....       2.301 sec  ( 18.9% of XC)
    Density eval.           ....       3.420 sec  ( 28.1% of XC)
    XC-Functional eval.     ....       1.847 sec  ( 15.2% of XC)
    XC-Potential eval.      ....       3.765 sec  ( 31.0% of XC)
Diagonalization             ....       0.000 sec  (  0.0%)
Density matrix formation    ....       0.213 sec  (  1.3%)
Total Energy calculation    ....       0.030 sec  (  0.2%)
Population analysis         ....       0.097 sec  (  0.6%)
Orbital Transformation      ....       0.056 sec  (  0.3%)
Orbital Orthonormalization  ....       0.000 sec  (  0.0%)
DIIS solution               ....       0.396 sec  (  2.4%)
  MO trafo                  ....       0.000 sec  (  0.0 % of DIIS)
  Orb grad                  ....       0.000 sec  (  0.0 % of DIIS)
  Energy W gradient         ....       0.000 sec  (  0.0 % of DIIS)
  DIIS error                ....       0.008 sec  (  1.9 % of DIIS)
  DIIS work                 ....       0.339 sec  ( 85.5 % of DIIS)
  Form Q                    ....       0.000 sec  (  0.0 % of DIIS)
  Form QpQm                 ....       0.000 sec  (  0.0 % of DIIS)
  Exp/Cayley                ....       0.000 sec  (  0.0 % of DIIS)
  Orb update                ....       0.000 sec  (  0.0 % of DIIS)
  Wake-sleep                ....       0.026 sec  (  6.7 % of DIIS)
SOSCF solution              ....       0.055 sec  (  0.3%)
  MO trafo                  ....       0.043 sec  ( 78.1 % of SOSCF)
  Orb grad                  ....       0.001 sec  (  1.0 % of SOSCF)
  Rot update                ....       0.000 sec  (  0.2 % of SOSCF)
  Step                      ....       0.011 sec  ( 20.6 % of SOSCF)
Finished LeanSCF after  16.8 sec

Maximum memory used throughout the entire LEANSCF-calculation: 18.7 MB


-------------------------------------------------------------------------------
                          DFT DISPERSION CORRECTION                            
                                                                               
                                DFTD4 V3.4.0                                   
-------------------------------------------------------------------------------
The R2SCAN3C composite method is recognized
Using three-body term ABC
Active option DFTDOPT                   ...         5   

-------------------------   ----------------
Dispersion correction           -0.004387230
-------------------------   ----------------

------------------   -----------------
gCP correction             0.010309673
------------------   -----------------

-------------------------   --------------------
FINAL SINGLE POINT ENERGY      -657.268291616423
-------------------------   --------------------


------------------------------------------------------------------------------
                              ORCA PROPERTY CALCULATIONS
------------------------------------------------------------------------------

GBWName                                 ... sp_gas.gbw
Number of atoms                         ...     17
Number of basis functions               ...    177
Max core memory                         ...   1024 MB

Electric properties:
Dipole moment                           ... YES
Quadrupole moment                       ...  NO
Static polarizability (Dipole/Dipole)   ...  NO
Static polarizability (Dipole/Quad.)    ...  NO
Static polarizability (Quad./Quad.)     ...  NO
Static polarizability (Velocity)        ...  NO

Atomic electric properties:
Dipole moment                           ...  NO
Quadrupole moment                       ...  NO
Static polarizability                   ...  NO

Choice of electric origin               ... Center of mass
Position of electric origin             ...     0.000023     0.000006     0.000001

General magnetic properties:
Magnetizability                         ...  NO

EPR properties:
g-Tensor (aka g-matrix)                 ...  NO
Zero-Field splitting spin-orbit         ...  NO
Zero-field splitting spin-spin          ...  NO
Hyperfine couplings                     ...  NO (   0 nuclei)
Quadrupole couplings                    ...  NO (   0 nuclei)
Contact density                         ...  NO (   0 nuclei)

NMR properties:
Chemical shifts                         ...  NO (   0 nuclei)
Spin-rotation constants                 ...  NO (   0 nuclei)
Spin-spin couplings                     ...  NO (   0 nuclei,    0 pairs)

Choice of magnetic origin               ... GIAO
Position of magnetic origin             ...     0.000000     0.000000     0.000000

Properties with geometric perturbations:
SCF Hessian                             ...  NO
IR spectrum                             ...  NO
VCD spectrum                            ...  NO
X-ray spectroscopy properties:
SCF XES/XAS/RIXS spectra                ...  NO


-------------
DIPOLE MOMENT
-------------

Method             : SCF
Type of density    : Electron Density
Multiplicity       :   1
Irrep              :   0
Energy             :  -657.2742140596322997 Eh
Relativity type    : 
Basis              : AO
                                X                 Y                 Z
Electronic contribution:    -14.605582248      -3.614605337      -0.400183353
Nuclear contribution   :     15.109246397       4.267603827       0.585373826
                        -----------------------------------------
Total Dipole Moment    :      0.503664150       0.652998490       0.185190473
                        -----------------------------------------
Magnitude (a.u.)       :      0.845210101
Magnitude (Debye)      :      2.148353345



--------------------
Rotational spectrum 
--------------------
 
Rotational constants in cm-1:             0.177200             0.040703             0.037014 
Rotational constants in MHz :          5312.313144          1220.235295          1109.645536 

Dipole components along the rotational axes: 
x,y,z [a.u.] :     0.512914     0.627021     0.241131 
x,y,z [Debye]:     1.303724     1.593761     0.612905 

 

Dipole moment calculation done in   0.0 sec 

Maximum memory used throughout the entire PROP-calculation: 10.3 MB

--------------------------------
SUGGESTED CITATIONS FOR THIS RUN
--------------------------------

Below you find a list of papers that are relevant to this ORCA run
We neither can nor want to force you to cite these papers, but we appreciate if you do
You receive ORCA, which is the product of decades of hard work by many enthusiastic individuals, for free
The only thing we kindly ask in return is that you cite our papers,
We deeply appreciate it, if you show your appreciation for ORCA by not just citing the generic ORCA reference.

Please note that relegating all ORCA citations to the supporting information does *not* help us.
SI sections are not indexed - citations you put there will not count into any citation statistics
But we need these citations in order to attract the funding resources that allow us to do what we are doing

Therefore, if you are a happy ORCA user, please consider citing a few of the papers listed below in the main body of your paper

In addition to the list printed below, the program has created the file sp_gas.bibtex that contains the list in bibtex format
You can import this file easily into all common literature databanks and citation aid programs


List of essential papers. We consider these as the minimum necessary citations

  1. Neese,F.
     Software update: the ORCA program system, version 5.0
     WIRES Comput. Molec. Sci., 2022 12(1)e1606
     doi.org/10.1002/wcms.1606
  2. Grimme,S.; Hansen,A.; Ehlert,S.; Mewes,J.
     r2SCAN-3c: A 'Swiss army knife' composite electronic-structure method
     J. Chem. Phys., 2021 154 064103
     doi.org/10.1063/5.0040021

List of papers to cite with high priority. The work reported in these papers was absolutely
necessary for this run to complete.
Our perspective: the developers of density functionals and basis sets usually get cited in chemistry papers
Good! But without the algorithms to do something with them, the functionals or basis sets would not do anything.
Hence, in our opinion, the algorithm design and method developments papers are equally worthy of getting cited

  1. Neese,F.
     An improvement of the resolution of the identity approximation for the formation of the Coulomb matrix
     J. Comp. Chem., 2003 24(14)1740-1747
     doi.org/10.1002/jcc.10318
  2. Neese,F.
     The SHARK Integral Generation and Digestion System
     J. Comp. Chem., 2022  1-16
     doi.org/10.1002/jcc.26942
  3. Lehtola,S.; Steigemann,C.; Oliveira,M.; Marques,M.
     Recent developments in Libxc - A comprehensive library of functionals for density functional theory
     Software X, 2018 7 
     doi.org/10.1016/j.softx.2017.11.002
  4. Caldeweyher,E.; Bannwarth,C.; Grimme,S.
     Extension of the D3 dispersion coefficient model
     J. Chem. Phys., 2017 147 034112-XXXX
     doi.org/10.1063/1.4993215
  5. Caldeweyher,E.; Ehlert,S.; Hansen,A.; Neugebauer,H.; Spicher,S.; Bannwarth,C.; Grimme,S.
     A generally applicable atomic-charge dependent London dispersion correction
     J. Chem. Phys., 2019 150 154122-XXXX
     doi.org/10.1063/1.5090222
  6. Caldeweyher,E.; Mewes,J.; Ehlert,S.; Grimme,S.
     Extension and evaluation of the D4 London-dispersion model for periodic systems
     Phys. Chem. Chem. Phys., 2020 22(16)8499-8512
     doi.org/10.1039/D0CP00502A

List of suggested additional citations. These are papers that are important in the 'surrounding' of 
of this run, or papers that preceded the highly important papers. If you like your results we are grateful for a citation.

  1. Neese,F.
     The ORCA program system
     WIRES Comput. Molec. Sci., 2012 2(1)73-78
     doi.org/10.1002/wcms.81
  2. Neese,F.
     Software update: the ORCA program system, version 4.0
     WIRES Comput. Molec. Sci., 2018 8(1)1-6
     doi.org/10.1002/wcms.1327
  3. Neese,F.; Wennmohs,F.; Becker,U.; Riplinger,C.
     The ORCA quantum chemistry program package
     J. Chem. Phys., 2020 152 Art. No. L224108
     doi.org/10.1063/5.0004608

List of optional additional citations

  1. Neese,F.
     Approximate second-order SCF convergence for spin unrestricted wavefunctions
     Chem. Phys. Lett., 2000 325(1-3)93-98
     doi.org/10.1016/s0009-2614(00)00662-x

Timings for individual modules:

Sum of individual times          ...       18.251 sec (=   0.304 min)
Startup calculation              ...        0.990 sec (=   0.017 min)   5.4 %
SCF iterations                   ...       17.150 sec (=   0.286 min)  94.0 %
Property calculations            ...        0.111 sec (=   0.002 min)   0.6 %
                             ****ORCA TERMINATED NORMALLY****
TOTAL RUN TIME: 0 days 0 hours 0 minutes 18 seconds 948 msec
