
                                 *****************
                                 * O   R   C   A *
                                 *****************

                                            #,                                       
                                            ###                                      
                                            ####                                     
                                            #####                                    
                                            ######                                   
                                           ########,                                 
                                     ,,################,,,,,                         
                               ,,#################################,,                 
                          ,,##########################################,,             
                       ,#########################################, ''#####,          
                    ,#############################################,,   '####,        
                  ,##################################################,,,,####,       
                ,###########''''           ''''###############################       
              ,#####''   ,,,,##########,,,,          '''####'''          '####       
            ,##' ,,,,###########################,,,                        '##       
           ' ,,###''''                  '''############,,,                           
         ,,##''                                '''############,,,,        ,,,,,,###''
      ,#''                                            '''#######################'''  
     '                                                          ''''####''''         
             ,#######,   #######,   ,#######,      ##                                
            ,#'     '#,  ##    ##  ,#'     '#,    #''#        ,####,   ,####,        
            ##       ##  ##   ,#'  ##            #'  '#       #'       #'  '#        
            ##       ##  #######   ##           ,######,      #####,   #    #        
            '#,     ,#'  ##    ##  '#,     ,#' ,#      #,     #,   #   #,  ,#        
             '#######'   ##     ##  '#######'  #'      '#     '####' # '####'        



                #########################################################
                #                        -***-                          #
                #          Department of theory and spectroscopy        #
                #                                                       #
                #                      Frank Neese                      #
                #                                                       #
                #     Directorship, Architecture, Infrastructure        #
                #                    SHARK, DRIVERS                     #
                #        Core code/Algorithms in most modules           #
                #                                                       #
                #        Max Planck Institute fuer Kohlenforschung      #
                #                Kaiser Wilhelm Platz 1                 #
                #                 D-45470 Muelheim/Ruhr                 #
                #                      Germany                          #
                #                                                       #
                #                  All rights reserved                  #
                #                        -***-                          #
                #########################################################


                         Program Version 6.0.0  -   RELEASE  -


 With contributions from (in alphabetic order):
   Daniel Aravena         : Magnetic Suceptibility
   Michael Atanasov       : Ab Initio Ligand Field Theory (pilot matlab implementation)
   Alexander A. Auer      : GIAO ZORA, VPT2 properties, NMR spectrum
   Ute Becker             : All parallelization in ORCA, NUMFREQ, NUMCALC
   Giovanni Bistoni       : ED, misc. LED, open-shell LED, HFLD
   Martin Brehm           : Molecular dynamics
   Dmytro Bykov           : pre 5.0 version of the SCF Hessian
   Marcos Casanova-Páez   : Triplet and SCS-CIS(D). UHF-(DLPNO)-IP/EA/STEOM-CCSD. UHF-CVS-IP/STEOM-CCSD
   Vijay G. Chilkuri      : MRCI spin determinant printing, contributions to CSF-ICE
   Pauline Colinet        : FMM embedding
   Dipayan Datta          : RHF DLPNO-CCSD density
   Achintya Kumar Dutta   : EOM-CC, STEOM-CC
   Nicolas Foglia         : Exact transition moments, OPA infrastructure, MCD improvements
   Dmitry Ganyushin       : Spin-Orbit,Spin-Spin,Magnetic field MRCI
   Miquel Garcia          : C-PCM and meta-GGA Hessian, CCSD/C-PCM, Gaussian charge scheme
   Tiago L. C. Gouveia    : GS-ROHF, GS-ROCIS
   Yang Guo               : DLPNO-NEVPT2, F12-NEVPT2, CIM, IAO-localization
   Andreas Hansen         : Spin unrestricted coupled pair/coupled cluster methods
   Ingolf Harden          : AUTO-CI MPn and infrastructure 
   Benjamin Helmich-Paris : MC-RPA, TRAH-(SCF,CASSCF), AVAS, COSX integrals, SCF dyn. polar.
   Lee Huntington         : MR-EOM, pCC
   Robert Izsak           : Overlap fitted RIJCOSX, COSX-SCS-MP3, EOM
   Riya Kayal             : Wick's Theorem for AUTO-CI, AUTO-CI UHF-CCSDT
   Emily Kempfer          : AUTO-CI, RHF CISDT and CCSDT
   Christian Kollmar      : KDIIS, OOCD, Brueckner-CCSD(T), CCSD density, CASPT2, CASPT2-K, improved NEVPT2
   Axel Koslowski         : Symmetry handling
   Simone Kossmann        : Meta GGA functionals, TD-DFT gradient, OOMP2, (MP2 Hessian; deprecated post 5.0)
   Lucas Lang             : DCDCAS
   Marvin Lechner         : AUTO-CI (C++ implementation), FIC-MRCC
   Spencer Leger          : CASSCF response
   Dagmar Lenk            : GEPOL surface, SMD, ORCA-2-JSON
   Dimitrios Liakos       : Extrapolation schemes; Compound Job, initial MDCI parallelization
   Dimitrios Manganas     : Further ROCIS development; embedding schemes. LFT, Crystal Embedding
   Dimitrios Pantazis     : SARC Basis sets
   Anastasios Papadopoulos: AUTO-CI, single reference methods and gradients
   Taras Petrenko         : pre 6.0 DFT Hessian and TD-DFT gradient, (ASA, deprecated), ECA, 1-Electron XAS/XES, NRVS
   Peter Pinski           : DLPNO-MP2, DLPNO-MP2 Gradient
   Christoph Reimann      : Effective Core Potentials
   Marius Retegan         : Local ZFS, SOC
   Christoph Riplinger    : Optimizer, TS searches, QM/MM, DLPNO-CCSD(T), (RO)-DLPNO pert. Triples
   Michael Roemelt        : Original ROCIS implementation
   Masaaki Saitow         : Open-shell DLPNO-CCSD energy and density
   Barbara Sandhoefer     : DKH picture change effects
   Kantharuban Sivalingam : CASSCF convergence/infrastructure, NEVPT2 and variants, FIC-MRCI
   Bernardo de Souza      : ESD, SOC TD-DFT
   Georgi Stoychev        : AutoAux, RI-MP2 NMR, DLPNO-MP2 response, X2C
   Van Anh Tran           : RI-MP2 g-tensors
   Willem Van den Heuvel  : Paramagnetic NMR
   Zikuan Wang            : NOTCH, Electric field optimization 
   Frank Wennmohs         : Technical directorship and infrastructure
   Hang Xu                : AUTO-CI-Response properties 


 We gratefully acknowledge several colleagues who have allowed us to
 interface, adapt or use parts of their codes:
   Stefan Grimme, W. Hujo, H. Kruse, P. Pracht,  : VdW corrections, initial TS optimization,
                  C. Bannwarth, S. Ehlert,         DFT functionals, gCP, sTDA/sTD-DF
                  L. Wittmann, M. Mueller
   Ed Valeev, F. Pavosevic, A. Kumar             : LibInt (2-el integral package), F12 methods
   Garnet Chan, S. Sharma, J. Yang, R. Olivares  : DMRG
   Ulf Ekstrom                                   : XCFun DFT Library
   Mihaly Kallay                                 : mrcc  (arbitrary order and MRCC methods)
   Frank Weinhold                                : gennbo (NPA and NBO analysis)
   Simon Mueller                                 : openCOSMO-RS
   Christopher J. Cramer and Donald G. Truhlar   : smd solvation model
   Lars Goerigk                                  : TD-DFT with DH, B97 family of functionals
   V. Asgeirsson, H. Jonsson                     : NEB implementation
   FAccTs GmbH                                   : IRC, NEB, NEB-TS, DLPNO-Multilevel, CI-OPT
                                                   MM, QMMM, 2- and 3-layer-ONIOM, Crystal-QMMM,
                                                   LR-CPCM, SF, NACMEs, symmetry and pop. for TD-DFT,
                                                   nearIR, NL-DFT gradient (VV10), updates on ESD,
                                                   ML-optimized integration grids, MBIS, APM,
                                                   GOAT, DOCKER, SOLVATOR, interface openCOSMO-RS
   S Lehtola, MJT Oliveira, MAL Marques          : LibXC Library
   Liviu Ungur et al                             : ANISO software


 Your calculation uses the libint2 library for the computation of 2-el integrals
 For citations please refer to: http://libint.valeyev.net

 Your ORCA version has been built with support for libXC version: 6.2.2
 For citations please refer to: https://libxc.gitlab.io

 This ORCA versions uses:
   CBLAS   interface :  Fast vector & matrix operations
   LAPACKE interface :  Fast linear algebra routines
   SCALAPACK package :  Parallel linear algebra routines
   Shared memory     :  Shared parallel matrices
   BLAS/LAPACK       :  OpenBLAS 0.3.27  USE64BITINT DYNAMIC_ARCH NO_AFFINITY SkylakeX SINGLE_THREADED
        Core in use  :  SkylakeX
   Copyright (c) 2011-2014, The OpenBLAS Project


Your calculation utilizes the geometrical counterpoise correction gCP
Please cite in your paper:
H.Kruse, S. Grimme J.Chem.Phys., 136, (2012), 154101 
   

Your calculation utilizes the atom-pairwise dispersion correction
based on EEQ partial charges (D4)


================================================================================

----- Orbital basis set information -----
Your calculation utilizes the basis: def2-mTZVPP
   Stefan Grimme, Andreas Hansen, Sebastian Ehlert, and Jan-Michael Mewes 
   J. Chem. Phys. 154, 064103 (2021). DOI: 10.1063/5.0040021

----- AuxJ basis set information -----
Your calculation utilizes the auxiliary basis: def2/J
   F. Weigend, Phys. Chem. Chem. Phys. 8, 1057 (2006).

================================================================================
                                        WARNINGS
                       Please study these warnings very carefully!
================================================================================

Using LibXC functional ID 497 : Re-regularized SCAN exchange by Furness et al
[ 1]  J. W. Furness, A. D. Kaplan, J. Ning, J. P. Perdew, and J. Sun.,  J. Phys. Chem. Lett. 11, 8208-8215 (2020)
[ 2]  J. W. Furness, A. D. Kaplan, J. Ning, J. P. Perdew, and J. Sun.,  J. Phys. Chem. Lett. 11, 9248-9248 (2020)
Using LibXC functional ID 498 : Re-regularized SCAN correlation by Furness et al
[ 1]  J. W. Furness, A. D. Kaplan, J. Ning, J. P. Perdew, and J. Sun.,  J. Phys. Chem. Lett. 11, 8208-8215 (2020)
[ 2]  J. W. Furness, A. D. Kaplan, J. Ning, J. P. Perdew, and J. Sun.,  J. Phys. Chem. Lett. 11, 9248-9248 (2020)
Using LibXC functional ID 497 : Re-regularized SCAN exchange by Furness et al
[ 1]  J. W. Furness, A. D. Kaplan, J. Ning, J. P. Perdew, and J. Sun.,  J. Phys. Chem. Lett. 11, 8208-8215 (2020)
[ 2]  J. W. Furness, A. D. Kaplan, J. Ning, J. P. Perdew, and J. Sun.,  J. Phys. Chem. Lett. 11, 9248-9248 (2020)
Using LibXC functional ID 498 : Re-regularized SCAN correlation by Furness et al
[ 1]  J. W. Furness, A. D. Kaplan, J. Ning, J. P. Perdew, and J. Sun.,  J. Phys. Chem. Lett. 11, 8208-8215 (2020)
[ 2]  J. W. Furness, A. D. Kaplan, J. Ning, J. P. Perdew, and J. Sun.,  J. Phys. Chem. Lett. 11, 9248-9248 (2020)

================================================================================
                                       INPUT FILE
================================================================================
NAME = sp_gas.inp
|  1> ! r2scan-3c def2/J RI DEFGRID2 scfconv6 printgap
|  2> %output
|  3>     printlevel normal
|  4> end
|  5> * xyz 0 1
|  6> C -3.6817648413 -0.675534611 0.2969874713
|  7> C -2.4757831696 0.1468042896 -0.1382696244
|  8> C -1.1669245351 -0.5291115055 0.2604510923
|  9> C 0.0404499291 0.2513919928 -0.1860969909
| 10> O 0.0186413488 1.2645014904 -0.8536293061
| 11> O 1.1657836417 -0.3102869459 0.2404623378
| 12> C 2.406552253 0.3222313534 -0.1181876748
| 13> C 3.5389907028 -0.4767176758 0.496790163
| 14> H -3.6862309184 -0.8031909131 1.376536269
| 15> H -4.6021383514 -0.1774629914 0.0053661913
| 16> H -3.6602328254 -1.6584314243 -0.1669074647
| 17> H -2.5169064419 1.1391757676 0.3143862859
| 18> H -2.4878475948 0.2863912878 -1.2207273947
| 19> H -1.0977282087 -1.5245414982 -0.1834803962
| 20> H -1.1045441147 -0.6532327527 1.3430032825
| 21> H 2.4756962792 0.3523464584 -1.2105861554
| 22> H 2.3879276245 1.3533834825 0.2497910465
| 23> H 3.4358260324 -0.4966181292 1.5775700805
| 24> H 3.51889812 -1.4965396561 0.1244058094
| 25> H 4.4861939995 -0.0171383557 0.2348154129
| 26> *
| 27> 
| 28>                          ****END OF INPUT****
================================================================================

                       ****************************
                       * Single Point Calculation *
                       ****************************

---------------------------------
CARTESIAN COORDINATES (ANGSTROEM)
---------------------------------
  C     -3.681765   -0.675535    0.296987
  C     -2.475783    0.146804   -0.138270
  C     -1.166925   -0.529112    0.260451
  C      0.040450    0.251392   -0.186097
  O      0.018641    1.264501   -0.853629
  O      1.165784   -0.310287    0.240462
  C      2.406552    0.322231   -0.118188
  C      3.538991   -0.476718    0.496790
  H     -3.686231   -0.803191    1.376536
  H     -4.602138   -0.177463    0.005366
  H     -3.660233   -1.658431   -0.166907
  H     -2.516906    1.139176    0.314386
  H     -2.487848    0.286391   -1.220727
  H     -1.097728   -1.524541   -0.183480
  H     -1.104544   -0.653233    1.343003
  H      2.475696    0.352346   -1.210586
  H      2.387928    1.353383    0.249791
  H      3.435826   -0.496618    1.577570
  H      3.518898   -1.496540    0.124406
  H      4.486194   -0.017138    0.234815

----------------------------
CARTESIAN COORDINATES (A.U.)
----------------------------
  NO LB      ZA    FRAG     MASS         X           Y           Z
   0 C     6.0000    0    12.011   -6.957527   -1.276575    0.561225
   1 C     6.0000    0    12.011   -4.678552    0.277420   -0.261292
   2 C     6.0000    0    12.011   -2.205168   -0.999876    0.492181
   3 C     6.0000    0    12.011    0.076439    0.475062   -0.351672
   4 O     8.0000    0    15.999    0.035227    2.389562   -1.613126
   5 O     8.0000    0    15.999    2.203012   -0.586357    0.454408
   6 C     6.0000    0    12.011    4.547725    0.608929   -0.223342
   7 C     6.0000    0    12.011    6.687723   -0.900866    0.938797
   8 H     1.0000    0     1.008   -6.965967   -1.517811    2.601277
   9 H     1.0000    0     1.008   -8.696781   -0.335356    0.010141
  10 H     1.0000    0     1.008   -6.916838   -3.133981   -0.315409
  11 H     1.0000    0     1.008   -4.756264    2.152730    0.594104
  12 H     1.0000    0     1.008   -4.701351    0.541201   -2.306840
  13 H     1.0000    0     1.008   -2.074406   -2.880966   -0.346728
  14 H     1.0000    0     1.008   -2.087286   -1.234431    2.537908
  15 H     1.0000    0     1.008    4.678388    0.665838   -2.287676
  16 H     1.0000    0     1.008    4.512529    2.557524    0.472037
  17 H     1.0000    0     1.008    6.492770   -0.938472    2.981175
  18 H     1.0000    0     1.008    6.649754   -2.828050    0.235093
  19 H     1.0000    0     1.008    8.477678   -0.032387    0.443737

--------------------------------
INTERNAL COORDINATES (ANGSTROEM)
--------------------------------
 C      0   0   0     0.000000000000     0.00000000     0.00000000
 C      1   0   0     1.523181472863     0.00000000     0.00000000
 C      2   1   0     1.526090199528   111.42438623     0.00000000
 C      3   2   1     1.505438141629   112.37830593   178.75683330
 O      4   3   2     1.213452042785   125.56455131   355.99008990
 O      4   3   2     1.328085861605   111.40956517   176.18781282
 C      6   4   3     1.438129332597   117.70649441   179.60085791
 C      7   6   4     1.516223642749   108.14823048   178.97458265
 H      1   2   3     1.087079428527   110.51344394    59.99906351
 H      1   2   3     1.086372729450   110.27602009   179.93098829
 H      1   2   3     1.087082464650   110.51890679   299.85347711
 H      2   1   3     1.091507969280   110.03005494   238.90027212
 H      2   1   3     1.091487473545   110.10146845   121.04011262
 H      3   2   1     1.092128274717   110.59929279    58.57867819
 H      3   2   1     1.091428717490   111.01010736   299.69841830
 H      7   6   4     1.094998747180   108.38315069   300.40206515
 H      7   6   4     1.095002250894   108.40261931    57.48771694
 H      8   7   6     1.085874858046   110.02279858   299.88771258
 H      8   7   6     1.085868633948   109.99686487    59.73720889
 H      8   7   6     1.084913824427   109.32485353   179.80976365

---------------------------
INTERNAL COORDINATES (A.U.)
---------------------------
 C      0   0   0     0.000000000000     0.00000000     0.00000000
 C      1   0   0     2.878395835974     0.00000000     0.00000000
 C      2   1   0     2.883892532770   111.42438623     0.00000000
 C      3   2   1     2.844865799238   112.37830593   178.75683330
 O      4   3   2     2.293092037510   125.56455131   355.99008990
 O      4   3   2     2.509718560766   111.40956517   176.18781282
 C      6   4   3     2.717670583766   117.70649441   179.60085791
 C      7   6   4     2.865247442572   108.14823048   178.97458265
 H      1   2   3     2.054282405735   110.51344394    59.99906351
 H      1   2   3     2.052946938022   110.27602009   179.93098829
 H      1   2   3     2.054288143177   110.51890679   299.85347711
 H      2   1   3     2.062651134932   110.03005494   238.90027212
 H      2   1   3     2.062612403605   110.10146845   121.04011262
 H      3   2   1     2.063823342327   110.59929279    58.57867819
 H      3   2   1     2.062501370754   111.01010736   299.69841830
 H      7   6   4     2.069247749157   108.38315069   300.40206515
 H      7   6   4     2.069254370218   108.40261931    57.48771694
 H      8   7   6     2.052006097417   110.02279858   299.88771258
 H      8   7   6     2.051994335577   109.99686487    59.73720889
 H      8   7   6     2.050190007072   109.32485353   179.80976365

---------------------
BASIS SET INFORMATION
---------------------
There are 3 groups of distinct atoms

 Group   1 Type C   : 11s6p1d contracted to 5s3p1d pattern {62111/411/1}
 Group   2 Type O   : 11s6p2d contracted to 5s3p2d pattern {62111/411/11}
 Group   3 Type H   : 4s1p contracted to 2s1p pattern {31/1}

Atom   0C    basis set group =>   1
Atom   1C    basis set group =>   1
Atom   2C    basis set group =>   1
Atom   3C    basis set group =>   1
Atom   4O    basis set group =>   2
Atom   5O    basis set group =>   2
Atom   6C    basis set group =>   1
Atom   7C    basis set group =>   1
Atom   8H    basis set group =>   3
Atom   9H    basis set group =>   3
Atom  10H    basis set group =>   3
Atom  11H    basis set group =>   3
Atom  12H    basis set group =>   3
Atom  13H    basis set group =>   3
Atom  14H    basis set group =>   3
Atom  15H    basis set group =>   3
Atom  16H    basis set group =>   3
Atom  17H    basis set group =>   3
Atom  18H    basis set group =>   3
Atom  19H    basis set group =>   3
---------------------------------
AUXILIARY/J BASIS SET INFORMATION
---------------------------------
There are 3 groups of distinct atoms

 Group   1 Type C   : 12s5p4d2f1g contracted to 6s4p3d1f1g pattern {711111/2111/211/2/1}
 Group   2 Type O   : 12s5p4d2f1g contracted to 6s4p3d1f1g pattern {711111/2111/211/2/1}
 Group   3 Type H   : 5s2p1d contracted to 3s1p1d pattern {311/2/1}

Atom   0C    basis set group =>   1
Atom   1C    basis set group =>   1
Atom   2C    basis set group =>   1
Atom   3C    basis set group =>   1
Atom   4O    basis set group =>   2
Atom   5O    basis set group =>   2
Atom   6C    basis set group =>   1
Atom   7C    basis set group =>   1
Atom   8H    basis set group =>   3
Atom   9H    basis set group =>   3
Atom  10H    basis set group =>   3
Atom  11H    basis set group =>   3
Atom  12H    basis set group =>   3
Atom  13H    basis set group =>   3
Atom  14H    basis set group =>   3
Atom  15H    basis set group =>   3
Atom  16H    basis set group =>   3
Atom  17H    basis set group =>   3
Atom  18H    basis set group =>   3
Atom  19H    basis set group =>   3

Checking for AutoStart:
The File: sp_gas.gbw exists
Trying to determine its content:
     ... Fine, the file contains calculation information
     ... Fine, the calculation information was read
     ... Fine, the file contains a basis set
     ... Fine, the basis set was read
     ... Fine, the file contains a geometry
     ... Fine, the geometry was read
     ... Fine, the file contains a set of orbitals
     ... Fine, the orbitals can be read
     => possible old guess file was deleted
     => GBW file was renamed to GES file
     => GES file is set as startup file
     => Guess is set to MORead
     ... now leaving AutoStart

------------------------------------------------------------------------------
                             ORCA STARTUP CALCULATIONS
                           -- RI-GTO INTEGRALS CHOSEN --
------------------------------------------------------------------------------
------------------------------------------------------------------------------
                   ___                                                        
                  /   \      - P O W E R E D   B Y -                         
                 /     \                                                     
                 |  |  |   _    _      __       _____    __    __             
                 |  |  |  | |  | |    /  \     |  _  \  |  |  /  |          
                  \  \/   | |  | |   /    \    | | | |  |  | /  /          
                 / \  \   | |__| |  /  /\  \   | |_| |  |  |/  /          
                |  |  |   |  __  | /  /__\  \  |    /   |      \           
                |  |  |   | |  | | |   __   |  |    \   |  |\   \          
                \     /   | |  | | |  |  |  |  | |\  \  |  | \   \       
                 \___/    |_|  |_| |__|  |__|  |_| \__\ |__|  \__/        
                                                                              
                      - O R C A' S   B I G   F R I E N D -                    
                                      &                                       
                       - I N T E G R A L  F E E D E R -                       
                                                                              
 v1 FN, 2020, v2 2021, v3 2022-2024                                           
------------------------------------------------------------------------------


----------------------
SHARK INTEGRAL PACKAGE
----------------------

Number of atoms                             ...     20
Number of basis functions                   ...    222
Number of shells                            ...    110
Maximum angular momentum                    ...      2
Integral batch strategy                     ... SHARK/LIBINT Hybrid
RI-J (if used) integral strategy            ... SPLIT-RIJ (Revised 2003 algorithm where possible)
Printlevel                                  ...      1
Contraction scheme used                     ... SEGMENTED contraction
Prescreening option                         ... SCHWARTZ
   Thresh                                   ... 1.000e-10
   Tcut                                     ... 1.000e-11
   Tpresel                                  ... 1.000e-11 
Coulomb Range Separation                    ... NOT USED
Exchange Range Separation                   ... NOT USED
Multipole approximations                    ... NOT USED
Finite Nucleus Model                        ... NOT USED
CABS basis                                  ... NOT available
Auxiliary Coulomb fitting basis             ... AVAILABLE
   # of basis functions in Aux-J            ...    524
   # of shells in Aux-J                     ...    180
   Maximum angular momentum in Aux-J        ...      4
Auxiliary J/K fitting basis                 ... NOT available
Auxiliary Correlation fitting basis         ... NOT available
Auxiliary 'external' fitting basis          ... NOT available

Checking pre-screening integrals            ... done (  0.0 sec) Dimension = 110
Check shell pair data                       ... done (  0.0 sec)
Shell pair information
Shell pair cut-off parameter TPreSel        ...   1.0e-11
Total number of shell pairs                 ...      6105
Shell pairs after pre-screening             ...      5055
Total number of primitive shell pairs       ...     21533
Primitive shell pairs kept                  ...     12639
          la=0 lb=0:   1693 shell pairs
          la=1 lb=0:   1910 shell pairs
          la=1 lb=1:    561 shell pairs
          la=2 lb=0:    538 shell pairs
          la=2 lb=1:    304 shell pairs
          la=2 lb=2:     49 shell pairs

Calculating one electron integrals          ... done (  0.0 sec)
Calculating RI/J V-Matrix + Cholesky decomp.... done (  0.1 sec)
Calculating Nuclear repulsion               ... done (  0.0 sec) ENN=    383.423618210728 Eh

Diagonalization of the overlap matrix:
Smallest eigenvalue                        ... 9.875e-05
Time for diagonalization                   ...    0.005 sec
Threshold for overlap eigenvalues          ... 1.000e-07
Number of eigenvalues below threshold      ... 0
Time for construction of square roots      ...    0.021 sec
Total time needed                          ...    0.039 sec

-------------------
DFT GRID GENERATION
-------------------

General Integration Accuracy     IntAcc      ... 4.388
Radial Grid Type                 RadialGrid  ... OptM3 with GC (2021)
Angular Grid (max. ang.)         AngularGrid ... 4 (Lebedev-302)
Angular grid pruning method      GridPruning ... 4 (adaptive)
Weight generation scheme         WeightScheme... mBecke (2022)
Basis function cutoff            BFCut       ... 1.0000e-10
Integration weight cutoff        WCut        ... 1.0000e-14
Partially contracted basis set               ... off
Rotationally invariant grid construction     ... off
Angular grids for H and He will be reduced by one unit
Diffuse basis detected: some atoms will have their outermost
                        angular grid increased by 1.

Total number of grid points                  ...    87483
Total number of batches                      ...     1376
Average number of points per batch           ...       63
Average number of grid points per atom       ...     4374
Initializing property integral containers    ... done (  0.1 sec)

SHARK setup successfully completed in   1.4 seconds

Maximum memory used throughout the entire STARTUP-calculation: 39.0 MB
-------------------------------------------------------------------------------
                                 ORCA GUESS
                   Start orbitals & Density for SCF / CASSCF
-------------------------------------------------------------------------------

------------
SCF SETTINGS
------------
Hamiltonian:
 Density Functional     Method          .... DFT(GTOs)
  Functional kind                       .... Exchange
  Functional name                       .... Re-regularized SCAN exchange by Furness et al
  Functional family                     .... MGGA
  Functional refs                              
    [ 0] J. W. Furness, A. D. Kaplan, J. Ning, J. P. Perdew, and J. Sun.,  J. Phys. Chem. Lett. 11, 8208-8215 (2020), doi: 10.1021/acs.jpclett.0c02405
    [ 1] J. W. Furness, A. D. Kaplan, J. Ning, J. P. Perdew, and J. Sun.,  J. Phys. Chem. Lett. 11, 9248-9248 (2020), doi: 10.1021/acs.jpclett.0c03077
  Functional external parameters        .... 6
    Parameter  0 _c1        =  6.670000e-01 : c1 parameter        
    Parameter  1 _c2        =  8.000000e-01 : c2 parameter        
    Parameter  2 _d         =  1.240000e+00 : d parameter         
    Parameter  3 _k1        =  6.500000e-02 : k1 parameter        
    Parameter  4 _eta       =  1.000000e-03 : eta parameter       
    Parameter  5 _dp2       =  3.610000e-01 : dp2 parameter       
  Functional kind                       .... Correlation
  Functional name                       .... Re-regularized SCAN correlation by Furness et al
  Functional family                     .... MGGA
  Functional refs                              
    [ 0] J. W. Furness, A. D. Kaplan, J. Ning, J. P. Perdew, and J. Sun.,  J. Phys. Chem. Lett. 11, 8208-8215 (2020), doi: 10.1021/acs.jpclett.0c02405
    [ 1] J. W. Furness, A. D. Kaplan, J. Ning, J. P. Perdew, and J. Sun.,  J. Phys. Chem. Lett. 11, 9248-9248 (2020), doi: 10.1021/acs.jpclett.0c03077
  Functional external parameters        .... 1
    Parameter  0 _eta       =  1.000000e-03 : Regularization parameter
 Gradients option       PostSCFGGA      .... off
 RI-approximation to the Coulomb term is turned on
   Number of AuxJ basis functions       .... 524


General Settings:
 Integral files         IntName         .... sp_gas
 Hartree-Fock type      HFTyp           .... RHF
 Total Charge           Charge          ....    0
 Multiplicity           Mult            ....    1
 Number of Electrons    NEL             ....   64
 Basis Dimension        Dim             ....  222
 Nuclear Repulsion      ENuc            ....    383.4236182107 Eh

Convergence Acceleration:
 AO-DIIS                CNVDIIS         .... on
   Start iteration      DIISMaxIt       ....    12
   Startup error        DIISStart       ....  0.200000
   # of expansion vecs  DIISMaxEq       ....     5
   Bias factor          DIISBfac        ....   1.050
   Max. coefficient     DIISMaxC        ....  10.000
 MO-DIIS                CNVKDIIS        .... off
 Trust-Rad. Augm. Hess. CNVTRAH         .... auto
   Auto Start mean grad. ratio tolernc. ....  1.125000
   Auto Start start iteration           ....     1
   Auto Start num. interpolation iter.  ....    10
   Max. Number of Micro iterations      ....    24
   Max. Number of Macro iterations      .... Maxiter - #DIIS iter
   Number of Davidson start vectors     ....     2
   Converg. threshold    (grad. norm)   ....   3.330e-04
   Grad. Scal. Fac. for Micro threshold ....   0.100
   Minimum threshold for Micro iter.    ....   1.000e-02
   NR start threshold (gradient norm)   ....   1.000e-04
   Initial trust radius                 ....   0.400
   Minimum AH scaling param. (alpha)    ....   1.000
   Maximum AH scaling param. (alpha)    .... 1000.000
   Quad. conv. algorithm                .... NR
   White noise on init. David. guess    .... on
   Maximum white noise                  ....   0.010
   Pseudo random numbers                .... off
   Inactive MOs                         .... canonical
   Orbital update algorithm             .... Taylor
   Preconditioner                       .... Diag
   Full preconditioner red. dimension   ....   250
   COSX micro iterations for RIJONX calc.... off
 SOSCF                  CNVSOSCF        .... on
   Start iteration      SOSCFMaxIt      ....   150
   Startup grad/error   SOSCFStart      ....  0.003300
   Hessian update       SOSCFHessUp     .... L-BFGS
 Level Shifting         CNVShift        .... on
   Level shift para.    LevelShift      ....    0.2500
   Turn off err/grad.   ShiftErr        ....    0.0010
 Zerner damping         CNVZerner       .... off
 Static damping         CNVDamp         .... on
   Fraction old density DampFac         ....    0.7000
   Max. Damping (<1)    DampMax         ....    0.9800
   Min. Damping (>=0)   DampMin         ....    0.0000
   Turn off err/grad.   DampErr         ....    0.1000

SCF Procedure:
 Maximum # iterations   MaxIter         ....   125
 SCF integral mode      SCFMode         .... Direct
   Integral package                     .... SHARK and LIBINT hybrid scheme
 Reset frequency        DirectResetFreq ....    20
 Integral Threshold     Thresh          ....  1.000e-10 Eh
 Primitive CutOff       TCut            ....  1.000e-11 Eh

Convergence Tolerance:
 Convergence Check Mode ConvCheckMode   .... Total+1el-Energy
 Convergence forced     ConvForced      .... 0
 Energy Change          TolE            ....  1.000e-06 Eh
 1-El. energy change                    ....  1.000e-03 Eh
 Orbital Gradient       TolG            ....  3.330e-04
 Orbital Rotation angle TolX            ....  3.330e-04
 DIIS Error             TolErr          ....  1.000e-06

---------------------
INITIAL GUESS: MOREAD
---------------------
Guess MOs are being read from file: sp_gas.ges
Input Geometry matches current geometry (good)
Atom 0: N(Shells)= 9 and 6 - projection required
Input basis set needs projection
NBasis(read)= 136
NBasis(calc)= 222
Basis set overlap was calculated
Using GuessMode=FMatrix for the initial guess
C*T matrix was formed
Effective Fockian was calculated
Effective Fockian was diagonalized
Initial density was built
                      ------------------
                      INITIAL GUESS DONE (   0.1 sec)
                      ------------------
             **** ENERGY FILE WAS UPDATED (sp_gas.en.tmp) ****
Finished Guess after   0.4 sec
Maximum memory used throughout the entire GUESS-calculation: 14.7 MB

-------------------------------------------------------------------------------------------
                                      ORCA LEAN-SCF
                              memory conserving SCF solver
-------------------------------------------------------------------------------------------

----------------------------------------D-I-I-S--------------------------------------------
Iteration    Energy (Eh)           Delta-E    RMSDP     MaxDP     DIISErr   Damp  Time(sec)
-------------------------------------------------------------------------------------------
               ***  Starting incremental Fock matrix formation  ***
    1    -386.0495200109973553     0.00e+00  3.76e-03  1.64e-01  6.26e-01  0.700   3.0
    2    -386.1072490474661549    -5.77e-02  3.03e-03  1.09e-01  4.40e-01  0.700   3.0
    3    -386.1480525311064298    -4.08e-02  2.21e-03  7.29e-02  3.08e-01  0.700   2.8
    4    -386.1766970585156855    -2.86e-02  1.58e-03  5.09e-02  2.16e-01  0.700   2.7
                               ***Turning on AO-DIIS***
    5    -386.1967875216749349    -2.01e-02  1.14e-03  3.66e-02  1.51e-01  0.700   2.6
    6    -386.2108693585436754    -1.41e-02  8.06e-04  2.58e-02  1.06e-01  0.700   2.9
    7    -386.2207402206540223    -9.87e-03  5.68e-04  1.82e-02  7.40e-02  0.700   2.7
    8    -386.2276556400811955    -6.92e-03  1.33e-03  4.23e-02  5.19e-02  0.000   2.7
                              *** Initializing SOSCF ***
---------------------------------------S-O-S-C-F--------------------------------------
Iteration    Energy (Eh)           Delta-E    RMSDP     MaxDP     MaxGrad    Time(sec)
--------------------------------------------------------------------------------------
    9    -386.2438117561052309    -1.62e-02  7.74e-06  2.38e-04  8.28e-05     2.8
                  *** Gradient check signals convergence ***

               *****************************************************
               *                     SUCCESS                       *
               *           SCF CONVERGED AFTER   9 CYCLES          *
               *****************************************************

             **** ENERGY FILE WAS UPDATED (sp_gas.en.tmp) ****

----------------
TOTAL SCF ENERGY
----------------

Total Energy       :       -386.24381175610523 Eh          -10510.22845 eV

Components:
Nuclear Repulsion  :        383.42361821072797 Eh           10433.48708 eV
Electronic Energy  :       -769.66742996683320 Eh          -20943.71553 eV
One Electron Energy:      -1284.04152952911136 Eh          -34940.54636 eV
Two Electron Energy:        514.37409956227816 Eh           13996.83083 eV

Virial components:
Potential Energy   :       -770.88232486864763 Eh          -20976.77450 eV
Kinetic Energy     :        384.63851311254246 Eh           10466.54605 eV
Virial Ratio       :          2.00417352550209

DFT components:
N(Alpha)           :       31.999986277984 electrons
N(Beta)            :       31.999986277984 electrons
N(Total)           :       63.999972555968 electrons
E(X)               :      -52.079386238317 Eh       
E(C)               :       -2.036660109993 Eh       
E(XC)              :      -54.116046348310 Eh       

---------------
SCF CONVERGENCE
---------------

  Last Energy change         ...    1.6156e-02  Tolerance :   1.0000e-06
  Last MAX-Density change    ...    2.3822e-04  Tolerance :   1.0000e-05
  Last RMS-Density change    ...    7.7379e-06  Tolerance :   1.0000e-06
  Last DIIS Error            ...    8.2779e-05  Tolerance :   1.0000e-06
  Last Orbital Gradient      ...    8.2779e-05  Tolerance :   3.3300e-04
  Last Orbital Rotation      ...    8.2779e-05  Tolerance :   3.3300e-04


----------------
ORBITAL ENERGIES
----------------

  NO   OCC          E(Eh)            E(eV) 
   0   2.0000     -18.994215      -516.8589 
   1   2.0000     -18.928211      -515.0628 
   2   2.0000     -10.150814      -276.2177 
   3   2.0000     -10.090893      -274.5872 
   4   2.0000     -10.041833      -273.2522 
   5   2.0000     -10.031446      -272.9695 
   6   2.0000     -10.028164      -272.8802 
   7   2.0000     -10.019015      -272.6312 
   8   2.0000      -1.070167       -29.1207 
   9   2.0000      -0.974237       -26.5103 
  10   2.0000      -0.771263       -20.9871 
  11   2.0000      -0.743059       -20.2197 
  12   2.0000      -0.680394       -18.5145 
  13   2.0000      -0.614017       -16.7082 
  14   2.0000      -0.562159       -15.2971 
  15   2.0000      -0.528302       -14.3758 
  16   2.0000      -0.468468       -12.7477 
  17   2.0000      -0.464679       -12.6446 
  18   2.0000      -0.440289       -11.9809 
  19   2.0000      -0.432061       -11.7570 
  20   2.0000      -0.394008       -10.7215 
  21   2.0000      -0.387338       -10.5400 
  22   2.0000      -0.373881       -10.1738 
  23   2.0000      -0.369902       -10.0656 
  24   2.0000      -0.356188        -9.6924 
  25   2.0000      -0.328169        -8.9299 
  26   2.0000      -0.324697        -8.8354 
  27   2.0000      -0.313656        -8.5350 
  28   2.0000      -0.309009        -8.4086 
  29   2.0000      -0.303242        -8.2516 
  30   2.0000      -0.270218        -7.3530 
  31   2.0000      -0.234938        -6.3930 
  32   0.0000      -0.011888        -0.3235 
  33   0.0000       0.077147         2.0993 
  34   0.0000       0.093106         2.5335 
  35   0.0000       0.102247         2.7823 
  36   0.0000       0.118492         3.2243 
  37   0.0000       0.131521         3.5789 
  38   0.0000       0.142635         3.8813 
  39   0.0000       0.144004         3.9185 
  40   0.0000       0.149310         4.0629 
  41   0.0000       0.161537         4.3956 
  42   0.0000       0.168073         4.5735 
*Only the first 10 virtual orbitals were printed.

                    ********************************
                    * MULLIKEN POPULATION ANALYSIS *
                    ********************************

-----------------------
MULLIKEN ATOMIC CHARGES
-----------------------
   0 C :   -0.465503
   1 C :   -0.226000
   2 C :   -0.294023
   3 C :    0.350296
   4 O :   -0.423208
   5 O :   -0.159411
   6 C :   -0.152554
   7 C :   -0.441298
   8 H :    0.139598
   9 H :    0.150414
  10 H :    0.140292
  11 H :    0.146881
  12 H :    0.151591
  13 H :    0.160314
  14 H :    0.159953
  15 H :    0.155052
  16 H :    0.156617
  17 H :    0.151900
  18 H :    0.151906
  19 H :    0.147185
Sum of atomic charges:   -0.0000000

--------------------------------
MULLIKEN REDUCED ORBITAL CHARGES
--------------------------------
  0 C s       :     3.330745  s :     3.330745
      pz      :     1.063589  p :     3.107649
      px      :     1.005547
      py      :     1.038513
      dz2     :     0.007683  d :     0.027109
      dxz     :     0.002959
      dyz     :     0.003746
      dx2y2   :     0.006744
      dxy     :     0.005977

  1 C s       :     3.198939  s :     3.198939
      pz      :     1.086698  p :     2.990507
      px      :     0.898543
      py      :     1.005266
      dz2     :     0.009268  d :     0.036554
      dxz     :     0.005106
      dyz     :     0.004619
      dx2y2   :     0.009208
      dxy     :     0.008352

  2 C s       :     3.197133  s :     3.197133
      pz      :     1.075317  p :     3.061384
      px      :     0.949298
      py      :     1.036769
      dz2     :     0.008500  d :     0.035506
      dxz     :     0.005609
      dyz     :     0.004023
      dx2y2   :     0.008291
      dxy     :     0.009084

  3 C s       :     3.145407  s :     3.145407
      pz      :     0.763464  p :     2.379684
      px      :     0.838882
      py      :     0.777338
      dz2     :     0.018676  d :     0.124614
      dxz     :     0.024134
      dyz     :     0.015636
      dx2y2   :     0.025515
      dxy     :     0.040653

  4 O s       :     3.848334  s :     3.848334
      pz      :     1.403287  p :     4.556105
      px      :     1.809455
      py      :     1.343362
      dz2     :     0.006190  d :     0.018770
      dxz     :     0.000837
      dyz     :     0.007448
      dx2y2   :     0.004006
      dxy     :     0.000290

  5 O s       :     3.702870  s :     3.702870
      pz      :     1.706863  p :     4.423096
      px      :     1.061180
      py      :     1.655053
      dz2     :     0.003936  d :     0.033446
      dxz     :     0.009307
      dyz     :     0.006312
      dx2y2   :    -0.000509
      dxy     :     0.014400

  6 C s       :     3.288004  s :     3.288004
      pz      :     1.066169  p :     2.810608
      px      :     0.747261
      py      :     0.997179
      dz2     :     0.012691  d :     0.053942
      dxz     :     0.009715
      dyz     :     0.004795
      dx2y2   :     0.013877
      dxy     :     0.012864

  7 C s       :     3.311486  s :     3.311486
      pz      :     1.066913  p :     3.104002
      px      :     0.994138
      py      :     1.042952
      dz2     :     0.007889  d :     0.025810
      dxz     :     0.003465
      dyz     :     0.003074
      dx2y2   :     0.005696
      dxy     :     0.005686

  8 H s       :     0.842110  s :     0.842110
      pz      :     0.010838  p :     0.018293
      px      :     0.003625
      py      :     0.003830

  9 H s       :     0.831244  s :     0.831244
      pz      :     0.004221  p :     0.018342
      px      :     0.009003
      py      :     0.005119

 10 H s       :     0.841417  s :     0.841417
      pz      :     0.004956  p :     0.018292
      px      :     0.003616
      py      :     0.009719

 11 H s       :     0.835162  s :     0.835162
      pz      :     0.004656  p :     0.017957
      px      :     0.003340
      py      :     0.009962

 12 H s       :     0.830443  s :     0.830443
      pz      :     0.010991  p :     0.017966
      px      :     0.003323
      py      :     0.003653

 13 H s       :     0.821492  s :     0.821492
      pz      :     0.004778  p :     0.018194
      px      :     0.003391
      py      :     0.010025

 14 H s       :     0.821893  s :     0.821893
      pz      :     0.011040  p :     0.018154
      px      :     0.003334
      py      :     0.003780

 15 H s       :     0.827507  s :     0.827507
      pz      :     0.011764  p :     0.017441
      px      :     0.002488
      py      :     0.003189

 16 H s       :     0.825919  s :     0.825919
      pz      :     0.004075  p :     0.017464
      px      :     0.002446
      py      :     0.010942

 17 H s       :     0.829852  s :     0.829852
      pz      :     0.011057  p :     0.018247
      px      :     0.003581
      py      :     0.003610

 18 H s       :     0.829845  s :     0.829845
      pz      :     0.004410  p :     0.018249
      px      :     0.003530
      py      :     0.010309

 19 H s       :     0.834387  s :     0.834387
      pz      :     0.004079  p :     0.018429
      px      :     0.009506
      py      :     0.004844


------------------------
MULLIKEN OVERLAP CHARGES
------------------------
B(  0-C ,  1-C ) :   0.4641 B(  0-C ,  2-C ) :  -0.2002 B(  0-C ,  8-H ) :   0.8435 
B(  0-C ,  9-H ) :   0.8176 B(  0-C , 10-H ) :   0.8527 B(  0-C , 11-H ) :  -0.0640 
B(  0-C , 12-H ) :  -0.0704 B(  1-C ,  2-C ) :   0.4984 B(  1-C ,  3-C ) :  -0.0928 
B(  1-C ,  4-O ) :   0.0795 B(  1-C ,  8-H ) :  -0.0872 B(  1-C ,  9-H ) :  -0.0882 
B(  1-C , 10-H ) :  -0.0961 B(  1-C , 11-H ) :   0.8252 B(  1-C , 12-H ) :   0.8338 
B(  1-C , 13-H ) :  -0.0770 B(  1-C , 14-H ) :  -0.0742 B(  2-C ,  3-C ) :   0.5144 
B(  2-C ,  4-O ) :  -0.2294 B(  2-C ,  5-O ) :  -0.1365 B(  2-C , 13-H ) :   0.8112 
B(  2-C , 14-H ) :   0.8240 B(  3-C ,  4-O ) :   0.9836 B(  3-C ,  5-O ) :   0.5298 
B(  3-C ,  6-C ) :  -0.1911 B(  4-O ,  5-O ) :  -0.2330 B(  5-O ,  6-C ) :   0.2703 
B(  5-O ,  7-C ) :  -0.1027 B(  5-O , 15-H ) :  -0.0704 B(  5-O , 16-H ) :  -0.0701 
B(  6-C ,  7-C ) :   0.4697 B(  6-C , 15-H ) :   0.8107 B(  6-C , 16-H ) :   0.8190 
B(  6-C , 17-H ) :  -0.0645 B(  6-C , 18-H ) :  -0.0624 B(  6-C , 19-H ) :  -0.0757 
B(  7-C , 15-H ) :  -0.0538 B(  7-C , 16-H ) :  -0.0548 B(  7-C , 17-H ) :   0.8268 
B(  7-C , 18-H ) :   0.8252 B(  7-C , 19-H ) :   0.8189 B(  8-H , 10-H ) :  -0.0555 
B( 15-H , 16-H ) :  -0.0638 


                     *******************************
                     * LOEWDIN POPULATION ANALYSIS *
                     *******************************

----------------------
LOEWDIN ATOMIC CHARGES
----------------------
   0 C :   -0.422063
   1 C :   -0.297008
   2 C :   -0.233159
   3 C :    0.360701
   4 O :   -0.428982
   5 O :   -0.599803
   6 C :    0.033280
   7 C :   -0.386715
   8 H :    0.149483
   9 H :    0.152589
  10 H :    0.149514
  11 H :    0.161188
  12 H :    0.163352
  13 H :    0.181540
  14 H :    0.180939
  15 H :    0.178279
  16 H :    0.179089
  17 H :    0.159192
  18 H :    0.159269
  19 H :    0.159313

-------------------------------
LOEWDIN REDUCED ORBITAL CHARGES
-------------------------------
  0 C s       :     2.971740  s :     2.971740
      pz      :     1.148595  p :     3.386699
      px      :     1.104226
      py      :     1.133877
      dz2     :     0.019011  d :     0.063624
      dxz     :     0.006245
      dyz     :     0.009016
      dx2y2   :     0.015192
      dxy     :     0.014161

  1 C s       :     2.932828  s :     2.932828
      pz      :     1.142016  p :     3.284789
      px      :     1.030980
      py      :     1.111792
      dz2     :     0.021370  d :     0.079391
      dxz     :     0.009899
      dyz     :     0.010152
      dx2y2   :     0.019535
      dxy     :     0.018436

  2 C s       :     2.920315  s :     2.920315
      pz      :     1.122265  p :     3.237845
      px      :     1.020433
      py      :     1.095146
      dz2     :     0.019680  d :     0.075000
      dxz     :     0.010289
      dyz     :     0.008661
      dx2y2   :     0.017819
      dxy     :     0.018550

  3 C s       :     2.733578  s :     2.733578
      pz      :     0.797435  p :     2.633869
      px      :     0.921559
      py      :     0.914876
      dz2     :     0.035292  d :     0.271853
      dxz     :     0.051391
      dyz     :     0.039691
      dx2y2   :     0.055494
      dxy     :     0.089984

  4 O s       :     3.547710  s :     3.547710
      pz      :     1.444743  p :     4.660602
      px      :     1.749984
      py      :     1.465875
      dz2     :     0.031451  d :     0.220670
      dxz     :     0.028291
      dyz     :     0.060164
      dx2y2   :     0.048463
      dxy     :     0.052300

  5 O s       :     3.463100  s :     3.463100
      pz      :     1.693640  p :     4.662924
      px      :     1.309321
      py      :     1.659963
      dz2     :     0.072016  d :     0.473778
      dxz     :     0.103193
      dyz     :     0.039489
      dx2y2   :     0.140310
      dxy     :     0.118771

  6 C s       :     2.868543  s :     2.868543
      pz      :     1.078730  p :     2.977575
      px      :     0.864186
      py      :     1.034658
      dz2     :     0.029910  d :     0.120603
      dxz     :     0.020620
      dyz     :     0.009852
      dx2y2   :     0.031020
      dxy     :     0.029202

  7 C s       :     2.970925  s :     2.970925
      pz      :     1.142644  p :     3.354987
      px      :     1.081368
      py      :     1.130976
      dz2     :     0.019374  d :     0.060803
      dxz     :     0.007362
      dyz     :     0.007230
      dx2y2   :     0.013605
      dxy     :     0.013231

  8 H s       :     0.807159  s :     0.807159
      pz      :     0.026900  p :     0.043358
      px      :     0.008075
      py      :     0.008383

  9 H s       :     0.803932  s :     0.803932
      pz      :     0.009430  p :     0.043479
      px      :     0.021966
      py      :     0.012083

 10 H s       :     0.807138  s :     0.807138
      pz      :     0.011520  p :     0.043348
      px      :     0.008059
      py      :     0.023769

 11 H s       :     0.795725  s :     0.795725
      pz      :     0.011065  p :     0.043087
      px      :     0.007535
      py      :     0.024486

 12 H s       :     0.793376  s :     0.793376
      pz      :     0.027424  p :     0.043271
      px      :     0.007502
      py      :     0.008346

 13 H s       :     0.774191  s :     0.774191
      pz      :     0.011482  p :     0.044269
      px      :     0.008015
      py      :     0.024772

 14 H s       :     0.774836  s :     0.774836
      pz      :     0.027533  p :     0.044225
      px      :     0.007858
      py      :     0.008834

 15 H s       :     0.780821  s :     0.780821
      pz      :     0.027966  p :     0.040900
      px      :     0.005811
      py      :     0.007123

 16 H s       :     0.779903  s :     0.779903
      pz      :     0.009575  p :     0.041008
      px      :     0.005876
      py      :     0.025557

 17 H s       :     0.797430  s :     0.797430
      pz      :     0.027627  p :     0.043377
      px      :     0.007809
      py      :     0.007941

 18 H s       :     0.797353  s :     0.797353
      pz      :     0.010183  p :     0.043378
      px      :     0.007605
      py      :     0.025590

 19 H s       :     0.796864  s :     0.796864
      pz      :     0.009280  p :     0.043822
      px      :     0.023044
      py      :     0.011498


---------------------------------
LOEWDIN BOND ORDERS (THRESH 0.050000)
---------------------------------
B(  0-C ,  1-C ) :   1.1448 B(  0-C ,  2-C ) :   0.0768 B(  0-C ,  8-H ) :   0.9288 
B(  0-C ,  9-H ) :   0.9288 B(  0-C , 10-H ) :   0.9291 B(  1-C ,  2-C ) :   1.0859 
B(  1-C ,  3-C ) :   0.0724 B(  1-C ,  4-O ) :   0.0514 B(  1-C , 11-H ) :   0.8895 
B(  1-C , 12-H ) :   0.8876 B(  2-C ,  3-C ) :   0.9247 B(  2-C ,  4-O ) :   0.1770 
B(  2-C ,  5-O ) :   0.1861 B(  2-C , 13-H ) :   0.8605 B(  2-C , 14-H ) :   0.8616 
B(  3-C ,  4-O ) :   2.1666 B(  3-C ,  5-O ) :   1.4520 B(  3-C ,  6-C ) :   0.0891 
B(  4-O ,  5-O ) :   0.4611 B(  4-O ,  6-C ) :   0.0716 B(  5-O ,  6-C ) :   1.2901 
B(  5-O ,  7-C ) :   0.1682 B(  5-O , 15-H ) :   0.0937 B(  5-O , 16-H ) :   0.0935 
B(  6-C ,  7-C ) :   1.0925 B(  6-C , 15-H ) :   0.8259 B(  6-C , 16-H ) :   0.8250 
B(  7-C , 17-H ) :   0.9224 B(  7-C , 18-H ) :   0.9222 B(  7-C , 19-H ) :   0.9195 


------------------------------------------
LOEWDIN REDUCED ORBITAL POPULATIONS PER MO
-------------------------------------------
THRESHOLD FOR PRINTING IS 0.1%%
                      0         1         2         3         4         5   
                 -18.99422 -18.92821 -10.15081 -10.09089 -10.04183 -10.03145
                   2.00000   2.00000   2.00000   2.00000   2.00000   2.00000
                  --------  --------  --------  --------  --------  --------
 2 C  s               0.0       0.0       0.0       0.0      99.7       0.0
 3 C  s               0.0       0.0      98.9       0.0       0.0       0.0
 4 O  s               0.0      99.9       0.0       0.0       0.0       0.0
 4 O  py              0.0       0.0       0.1       0.0       0.0       0.0
 4 O  dyz             0.0       0.0       0.2       0.0       0.0       0.0
 4 O  dx2y2           0.0       0.0       0.1       0.0       0.0       0.0
 5 O  s              99.9       0.0       0.0       0.0       0.0       0.0
 5 O  dxy             0.0       0.0       0.1       0.1       0.0       0.0
 6 C  s               0.0       0.0       0.0      99.4       0.0       0.0
 7 C  s               0.0       0.0       0.0       0.0       0.0      99.7

                      6         7         8         9        10        11   
                 -10.02816 -10.01901  -1.07017  -0.97424  -0.77126  -0.74306
                   2.00000   2.00000   2.00000   2.00000   2.00000   2.00000
                  --------  --------  --------  --------  --------  --------
 0 C  s               0.0      99.7       0.0       0.0       7.6       6.1
 0 C  pz              0.0       0.0       0.0       0.0       0.1       0.1
 0 C  px              0.1       0.0       0.0       0.0       1.7       0.6
 0 C  py              0.0       0.0       0.0       0.0       0.4       0.2
 1 C  s              99.7       0.0       0.1       0.1      17.4       8.2
 1 C  pz              0.0       0.0       0.0       0.0       0.4       0.1
 1 C  px              0.0       0.1       0.2       0.2       0.5       0.1
 1 C  py              0.0       0.0       0.0       0.0       1.1       0.3
 2 C  s               0.0       0.0       1.0       0.2      20.8       1.7
 2 C  pz              0.0       0.0       0.1       0.2       0.1       0.0
 2 C  px              0.1       0.0       1.5       0.0       0.5       2.8
 2 C  py              0.0       0.0       0.4       0.4       0.3       0.1
 3 C  s               0.0       0.0      16.3       4.0       2.8       0.8
 3 C  pz              0.0       0.0       0.0       6.3       1.6       0.3
 3 C  px              0.0       0.0       5.0       3.3       3.7       1.3
 3 C  py              0.0       0.0       0.1      13.5       4.2       0.7
 3 C  dz2             0.0       0.0       0.1       0.0       0.0       0.0
 3 C  dxz             0.0       0.0       0.2       0.1       0.0       0.0
 3 C  dyz             0.0       0.0       0.5       0.7       0.0       0.0
 3 C  dx2y2           0.0       0.0       0.0       1.0       0.1       0.0
 3 C  dxy             0.0       0.0       0.3       0.1       0.0       0.1
 4 O  s               0.0       0.0      12.1      42.1       1.6       0.2
 4 O  pz              0.0       0.0       0.9       1.1       0.1       0.0
 4 O  px              0.0       0.0       0.1       0.0       0.2       0.0
 4 O  py              0.0       0.0       2.1       2.6       0.3       0.0
 4 O  dxz             0.0       0.0       0.1       0.1       0.1       0.0
 4 O  dyz             0.0       0.0       0.8       0.1       0.3       0.1
 4 O  dx2y2           0.0       0.0       0.2       0.1       0.1       0.2
 4 O  dxy             0.0       0.0       0.3       0.1       0.2       0.0
 5 O  s               0.0       0.0      41.6      16.3       0.0       0.9
 5 O  pz              0.0       0.0       0.8       0.1       0.0       0.0
 5 O  px              0.0       0.0       0.5       0.8       5.9       9.2
 5 O  py              0.0       0.0       1.7       0.2       0.2       0.1
 5 O  dz2             0.0       0.0       0.2       0.0       0.0       0.3
 5 O  dxz             0.0       0.0       0.1       0.3       0.0       0.2
 5 O  dyz             0.0       0.0       0.2       0.3       0.0       0.0
 5 O  dx2y2           0.0       0.0       0.2       0.1       0.1       0.6
 5 O  dxy             0.0       0.0       0.1       0.8       0.1       0.5
 6 C  s               0.0       0.0       4.5       1.9       4.9      16.3
 6 C  pz              0.0       0.0       0.2       0.2       0.1       0.4
 6 C  px              0.0       0.0       4.7       1.0       0.3       2.8
 6 C  py              0.0       0.0       0.6       0.6       0.2       0.5
 6 C  dx2y2           0.0       0.0       0.1       0.1       0.0       0.0
 6 C  dxy             0.0       0.0       0.2       0.1       0.0       0.0
 7 C  s               0.0       0.0       0.3       0.2       3.3      19.8
 7 C  pz              0.0       0.0       0.0       0.0       0.1       0.3
 7 C  px              0.0       0.0       0.6       0.3       0.4       1.0
 7 C  py              0.0       0.0       0.1       0.0       0.1       0.5
 8 H  s               0.0       0.0       0.0       0.0       1.0       0.9
 9 H  s               0.0       0.0       0.0       0.0       1.0       0.9
10 H  s               0.0       0.0       0.0       0.0       1.0       0.9
11 H  s               0.0       0.0       0.0       0.0       2.2       1.2
11 H  py              0.0       0.0       0.0       0.0       0.2       0.1
12 H  s               0.0       0.0       0.0       0.0       2.2       1.2
12 H  pz              0.0       0.0       0.0       0.0       0.2       0.1
13 H  s               0.0       0.0       0.1       0.0       3.1       0.2
13 H  py              0.0       0.0       0.0       0.0       0.3       0.0
14 H  s               0.0       0.0       0.1       0.0       3.1       0.2
14 H  pz              0.0       0.0       0.0       0.0       0.3       0.0
15 H  s               0.0       0.0       0.3       0.1       0.7       2.6
15 H  pz              0.0       0.0       0.0       0.0       0.1       0.2
16 H  s               0.0       0.0       0.3       0.1       0.7       2.5
16 H  py              0.0       0.0       0.0       0.0       0.1       0.2
17 H  s               0.0       0.0       0.0       0.0       0.5       3.1
17 H  pz              0.0       0.0       0.0       0.0       0.0       0.3
18 H  s               0.0       0.0       0.0       0.0       0.5       3.1
18 H  py              0.0       0.0       0.0       0.0       0.0       0.3
19 H  s               0.0       0.0       0.0       0.0       0.5       3.3
19 H  px              0.0       0.0       0.0       0.0       0.0       0.2

                     12        13        14        15        16        17   
                  -0.68039  -0.61402  -0.56216  -0.52830  -0.46847  -0.46468
                   2.00000   2.00000   2.00000   2.00000   2.00000   2.00000
                  --------  --------  --------  --------  --------  --------
 0 C  s              19.8       6.7       6.8       0.4       0.0       0.4
 0 C  pz              0.0       0.1       0.9       0.4       1.0       0.1
 0 C  px              0.1       1.1       3.3       0.2       0.0       4.5
 0 C  py              0.1       0.2       3.2       1.2       0.2       0.2
 0 C  dxy             0.0       0.0       0.1       0.0       0.0       0.0
 1 C  s               2.8       1.5      13.0       2.6       0.0       0.1
 1 C  pz              0.0       0.0       1.3       0.6       3.4       1.2
 1 C  px              9.2       3.6       0.2       0.4       0.0       0.0
 1 C  py              0.1       0.2       4.4       2.2       0.6       4.3
 1 C  dxy             0.2       0.1       0.0       0.0       0.0       0.0
 2 C  s              11.1       2.8       2.2       2.5       0.0       1.1
 2 C  pz              0.0       0.0       0.7       0.7       8.7       3.4
 2 C  px              3.5       1.9       4.3       0.1       0.1       8.4
 2 C  py              0.0       0.0       2.4       2.5       1.8      12.9
 2 C  dxy             0.0       0.0       0.1       0.0       0.0       0.2
 3 C  s               2.6       1.6       0.8       2.5       0.0       3.0
 3 C  pz              0.9       0.4       0.1       0.4       9.0       0.3
 3 C  px              3.8       1.8       1.0       2.6       0.0      15.0
 3 C  py              2.6       0.7       0.5       0.6       4.0       0.2
 3 C  dxy             0.1       0.1       0.1       0.0       0.0       0.0
 4 O  s               0.7       0.1       0.1       2.3       0.0       2.8
 4 O  pz              0.1       0.1       0.1       0.7       2.8       2.2
 4 O  px              0.2       0.1       0.1       0.9       0.0       7.7
 4 O  py              0.3       0.1       0.2       1.3       2.0       4.3
 4 O  dz2             0.0       0.0       0.0       0.0       0.6       0.0
 4 O  dxz             0.1       0.0       0.0       0.1       0.0       0.3
 4 O  dyz             0.2       0.1       0.0       0.2       0.1       0.2
 4 O  dx2y2           0.1       0.2       0.0       0.0       0.2       0.1
 4 O  dxy             0.2       0.0       0.0       0.1       0.0       0.8
 5 O  s               1.0       0.0       1.9       3.7       0.0       0.2
 5 O  pz              0.0       0.1       0.3       2.6      14.1       2.1
 5 O  px              1.8      16.1       0.0      15.4       0.1       2.5
 5 O  py              0.1       0.3       0.6       4.8       6.8       1.7
 5 O  dz2             0.4       0.0       0.2       0.0       0.4       0.2
 5 O  dxz             0.0       0.4       0.2       0.1       0.0       0.1
 5 O  dyz             0.0       0.0       0.0       0.1       0.1       0.2
 5 O  dx2y2           1.3       0.0       0.3       0.0       0.2       1.0
 5 O  dxy             0.0       0.9       0.5       0.2       0.0       0.1
 6 C  s               0.4       5.6       4.7       3.8       0.0       0.3
 6 C  pz              0.1       0.6       1.3       4.3      13.3       1.4
 6 C  px              3.0       4.4       0.2       3.1       0.0       0.0
 6 C  py              0.1       0.9       2.9      10.6       6.7       1.1
 6 C  dyz             0.0       0.0       0.0       0.1       0.0       0.0
 6 C  dxy             0.1       0.2       0.0       0.2       0.0       0.0
 7 C  s               7.4      14.3       1.9       0.1       0.0       0.3
 7 C  pz              0.0       0.5       0.8       1.2       4.3       0.0
 7 C  px              0.1       3.0       0.7       0.2       0.0       2.7
 7 C  py              0.0       0.7       1.4       2.8       2.0       0.1
 8 H  s               3.9       1.9       3.4       0.5       0.2       0.1
 8 H  pz              0.3       0.2       0.2       0.0       0.0       0.0
 9 H  s               4.2       2.2       2.7       0.1       0.0       1.9
 9 H  px              0.3       0.1       0.1       0.0       0.0       0.0
10 H  s               3.9       1.9       3.5       0.5       0.2       0.1
10 H  py              0.3       0.1       0.2       0.0       0.0       0.0
11 H  s               0.5       0.5       5.8       1.7       0.6       0.3
11 H  pz              0.0       0.0       0.1       0.0       0.0       0.0
11 H  py              0.0       0.0       0.3       0.1       0.0       0.0
12 H  s               0.5       0.5       5.8       1.6       0.8       0.3
12 H  pz              0.0       0.0       0.4       0.1       0.0       0.0
13 H  s               2.6       0.6       1.7       1.9       1.6       3.8
13 H  pz              0.0       0.0       0.0       0.0       0.0       0.1
13 H  py              0.2       0.0       0.1       0.1       0.1       0.1
14 H  s               2.6       0.6       1.6       1.8       2.6       3.2
14 H  pz              0.2       0.0       0.1       0.1       0.1       0.1
15 H  s               0.1       1.8       3.0       5.0       3.9       0.2
15 H  pz              0.0       0.2       0.2       0.3       0.1       0.0
16 H  s               0.1       1.8       2.9       5.2       4.0       0.0
16 H  pz              0.0       0.0       0.0       0.1       0.0       0.0
16 H  py              0.0       0.1       0.1       0.2       0.2       0.0
17 H  s               1.5       4.4       1.1       0.5       1.2       0.1
17 H  pz              0.1       0.3       0.1       0.0       0.0       0.0
18 H  s               1.5       4.4       1.1       0.5       1.2       0.2
18 H  py              0.1       0.3       0.1       0.0       0.0       0.0
19 H  s               1.8       5.2       0.6       0.1       0.0       1.1
19 H  px              0.1       0.3       0.0       0.0       0.0       0.0

                     18        19        20        21        22        23   
                  -0.44029  -0.43206  -0.39401  -0.38734  -0.37388  -0.36990
                   2.00000   2.00000   2.00000   2.00000   2.00000   2.00000
                  --------  --------  --------  --------  --------  --------
 0 C  pz              6.4       0.8      10.5       6.9       0.1       2.0
 0 C  px              0.0       0.4       0.2      10.5       5.3       0.0
 0 C  py              2.3       0.6       6.5      11.2       0.3       5.6
 1 C  s               0.0       0.1       0.0       0.1       0.2       0.0
 1 C  pz             13.2       1.4       5.3       2.4       0.3       0.0
 1 C  px              0.0       1.0       0.2       4.5       3.0       4.0
 1 C  py              5.0       1.0       2.9       3.9       1.1       0.1
 2 C  s               0.0       0.1       0.0       0.5       0.3       0.0
 2 C  pz             13.2       0.0       1.0       2.0       0.6       1.7
 2 C  px              0.0       2.3       0.2       4.2       0.1       0.0
 2 C  py              4.3       0.5       1.1       3.7       1.9       4.9
 2 C  dxz             0.0       0.0       0.1       0.0       0.0       0.0
 2 C  dx2y2           0.0       0.0       0.0       0.1       0.0       0.1
 3 C  s               0.0       1.7       0.0       0.0       0.3       0.1
 3 C  pz              0.8       1.5       8.4       0.2       0.2       1.3
 3 C  px              0.0       0.3       0.0       0.1       1.6       0.2
 3 C  py              0.1       4.2       3.7       0.0       0.4       3.3
 3 C  dx2y2           0.0       0.1       0.0       0.0       0.2       0.2
 3 C  dxy             0.0       0.1       0.0       0.2       0.0       0.0
 4 O  s               0.1      12.2       0.0       0.0       0.4       1.6
 4 O  pz              0.0      10.2       6.3       0.0       0.9       3.9
 4 O  px              0.0       1.0       0.1       1.4       1.0       0.0
 4 O  py              0.5      21.6       2.8       0.3       2.2       8.2
 4 O  dz2             0.0       0.0       0.4       0.0       0.0       0.1
 4 O  dxz             0.1       0.0       0.0       0.0       0.0       0.0
 4 O  dyz             0.0       0.3       0.1       0.0       0.0       0.1
 4 O  dx2y2           0.0       0.1       0.1       0.0       0.1       0.1
 5 O  s               0.0       1.7       0.0       1.3       0.4       0.6
 5 O  pz              0.9       5.4       5.2       0.7       0.6       1.1
 5 O  px              0.0       3.1       0.1       0.7       3.5       0.6
 5 O  py              1.5      11.9       1.6       4.0       1.6       1.7
 5 O  dz2             0.1       0.0       0.1       0.0       0.2       0.0
 5 O  dxz             1.0       0.1       1.2       0.1       0.2       0.0
 5 O  dx2y2           0.1       0.1       0.0       0.0       0.6       0.0
 5 O  dxy             0.3       0.5       0.6       0.0       0.2       0.0
 6 C  s               0.0       0.4       0.0       0.0       0.4       0.1
 6 C  pz              8.6       0.0       1.7       0.2       1.4       1.1
 6 C  px              0.2       5.1       0.1       3.3       7.7       3.0
 6 C  py              4.0       0.4       0.8       0.0       2.3       1.9
 6 C  dxz             0.0       0.0       0.1       0.0       0.1       0.0
 6 C  dx2y2           0.0       0.1       0.0       0.0       0.1       0.1
 6 C  dxy             0.0       0.0       0.0       0.0       0.3       0.0
 7 C  s               0.0       0.2       0.0       0.0       0.1       0.1
 7 C  pz              5.8       0.8      10.3       1.4       0.1       7.8
 7 C  px              0.0       0.6       0.1       0.2      35.5       2.3
 7 C  py              2.0       3.0       3.5       7.0       1.2      15.8
 7 C  dz2             0.0       0.0       0.1       0.0       0.0       0.1
 7 C  dxz             0.0       0.0       0.0       0.0       0.1       0.0
 7 C  dx2y2           0.0       0.0       0.0       0.0       0.1       0.2
 7 C  dxy             0.0       0.0       0.0       0.0       0.3       0.0
 8 H  s               1.8       0.3       3.4       3.8       0.1       1.5
 8 H  pz              0.0       0.0       0.1       0.1       0.0       0.0
 9 H  s               0.0       0.4       0.2      10.7       1.4       1.0
 9 H  px              0.0       0.0       0.0       0.2       0.0       0.0
10 H  s               1.9       0.0       5.5       1.7       0.1       1.3
10 H  pz              0.0       0.0       0.0       0.1       0.0       0.1
10 H  py              0.1       0.0       0.2       0.0       0.0       0.0
11 H  s               3.7       0.2       2.3       0.4       0.0       0.0
11 H  py              0.2       0.0       0.1       0.0       0.0       0.0
12 H  s               3.2       0.8       1.5       1.0       0.0       0.0
13 H  s               4.0       0.1       0.9       1.8       0.1       1.1
13 H  py              0.1       0.0       0.0       0.0       0.0       0.0
14 H  s               3.9       0.0       0.3       2.7       0.1       1.2
15 H  s               3.1       0.2       0.7       0.0       0.0       0.9
16 H  s               2.7       0.5       0.7       0.0       0.0       0.9
16 H  py              0.1       0.0       0.0       0.0       0.0       0.0
17 H  s               1.9       0.6       4.3       0.9       0.4       5.0
17 H  px              0.0       0.0       0.0       0.0       0.3       0.0
17 H  py              0.0       0.0       0.0       0.0       0.0       0.1
18 H  s               1.4       1.0       3.4       2.3       0.4       4.4
18 H  pz              0.0       0.0       0.0       0.1       0.0       0.2
18 H  px              0.0       0.0       0.0       0.0       0.3       0.0
18 H  py              0.1       0.0       0.1       0.0       0.0       0.0
19 H  s               0.0       0.0       0.0       1.4      17.9       7.0
19 H  px              0.0       0.0       0.0       0.1       0.1       0.2
19 H  py              0.0       0.0       0.0       0.0       0.1       0.0

                     24        25        26        27        28        29   
                  -0.35619  -0.32817  -0.32470  -0.31366  -0.30901  -0.30324
                   2.00000   2.00000   2.00000   2.00000   2.00000   2.00000
                  --------  --------  --------  --------  --------  --------
 0 C  s               0.0       0.4       0.0       0.4       0.1       0.0
 0 C  pz             11.8       1.2       2.7       3.8       0.2       8.5
 0 C  px              0.0      15.6       0.0       0.2      11.4       0.0
 0 C  py              3.9       4.3       1.5      11.7       0.6       2.3
 0 C  dz2             0.1       0.0       0.0       0.2       0.0       0.4
 0 C  dyz             0.1       0.0       0.0       0.0       0.0       0.2
 0 C  dx2y2           0.0       0.0       0.0       0.3       0.2       0.1
 0 C  dxy             0.0       0.2       0.0       0.0       0.2       0.0
 1 C  s               0.0       0.1       0.0       0.4       0.0       0.0
 1 C  pz              0.0       1.4       0.9       5.0       0.2      19.3
 1 C  px              0.0      12.7       0.0       0.3      11.1       0.0
 1 C  py              0.0       5.3       0.6      15.9       0.9       5.3
 1 C  dz2             0.0       0.0       0.0       0.3       0.0       0.6
 1 C  dxz             0.1       0.1       0.0       0.0       0.1       0.0
 1 C  dyz             0.0       0.0       0.0       0.0       0.0       0.3
 1 C  dx2y2           0.0       0.0       0.0       0.5       0.1       0.2
 1 C  dxy             0.0       0.2       0.0       0.0       0.2       0.0
 2 C  s               0.0       0.3       0.0       0.9       0.2       0.0
 2 C  pz             12.0       0.0       2.7       2.0       0.1       5.5
 2 C  px              0.0       2.4       0.0       2.5      13.2       0.0
 2 C  py              4.0       0.0       0.8       7.6       0.4       1.5
 2 C  dz2             0.1       0.0       0.1       0.1       0.0       0.3
 2 C  dyz             0.1       0.0       0.0       0.0       0.0       0.1
 2 C  dx2y2           0.0       0.1       0.0       0.3       0.0       0.1
 2 C  dxy             0.0       0.2       0.0       0.0       0.2       0.0
 3 C  s               0.0       0.1       0.0       0.1       0.6       0.0
 3 C  pz              0.4       0.1       5.6       0.5       1.0       0.2
 3 C  px              0.0       4.4       0.0       0.1       0.6       0.0
 3 C  py              0.1       0.2       2.5       1.6       1.9       0.1
 3 C  dz2             0.0       0.0       0.3       0.0       0.0       0.2
 3 C  dxz             0.2       0.0       0.0       0.0       0.1       0.0
 3 C  dx2y2           0.0       0.1       0.1       0.4       0.1       0.1
 3 C  dxy             0.1       0.0       0.0       0.0       0.2       0.0
 4 O  s               0.0       0.0       0.0       0.6       0.5       0.0
 4 O  pz              0.9       0.2      15.8       2.1       0.8       3.7
 4 O  px              0.0       2.6       0.0       0.0       0.2       0.0
 4 O  py              0.6       0.6       6.8       2.9       3.4       1.6
 4 O  dz2             0.0       0.0       0.2       0.0       0.0       0.0
 4 O  dyz             0.0       0.0       0.1       0.1       0.1       0.0
 4 O  dx2y2           0.0       0.0       0.1       0.2       0.1       0.0
 5 O  s               0.0       0.6       0.0       0.4       2.4       0.0
 5 O  pz              6.0       2.5       0.0       2.1       5.4       0.1
 5 O  px              0.0       0.5       0.0       0.0       2.0       0.0
 5 O  py              2.9       4.8       0.0       4.3      13.6       0.1
 5 O  dz2             0.3       0.0       0.0       0.0       0.3       0.1
 5 O  dxz             0.0       0.1       0.7       0.1       0.0       0.0
 5 O  dyz             0.1       0.0       0.0       0.1       0.1       0.0
 5 O  dx2y2           0.1       0.2       0.0       0.3       1.4       0.0
 5 O  dxy             0.0       0.1       0.3       0.1       0.0       0.0
 6 C  s               0.0       0.2       0.0       0.1       0.4       0.0
 6 C  pz              1.1       2.9       8.6       0.9       1.5       0.0
 6 C  px              0.0       2.7       0.1       0.0       0.8       0.0
 6 C  py              0.5       5.9       3.8       1.4       4.7       0.0
 6 C  dz2             0.1       0.1       0.4       0.0       0.1       0.0
 6 C  dxz             0.1       0.1       0.0       0.0       0.0       0.0
 6 C  dx2y2           0.0       0.2       0.1       0.1       0.3       0.0
 6 C  dxy             0.1       0.1       0.0       0.0       0.0       0.0
 7 C  s               0.0       0.5       0.0       0.1       0.2       0.0
 7 C  pz             11.5       2.2       8.5       0.5       0.7       0.0
 7 C  px              0.0       5.3       0.0       0.6       0.2       0.0
 7 C  py              5.4       4.3       3.8       0.7       1.9       0.0
 7 C  dz2             0.2       0.0       0.3       0.0       0.0       0.0
 8 H  s               5.0       0.7       1.4       3.3       0.4       6.6
 8 H  px              0.0       0.1       0.0       0.0       0.1       0.0
 9 H  s               0.0       2.1       0.0       3.9       7.2       0.0
 9 H  px              0.0       0.0       0.0       0.1       0.0       0.0
 9 H  py              0.0       0.1       0.0       0.0       0.0       0.0
10 H  s               5.3       0.7       2.0       3.1       0.5       6.1
10 H  pz              0.0       0.0       0.0       0.1       0.0       0.0
10 H  px              0.0       0.2       0.0       0.0       0.1       0.0
10 H  py              0.1       0.0       0.0       0.0       0.0       0.1
11 H  s               0.0       1.1       0.6       5.3       0.5      12.3
11 H  pz              0.0       0.0       0.0       0.2       0.0       0.0
11 H  px              0.0       0.1       0.0       0.0       0.1       0.0
11 H  py              0.0       0.0       0.0       0.0       0.0       0.2
12 H  s               0.0       1.0       0.3       5.2       0.2      13.1
12 H  px              0.0       0.1       0.0       0.0       0.1       0.0
12 H  py              0.0       0.0       0.0       0.1       0.0       0.1
13 H  s               5.7       0.1       1.6       2.1       0.1       4.8
13 H  px              0.0       0.0       0.0       0.0       0.1       0.0
13 H  py              0.1       0.0       0.0       0.0       0.0       0.0
14 H  s               5.6       0.1       1.6       1.6       0.0       5.1
14 H  px              0.0       0.0       0.0       0.0       0.1       0.0
15 H  s               0.8       1.9       6.1       0.7       1.4       0.0
16 H  s               0.7       2.1       5.7       0.5       2.0       0.0
16 H  py              0.0       0.0       0.1       0.0       0.0       0.0
17 H  s               6.2       0.7       6.1       0.2       0.4       0.0
18 H  s               6.2       0.9       5.8       0.1       0.6       0.0
18 H  py              0.1       0.0       0.1       0.0       0.0       0.0
19 H  s               0.0       0.2       0.0       0.0       0.4       0.0

                     30        31        32        33        34        35   
                  -0.27022  -0.23494  -0.01189   0.07715   0.09311   0.10225
                   2.00000   2.00000   0.00000   0.00000   0.00000   0.00000
                  --------  --------  --------  --------  --------  --------
 0 C  s               0.0       0.0       0.0       2.1       2.8      13.3
 0 C  pz              0.1       0.0       0.1       0.1       0.2       0.1
 0 C  px              0.0       0.1       0.0       0.5       0.9       0.7
 0 C  py              0.0       0.0       0.0       0.2       0.6       0.3
 0 C  dx2y2           0.0       0.0       0.0       0.0       0.1       0.0
 0 C  dxy             0.0       0.0       0.0       0.1       0.1       0.3
 1 C  s               0.0       0.2       0.0       4.3       5.9       6.5
 1 C  pz              0.6       0.0       0.1       0.2       0.1       0.1
 1 C  px              0.0       0.1       0.0       0.9       1.4       2.0
 1 C  py              0.2       0.1       0.0       0.6       0.2       0.3
 1 C  dxy             0.0       0.0       0.0       0.0       0.0       0.1
 2 C  s               0.0       0.5       0.0      13.1       0.5       2.5
 2 C  pz              0.3       1.1       0.0       0.1       0.4       0.3
 2 C  px              0.0       3.0       0.0       1.5       2.3       3.9
 2 C  py              0.1       3.2       0.0       0.3       1.2       0.8
 2 C  dz2             0.0       0.0       0.7       0.1       0.3       0.0
 2 C  dxz             0.0       0.0       0.4       0.0       0.1       0.1
 2 C  dyz             0.0       0.0       0.4       0.1       0.1       0.0
 2 C  dx2y2           0.0       0.0       0.4       0.0       0.4       0.0
 2 C  dxy             0.0       0.0       0.2       0.0       0.3       0.4
[...]
 1 C  dz2             1.8       0.0       0.0       0.0       0.0       0.0
 1 C  dyz             0.2       0.0       0.0       0.0       0.0       0.0
 1 C  dx2y2           1.8       0.0       0.0       0.0       0.0       0.0
 1 C  dxy             0.2       0.0       0.0       0.0       0.0       0.0
 2 C  s               0.2       0.1       0.1       0.1      24.9       0.1
 2 C  px              3.5       0.0       0.1       0.0       0.0       0.0
 2 C  dxz             1.1       0.0       0.1       0.0       0.0       0.0
 2 C  dxy             3.1       0.0       0.2       0.0       0.0       0.0
 3 C  s               1.2       0.1       3.6       4.6       0.0       0.0
 3 C  pz              0.2       0.3       0.5       2.6       0.0       0.0
 3 C  px              0.3       1.0       5.7       0.1       0.0       0.0
 3 C  py              0.3       0.5       0.8       5.9       0.0       0.0
 3 C  dz2             0.7       0.2       0.9       0.0       0.0       0.0
 3 C  dxz             3.5       0.6       3.1       0.0       0.0       0.0
 3 C  dyz             0.1       0.0       0.5       4.0       0.0       0.0
 3 C  dx2y2           2.0       0.6       1.6       2.8       0.0       0.0
 3 C  dxy             9.5       1.0       5.9       0.0       0.0       0.0
 4 O  s               0.3       1.0       1.0      18.1       0.0       0.0
 4 O  pz              0.3       0.2       0.3       6.5       0.0       0.0
 4 O  px              8.0       0.4       0.1       0.0       0.0       0.0
 4 O  py              0.4       0.4       0.6      14.9       0.0       0.0
 4 O  dz2             0.1       0.0       0.2       0.0       0.0       0.0
 4 O  dxz             7.9       0.1       0.4       0.0       0.0       0.0
 4 O  dyz             0.1       0.9       0.8      20.6       0.0       0.0
 4 O  dx2y2           0.6       0.9       0.0      12.4       0.0       0.0
 4 O  dxy            16.2       0.2       1.0       0.1       0.0       0.0
 5 O  s               4.6      27.2       4.9       0.7       0.0       0.0
 5 O  pz              2.2       2.5       0.8       0.0       0.0       0.0
 5 O  px              0.4       4.8      30.5       1.3       0.0       0.0
 5 O  py              4.9       6.4       0.9       0.1       0.0       0.0
 5 O  dz2             0.1       8.1       1.0       0.4       0.0       0.0
 5 O  dxz             0.1       0.3       8.3       0.4       0.0       0.0
 5 O  dyz             4.0       2.5       0.5       0.1       0.0       0.0
 5 O  dx2y2           5.3      12.0       2.3       0.5       0.0       0.0
 5 O  dxy             0.4       2.2      16.6       1.2       0.0       0.0
 6 C  s               0.5       1.3       0.7       0.2       4.8      10.4
 6 C  pz              0.1       0.5       0.2       0.0       0.0       0.0
 6 C  px              0.0       5.6       1.6       0.4       0.0       0.0
 6 C  py              0.2       1.6       0.6       0.1       0.0       0.0
 6 C  dz2             0.0       2.6       0.5       0.1       0.0       0.0
 6 C  dxz             0.0       1.2       0.3       0.2       0.0       0.0
 6 C  dyz             0.5       0.7       0.1       0.0       0.0       0.0
 6 C  dx2y2           0.2       3.5       0.8       0.1       0.0       0.0
 6 C  dxy             0.1       4.2       1.1       0.4       0.0       0.0
 7 C  s               0.0       0.0       0.0       0.0       9.9      71.6
 7 C  dx2y2           0.3       0.2       0.0       0.0       0.0       0.0
 7 C  dxy             0.0       0.2       0.0       0.0       0.0       0.0
 8 H  s               0.2       0.0       0.0       0.0       0.0       0.0
 8 H  pz              0.5       0.0       0.0       0.0       0.0       0.0
 9 H  s               0.2       0.0       0.0       0.0       0.0       0.0
 9 H  px              0.4       0.0       0.0       0.0       0.0       0.0
10 H  s               0.1       0.0       0.0       0.0       0.0       0.0
10 H  pz              0.1       0.0       0.0       0.0       0.0       0.0
10 H  py              0.3       0.0       0.0       0.0       0.0       0.0
11 H  s               0.4       0.0       0.0       0.0       0.0       0.0
11 H  pz              0.8       0.0       0.0       0.0       0.0       0.0
11 H  py              0.6       0.0       0.0       0.0       0.0       0.0
12 H  s               0.7       0.0       0.0       0.0       0.0       0.0
12 H  pz              2.1       0.0       0.0       0.0       0.0       0.0
13 H  px              0.1       0.0       0.0       0.0       0.0       0.0
14 H  px              0.1       0.0       0.0       0.0       0.0       0.0
15 H  s               0.0       0.4       0.1       0.0       0.0       0.0
15 H  pz              0.0       0.8       0.1       0.0       0.0       0.0
15 H  px              0.2       0.2       0.0       0.0       0.0       0.0
16 H  s               0.0       0.4       0.1       0.0       0.0       0.0
16 H  pz              0.0       0.3       0.1       0.0       0.0       0.0
16 H  px              0.2       0.3       0.1       0.0       0.0       0.0
16 H  py              0.1       0.5       0.0       0.0       0.0       0.0
19 H  px              0.0       0.2       0.0       0.0       0.0       0.0

                    216       217       218       219       220       221   
                  21.98440  22.01255  22.02910  22.27291  43.66716  43.74085
                   0.00000   0.00000   0.00000   0.00000   0.00000   0.00000
                  --------  --------  --------  --------  --------  --------
 0 C  s              27.6       8.8       3.7       0.0       0.0       0.0
 1 C  s              59.2       0.1      21.6       0.8       0.0       0.0
 2 C  s               4.4       8.0      60.5       1.6       0.0       0.0
 3 C  s               0.1       2.5       4.3      92.2       0.0       0.0
 4 O  s               0.0       0.0       0.0       0.2      86.5      13.4
 5 O  s               0.0       0.0       0.1       0.1      13.4      86.5
 5 O  px              0.0       0.0       0.0       0.1       0.0       0.0
 6 C  s               8.3      62.9       9.3       3.8       0.0       0.0
 7 C  s               0.1      17.4       0.1       0.6       0.0       0.0



                      *****************************
                      * MAYER POPULATION ANALYSIS *
                      *****************************

  NA   - Mulliken gross atomic population
  ZA   - Total nuclear charge
  QA   - Mulliken gross atomic charge
  VA   - Mayer's total valence
  BVA  - Mayer's bonded valence
  FA   - Mayer's free valence

  ATOM       NA         ZA         QA         VA         BVA        FA
  0 C      6.4655     6.0000    -0.4655     3.7749     3.7749    -0.0000
  1 C      6.2260     6.0000    -0.2260     3.7135     3.7135    -0.0000
  2 C      6.2940     6.0000    -0.2940     3.8222     3.8222     0.0000
  3 C      5.6497     6.0000     0.3503     3.8827     3.8827     0.0000
  4 O      8.4232     8.0000    -0.4232     1.9400     1.9400    -0.0000
  5 O      8.1594     8.0000    -0.1594     1.9334     1.9334     0.0000
  6 C      6.1526     6.0000    -0.1526     3.6782     3.6782    -0.0000
  7 C      6.4413     6.0000    -0.4413     3.8372     3.8372    -0.0000
  8 H      0.8604     1.0000     0.1396     0.9645     0.9645    -0.0000
  9 H      0.8496     1.0000     0.1504     0.9614     0.9614    -0.0000
 10 H      0.8597     1.0000     0.1403     0.9647     0.9647     0.0000
 11 H      0.8531     1.0000     0.1469     0.9606     0.9606    -0.0000
 12 H      0.8484     1.0000     0.1516     0.9595     0.9595    -0.0000
 13 H      0.8397     1.0000     0.1603     0.9612     0.9612    -0.0000
 14 H      0.8400     1.0000     0.1600     0.9620     0.9620    -0.0000
 15 H      0.8449     1.0000     0.1551     0.9509     0.9509    -0.0000
 16 H      0.8434     1.0000     0.1566     0.9511     0.9511     0.0000
 17 H      0.8481     1.0000     0.1519     0.9616     0.9616    -0.0000
 18 H      0.8481     1.0000     0.1519     0.9616     0.9616     0.0000
 19 H      0.8528     1.0000     0.1472     0.9636     0.9636    -0.0000

  Mayer bond orders larger than 0.100000
B(  0-C ,  1-C ) :   0.8767 B(  0-C ,  8-H ) :   0.9817 B(  0-C ,  9-H ) :   0.9761 
B(  0-C , 10-H ) :   0.9840 B(  1-C ,  2-C ) :   0.9703 B(  1-C , 11-H ) :   0.9629 
B(  1-C , 12-H ) :   0.9635 B(  2-C ,  3-C ) :   1.0047 B(  2-C , 13-H ) :   0.9442 
B(  2-C , 14-H ) :   0.9509 B(  3-C ,  4-O ) :   1.8181 B(  3-C ,  5-O ) :   1.1002 
B(  5-O ,  6-C ) :   0.8031 B(  6-C ,  7-C ) :   0.9401 B(  6-C , 15-H ) :   0.9528 
B(  6-C , 16-H ) :   0.9543 B(  7-C , 17-H ) :   0.9727 B(  7-C , 18-H ) :   0.9724 
B(  7-C , 19-H ) :   0.9687 

-------
TIMINGS
-------

Total SCF time: 0 days 0 hours 0 min 25 sec 

Total time                  ....      25.680 sec
Sum of individual times     ....      24.841 sec  ( 96.7%)

SCF preparation             ....       0.252 sec  (  1.0%)
Fock matrix formation       ....      22.693 sec  ( 88.4%)
  Startup                   ....       0.082 sec  (  0.4% of F)
  Split-RI-J                ....       4.481 sec  ( 19.7% of F)
  XC integration            ....      17.478 sec  ( 77.0% of F)
    Basis function eval.    ....       3.180 sec  ( 18.2% of XC)
    Density eval.           ....       4.963 sec  ( 28.4% of XC)
    XC-Functional eval.     ....       2.324 sec  ( 13.3% of XC)
    XC-Potential eval.      ....       5.337 sec  ( 30.5% of XC)
Diagonalization             ....       0.000 sec  (  0.0%)
Density matrix formation    ....       0.303 sec  (  1.2%)
Total Energy calculation    ....       0.055 sec  (  0.2%)
Population analysis         ....       0.152 sec  (  0.6%)
Orbital Transformation      ....       0.088 sec  (  0.3%)
Orbital Orthonormalization  ....       0.000 sec  (  0.0%)
DIIS solution               ....       1.259 sec  (  4.9%)
  MO trafo                  ....       0.000 sec  (  0.0 % of DIIS)
  Orb grad                  ....       0.000 sec  (  0.0 % of DIIS)
  Energy W gradient         ....       0.000 sec  (  0.0 % of DIIS)
  DIIS error                ....       0.033 sec  (  2.7 % of DIIS)
  DIIS work                 ....       1.144 sec  ( 90.9 % of DIIS)
  Form Q                    ....       0.000 sec  (  0.0 % of DIIS)
  Form QpQm                 ....       0.000 sec  (  0.0 % of DIIS)
  Exp/Cayley                ....       0.000 sec  (  0.0 % of DIIS)
  Orb update                ....       0.000 sec  (  0.0 % of DIIS)
  Wake-sleep                ....       0.035 sec  (  2.8 % of DIIS)
SOSCF solution              ....       0.040 sec  (  0.2%)
  MO trafo                  ....       0.040 sec  ( 99.8 % of SOSCF)
  Orb grad                  ....       0.000 sec  (  0.0 % of SOSCF)
  Rot update                ....       0.000 sec  (  0.0 % of SOSCF)
  Step                      ....       0.000 sec  (  0.0 % of SOSCF)
Finished LeanSCF after  25.8 sec

Maximum memory used throughout the entire LEANSCF-calculation: 22.9 MB


-------------------------------------------------------------------------------
                          DFT DISPERSION CORRECTION                            
                                                                               
                                DFTD4 V3.4.0                                   
-------------------------------------------------------------------------------
The R2SCAN3C composite method is recognized
Using three-body term ABC
Active option DFTDOPT                   ...         5   

-------------------------   ----------------
Dispersion correction           -0.004775214
-------------------------   ----------------

------------------   -----------------
gCP correction             0.011608917
------------------   -----------------

-------------------------   --------------------
FINAL SINGLE POINT ENERGY      -386.236978053775
-------------------------   --------------------


------------------------------------------------------------------------------
                              ORCA PROPERTY CALCULATIONS
------------------------------------------------------------------------------

GBWName                                 ... sp_gas.gbw
Number of atoms                         ...     20
Number of basis functions               ...    222
Max core memory                         ...   1024 MB

Electric properties:
Dipole moment                           ... YES
Quadrupole moment                       ...  NO
Static polarizability (Dipole/Dipole)   ...  NO
Static polarizability (Dipole/Quad.)    ...  NO
Static polarizability (Quad./Quad.)     ...  NO
Static polarizability (Velocity)        ...  NO

Atomic electric properties:
Dipole moment                           ...  NO
Quadrupole moment                       ...  NO
Static polarizability                   ...  NO

Choice of electric origin               ... Center of mass
Position of electric origin             ...    -0.000012    -0.000012     0.000008

General magnetic properties:
Magnetizability                         ...  NO

EPR properties:
g-Tensor (aka g-matrix)                 ...  NO
Zero-Field splitting spin-orbit         ...  NO
Zero-field splitting spin-spin          ...  NO
Hyperfine couplings                     ...  NO (   0 nuclei)
Quadrupole couplings                    ...  NO (   0 nuclei)
Contact density                         ...  NO (   0 nuclei)

NMR properties:
Chemical shifts                         ...  NO (   0 nuclei)
Spin-rotation constants                 ...  NO (   0 nuclei)
Spin-spin couplings                     ...  NO (   0 nuclei,    0 pairs)

Choice of magnetic origin               ... GIAO
Position of magnetic origin             ...     0.000000     0.000000     0.000000

Properties with geometric perturbations:
SCF Hessian                             ...  NO
IR spectrum                             ...  NO
VCD spectrum                            ...  NO
X-ray spectroscopy properties:
SCF XES/XAS/RIXS spectra                ...  NO


-------------
DIPOLE MOMENT
-------------

Method             : SCF
Type of density    : Electron Density
Multiplicity       :   1
Irrep              :   0
Energy             :  -386.2438117561052309 Eh
Relativity type    : 
Basis              : AO
                                X                 Y                 Z
Electronic contribution:      2.993358690       2.868683774      -1.883915693
Nuclear contribution   :     -2.657231464      -3.453182326       2.283949542
                        -----------------------------------------
Total Dipole Moment    :      0.336127226      -0.584498552       0.400033849
                        -----------------------------------------
Magnitude (a.u.)       :      0.783994356
Magnitude (Debye)      :      1.992755285



--------------------
Rotational spectrum 
--------------------
 
Rotational constants in cm-1:             0.211328             0.027028             0.024515 
Rotational constants in MHz :          6335.464884           810.269048           734.936451 

Dipole components along the rotational axes: 
x,y,z [a.u.] :     0.319131    -0.716097    -0.002666 
x,y,z [Debye]:     0.811167    -1.820175    -0.006777 

 

Dipole moment calculation done in   0.0 sec 

Maximum memory used throughout the entire PROP-calculation: 13.4 MB

--------------------------------
SUGGESTED CITATIONS FOR THIS RUN
--------------------------------

Below you find a list of papers that are relevant to this ORCA run
We neither can nor want to force you to cite these papers, but we appreciate if you do
You receive ORCA, which is the product of decades of hard work by many enthusiastic individuals, for free
The only thing we kindly ask in return is that you cite our papers,
We deeply appreciate it, if you show your appreciation for ORCA by not just citing the generic ORCA reference.

Please note that relegating all ORCA citations to the supporting information does *not* help us.
SI sections are not indexed - citations you put there will not count into any citation statistics
But we need these citations in order to attract the funding resources that allow us to do what we are doing

Therefore, if you are a happy ORCA user, please consider citing a few of the papers listed below in the main body of your paper

In addition to the list printed below, the program has created the file sp_gas.bibtex that contains the list in bibtex format
You can import this file easily into all common literature databanks and citation aid programs


List of essential papers. We consider these as the minimum necessary citations

  1. Neese,F.
     Software update: the ORCA program system, version 5.0
     WIRES Comput. Molec. Sci., 2022 12(1)e1606
     doi.org/10.1002/wcms.1606
  2. Grimme,S.; Hansen,A.; Ehlert,S.; Mewes,J.
     r2SCAN-3c: A 'Swiss army knife' composite electronic-structure method
     J. Chem. Phys., 2021 154 064103
     doi.org/10.1063/5.0040021

List of papers to cite with high priority. The work reported in these papers was absolutely
necessary for this run to complete.
Our perspective: the developers of density functionals and basis sets usually get cited in chemistry papers
Good! But without the algorithms to do something with them, the functionals or basis sets would not do anything.
Hence, in our opinion, the algorithm design and method developments papers are equally worthy of getting cited

  1. Neese,F.
     An improvement of the resolution of the identity approximation for the formation of the Coulomb matrix
     J. Comp. Chem., 2003 24(14)1740-1747
     doi.org/10.1002/jcc.10318
  2. Neese,F.
     The SHARK Integral Generation and Digestion System
     J. Comp. Chem., 2022  1-16
     doi.org/10.1002/jcc.26942
  3. Lehtola,S.; Steigemann,C.; Oliveira,M.; Marques,M.
     Recent developments in Libxc - A comprehensive library of functionals for density functional theory
     Software X, 2018 7 
     doi.org/10.1016/j.softx.2017.11.002
  4. Caldeweyher,E.; Bannwarth,C.; Grimme,S.
     Extension of the D3 dispersion coefficient model
     J. Chem. Phys., 2017 147 034112-XXXX
     doi.org/10.1063/1.4993215
  5. Caldeweyher,E.; Ehlert,S.; Hansen,A.; Neugebauer,H.; Spicher,S.; Bannwarth,C.; Grimme,S.
     A generally applicable atomic-charge dependent London dispersion correction
     J. Chem. Phys., 2019 150 154122-XXXX
     doi.org/10.1063/1.5090222
  6. Caldeweyher,E.; Mewes,J.; Ehlert,S.; Grimme,S.
     Extension and evaluation of the D4 London-dispersion model for periodic systems
     Phys. Chem. Chem. Phys., 2020 22(16)8499-8512
     doi.org/10.1039/D0CP00502A

List of suggested additional citations. These are papers that are important in the 'surrounding' of 
of this run, or papers that preceded the highly important papers. If you like your results we are grateful for a citation.

  1. Neese,F.
     The ORCA program system
     WIRES Comput. Molec. Sci., 2012 2(1)73-78
     doi.org/10.1002/wcms.81
  2. Neese,F.
     Software update: the ORCA program system, version 4.0
     WIRES Comput. Molec. Sci., 2018 8(1)1-6
     doi.org/10.1002/wcms.1327
  3. Neese,F.; Wennmohs,F.; Becker,U.; Riplinger,C.
     The ORCA quantum chemistry program package
     J. Chem. Phys., 2020 152 Art. No. L224108
     doi.org/10.1063/5.0004608

List of optional additional citations

  1. Neese,F.
     Approximate second-order SCF convergence for spin unrestricted wavefunctions
     Chem. Phys. Lett., 2000 325(1-3)93-98
     doi.org/10.1016/s0009-2614(00)00662-x

Timings for individual modules:

Sum of individual times          ...       27.857 sec (=   0.464 min)
Startup calculation              ...        1.466 sec (=   0.024 min)   5.3 %
SCF iterations                   ...       26.272 sec (=   0.438 min)  94.3 %
Property calculations            ...        0.119 sec (=   0.002 min)   0.4 %
                             ****ORCA TERMINATED NORMALLY****
TOTAL RUN TIME: 0 days 0 hours 0 minutes 28 seconds 734 msec
