
                                 *****************
                                 * O   R   C   A *
                                 *****************

                                            #,                                       
                                            ###                                      
                                            ####                                     
                                            #####                                    
                                            ######                                   
                                           ########,                                 
                                     ,,################,,,,,                         
                               ,,#################################,,                 
                          ,,##########################################,,             
                       ,#########################################, ''#####,          
                    ,#############################################,,   '####,        
                  ,##################################################,,,,####,       
                ,###########''''           ''''###############################       
              ,#####''   ,,,,##########,,,,          '''####'''          '####       
            ,##' ,,,,###########################,,,                        '##       
           ' ,,###''''                  '''############,,,                           
         ,,##''                                '''############,,,,        ,,,,,,###''
      ,#''                                            '''#######################'''  
     '                                                          ''''####''''         
             ,#######,   #######,   ,#######,      ##                                
            ,#'     '#,  ##    ##  ,#'     '#,    #''#        ,####,   ,####,        
            ##       ##  ##   ,#'  ##            #'  '#       #'       #'  '#        
            ##       ##  #######   ##           ,######,      #####,   #    #        
            '#,     ,#'  ##    ##  '#,     ,#' ,#      #,     #,   #   #,  ,#        
             '#######'   ##     ##  '#######'  #'      '#     '####' # '####'        



                #########################################################
                #                        -***-                          #
                #          Department of theory and spectroscopy        #
                #                                                       #
                #                      Frank Neese                      #
                #                                                       #
                #     Directorship, Architecture, Infrastructure        #
                #                    SHARK, DRIVERS                     #
                #        Core code/Algorithms in most modules           #
                #                                                       #
                #        Max Planck Institute fuer Kohlenforschung      #
                #                Kaiser Wilhelm Platz 1                 #
                #                 D-45470 Muelheim/Ruhr                 #
                #                      Germany                          #
                #                                                       #
                #                  All rights reserved                  #
                #                        -***-                          #
                #########################################################


                         Program Version 6.0.0  -   RELEASE  -


 With contributions from (in alphabetic order):
   Daniel Aravena         : Magnetic Suceptibility
   Michael Atanasov       : Ab Initio Ligand Field Theory (pilot matlab implementation)
   Alexander A. Auer      : GIAO ZORA, VPT2 properties, NMR spectrum
   Ute Becker             : All parallelization in ORCA, NUMFREQ, NUMCALC
   Giovanni Bistoni       : ED, misc. LED, open-shell LED, HFLD
   Martin Brehm           : Molecular dynamics
   Dmytro Bykov           : pre 5.0 version of the SCF Hessian
   Marcos Casanova-Páez   : Triplet and SCS-CIS(D). UHF-(DLPNO)-IP/EA/STEOM-CCSD. UHF-CVS-IP/STEOM-CCSD
   Vijay G. Chilkuri      : MRCI spin determinant printing, contributions to CSF-ICE
   Pauline Colinet        : FMM embedding
   Dipayan Datta          : RHF DLPNO-CCSD density
   Achintya Kumar Dutta   : EOM-CC, STEOM-CC
   Nicolas Foglia         : Exact transition moments, OPA infrastructure, MCD improvements
   Dmitry Ganyushin       : Spin-Orbit,Spin-Spin,Magnetic field MRCI
   Miquel Garcia          : C-PCM and meta-GGA Hessian, CCSD/C-PCM, Gaussian charge scheme
   Tiago L. C. Gouveia    : GS-ROHF, GS-ROCIS
   Yang Guo               : DLPNO-NEVPT2, F12-NEVPT2, CIM, IAO-localization
   Andreas Hansen         : Spin unrestricted coupled pair/coupled cluster methods
   Ingolf Harden          : AUTO-CI MPn and infrastructure 
   Benjamin Helmich-Paris : MC-RPA, TRAH-(SCF,CASSCF), AVAS, COSX integrals, SCF dyn. polar.
   Lee Huntington         : MR-EOM, pCC
   Robert Izsak           : Overlap fitted RIJCOSX, COSX-SCS-MP3, EOM
   Riya Kayal             : Wick's Theorem for AUTO-CI, AUTO-CI UHF-CCSDT
   Emily Kempfer          : AUTO-CI, RHF CISDT and CCSDT
   Christian Kollmar      : KDIIS, OOCD, Brueckner-CCSD(T), CCSD density, CASPT2, CASPT2-K, improved NEVPT2
   Axel Koslowski         : Symmetry handling
   Simone Kossmann        : Meta GGA functionals, TD-DFT gradient, OOMP2, (MP2 Hessian; deprecated post 5.0)
   Lucas Lang             : DCDCAS
   Marvin Lechner         : AUTO-CI (C++ implementation), FIC-MRCC
   Spencer Leger          : CASSCF response
   Dagmar Lenk            : GEPOL surface, SMD, ORCA-2-JSON
   Dimitrios Liakos       : Extrapolation schemes; Compound Job, initial MDCI parallelization
   Dimitrios Manganas     : Further ROCIS development; embedding schemes. LFT, Crystal Embedding
   Dimitrios Pantazis     : SARC Basis sets
   Anastasios Papadopoulos: AUTO-CI, single reference methods and gradients
   Taras Petrenko         : pre 6.0 DFT Hessian and TD-DFT gradient, (ASA, deprecated), ECA, 1-Electron XAS/XES, NRVS
   Peter Pinski           : DLPNO-MP2, DLPNO-MP2 Gradient
   Christoph Reimann      : Effective Core Potentials
   Marius Retegan         : Local ZFS, SOC
   Christoph Riplinger    : Optimizer, TS searches, QM/MM, DLPNO-CCSD(T), (RO)-DLPNO pert. Triples
   Michael Roemelt        : Original ROCIS implementation
   Masaaki Saitow         : Open-shell DLPNO-CCSD energy and density
   Barbara Sandhoefer     : DKH picture change effects
   Kantharuban Sivalingam : CASSCF convergence/infrastructure, NEVPT2 and variants, FIC-MRCI
   Bernardo de Souza      : ESD, SOC TD-DFT
   Georgi Stoychev        : AutoAux, RI-MP2 NMR, DLPNO-MP2 response, X2C
   Van Anh Tran           : RI-MP2 g-tensors
   Willem Van den Heuvel  : Paramagnetic NMR
   Zikuan Wang            : NOTCH, Electric field optimization 
   Frank Wennmohs         : Technical directorship and infrastructure
   Hang Xu                : AUTO-CI-Response properties 


 We gratefully acknowledge several colleagues who have allowed us to
 interface, adapt or use parts of their codes:
   Stefan Grimme, W. Hujo, H. Kruse, P. Pracht,  : VdW corrections, initial TS optimization,
                  C. Bannwarth, S. Ehlert,         DFT functionals, gCP, sTDA/sTD-DF
                  L. Wittmann, M. Mueller
   Ed Valeev, F. Pavosevic, A. Kumar             : LibInt (2-el integral package), F12 methods
   Garnet Chan, S. Sharma, J. Yang, R. Olivares  : DMRG
   Ulf Ekstrom                                   : XCFun DFT Library
   Mihaly Kallay                                 : mrcc  (arbitrary order and MRCC methods)
   Frank Weinhold                                : gennbo (NPA and NBO analysis)
   Simon Mueller                                 : openCOSMO-RS
   Christopher J. Cramer and Donald G. Truhlar   : smd solvation model
   Lars Goerigk                                  : TD-DFT with DH, B97 family of functionals
   V. Asgeirsson, H. Jonsson                     : NEB implementation
   FAccTs GmbH                                   : IRC, NEB, NEB-TS, DLPNO-Multilevel, CI-OPT
                                                   MM, QMMM, 2- and 3-layer-ONIOM, Crystal-QMMM,
                                                   LR-CPCM, SF, NACMEs, symmetry and pop. for TD-DFT,
                                                   nearIR, NL-DFT gradient (VV10), updates on ESD,
                                                   ML-optimized integration grids, MBIS, APM,
                                                   GOAT, DOCKER, SOLVATOR, interface openCOSMO-RS
   S Lehtola, MJT Oliveira, MAL Marques          : LibXC Library
   Liviu Ungur et al                             : ANISO software


 Your calculation uses the libint2 library for the computation of 2-el integrals
 For citations please refer to: http://libint.valeyev.net

 Your ORCA version has been built with support for libXC version: 6.2.2
 For citations please refer to: https://libxc.gitlab.io

 This ORCA versions uses:
   CBLAS   interface :  Fast vector & matrix operations
   LAPACKE interface :  Fast linear algebra routines
   SCALAPACK package :  Parallel linear algebra routines
   Shared memory     :  Shared parallel matrices
   BLAS/LAPACK       :  OpenBLAS 0.3.27  USE64BITINT DYNAMIC_ARCH NO_AFFINITY SkylakeX SINGLE_THREADED
        Core in use  :  SkylakeX
   Copyright (c) 2011-2014, The OpenBLAS Project


Your calculation utilizes the geometrical counterpoise correction gCP
Please cite in your paper:
H.Kruse, S. Grimme J.Chem.Phys., 136, (2012), 154101 
   

Your calculation utilizes the atom-pairwise dispersion correction
based on EEQ partial charges (D4)


Your calculation utilizes the SMD solvation module
Please cite in your paper:
A.V. Marenich, C.J. Cramer, D.G. Truhlar J. Phys. Chem. B, 113, (2009), 6378 

================================================================================

----- Orbital basis set information -----
Your calculation utilizes the basis: def2-mTZVPP
   Stefan Grimme, Andreas Hansen, Sebastian Ehlert, and Jan-Michael Mewes 
   J. Chem. Phys. 154, 064103 (2021). DOI: 10.1063/5.0040021

----- AuxJ basis set information -----
Your calculation utilizes the auxiliary basis: def2/J
   F. Weigend, Phys. Chem. Chem. Phys. 8, 1057 (2006).

================================================================================
                                        WARNINGS
                       Please study these warnings very carefully!
================================================================================

Using LibXC functional ID 497 : Re-regularized SCAN exchange by Furness et al
[ 1]  J. W. Furness, A. D. Kaplan, J. Ning, J. P. Perdew, and J. Sun.,  J. Phys. Chem. Lett. 11, 8208-8215 (2020)
[ 2]  J. W. Furness, A. D. Kaplan, J. Ning, J. P. Perdew, and J. Sun.,  J. Phys. Chem. Lett. 11, 9248-9248 (2020)
Using LibXC functional ID 498 : Re-regularized SCAN correlation by Furness et al
[ 1]  J. W. Furness, A. D. Kaplan, J. Ning, J. P. Perdew, and J. Sun.,  J. Phys. Chem. Lett. 11, 8208-8215 (2020)
[ 2]  J. W. Furness, A. D. Kaplan, J. Ning, J. P. Perdew, and J. Sun.,  J. Phys. Chem. Lett. 11, 9248-9248 (2020)
Using LibXC functional ID 497 : Re-regularized SCAN exchange by Furness et al
[ 1]  J. W. Furness, A. D. Kaplan, J. Ning, J. P. Perdew, and J. Sun.,  J. Phys. Chem. Lett. 11, 8208-8215 (2020)
[ 2]  J. W. Furness, A. D. Kaplan, J. Ning, J. P. Perdew, and J. Sun.,  J. Phys. Chem. Lett. 11, 9248-9248 (2020)
Using LibXC functional ID 498 : Re-regularized SCAN correlation by Furness et al
[ 1]  J. W. Furness, A. D. Kaplan, J. Ning, J. P. Perdew, and J. Sun.,  J. Phys. Chem. Lett. 11, 8208-8215 (2020)
[ 2]  J. W. Furness, A. D. Kaplan, J. Ning, J. P. Perdew, and J. Sun.,  J. Phys. Chem. Lett. 11, 9248-9248 (2020)

================================================================================
                                       INPUT FILE
================================================================================
NAME = sp_solv.inp
|  1> ! r2scan-3c def2/J RI DEFGRID2 scfconv6 printgap
|  2> %output
|  3>     printlevel normal
|  4> end
|  5> %cpcm
|  6>     smd true
|  7>     smdsolvent "water"
|  8> end
|  9> * xyz 0 1
| 10> C -3.4161680139 0.6046088993 0.4676147873
| 11> C -2.7560209063 -0.6830255721 -0.0121104293
| 12> C -1.3520696563 -0.4678772208 -0.5761918915
| 13> C -0.3425328533 -0.0413639203 0.4923554926
| 14> C 1.0170269108 0.1943439137 -0.1079763406
| 15> O 1.2294690683 0.7585609788 -1.1607878957
| 16> O 1.9827538806 -0.2978373393 0.6620337506
| 17> C 3.33750669 -0.1342025348 0.2323346167
| 18> H -3.4172803178 1.3484482951 -0.3257957439
| 19> H -4.4456935853 0.4113086178 0.758152623
| 20> H -2.8960404421 1.0173130626 1.3277472531
| 21> H -2.7076452214 -1.3975025743 0.8117368505
| 22> H -3.3728098134 -1.1236239715 -0.7975708184
| 23> H -1.3767613819 0.2942549113 -1.3575286492
| 24> H -1.0055467496 -1.3968786483 -1.0341535226
| 25> H -0.2532358246 -0.7897629925 1.2792595379
| 26> H -0.6607777449 0.9024842693 0.9395932922
| 27> H 3.6865705077 0.8640321985 0.4973574001
| 28> H 3.4034026678 -0.263624519 -0.8485828228
| 29> H 3.9100791754 -0.8936357677 0.7559319914
| 30> *
| 31> 
| 32>                          ****END OF INPUT****
================================================================================

                       ****************************
                       * Single Point Calculation *
                       ****************************

---------------------------------
CARTESIAN COORDINATES (ANGSTROEM)
---------------------------------
  C     -3.416168    0.604609    0.467615
  C     -2.756021   -0.683026   -0.012110
  C     -1.352070   -0.467877   -0.576192
  C     -0.342533   -0.041364    0.492355
  C      1.017027    0.194344   -0.107976
  O      1.229469    0.758561   -1.160788
  O      1.982754   -0.297837    0.662034
  C      3.337507   -0.134203    0.232335
  H     -3.417280    1.348448   -0.325796
  H     -4.445694    0.411309    0.758153
  H     -2.896040    1.017313    1.327747
  H     -2.707645   -1.397503    0.811737
  H     -3.372810   -1.123624   -0.797571
  H     -1.376761    0.294255   -1.357529
  H     -1.005547   -1.396879   -1.034154
  H     -0.253236   -0.789763    1.279260
  H     -0.660778    0.902484    0.939593
  H      3.686571    0.864032    0.497357
  H      3.403403   -0.263625   -0.848583
  H      3.910079   -0.893636    0.755932

----------------------------
CARTESIAN COORDINATES (A.U.)
----------------------------
  NO LB      ZA    FRAG     MASS         X           Y           Z
   0 C     6.0000    0    12.011   -6.455622    1.142545    0.883664
   1 C     6.0000    0    12.011   -5.208125   -1.290731   -0.022885
   2 C     6.0000    0    12.011   -2.555041   -0.884160   -1.088845
   3 C     6.0000    0    12.011   -0.647293   -0.078166    0.930417
   4 C     6.0000    0    12.011    1.921902    0.367257   -0.204046
   5 O     8.0000    0    15.999    2.323360    1.433473   -2.193571
   6 O     8.0000    0    15.999    3.746862   -0.562831    1.251062
   7 C     6.0000    0    12.011    6.306974   -0.253606    0.439049
   8 H     1.0000    0     1.008   -6.457724    2.548198   -0.615665
   9 H     1.0000    0     1.008   -8.401143    0.777261    1.432701
  10 H     1.0000    0     1.008   -5.472723    1.922443    2.509079
  11 H     1.0000    0     1.008   -5.116708   -2.640897    1.533960
  12 H     1.0000    0     1.008   -6.373687   -2.123342   -1.507190
  13 H     1.0000    0     1.008   -2.601702    0.556061   -2.565357
  14 H     1.0000    0     1.008   -1.900208   -2.639718   -1.954267
  15 H     1.0000    0     1.008   -0.478546   -1.492436    2.417450
  16 H     1.0000    0     1.008   -1.248689    1.705448    1.775574
  17 H     1.0000    0     1.008    6.966609    1.632784    0.939869
  18 H     1.0000    0     1.008    6.431499   -0.498178   -1.603589
  19 H     1.0000    0     1.008    7.388979   -1.688727    1.428504

--------------------------------
INTERNAL COORDINATES (ANGSTROEM)
--------------------------------
 C      0   0   0     0.000000000000     0.00000000     0.00000000
 C      1   0   0     1.524445151211     0.00000000     0.00000000
 C      2   1   0     1.528252538503   113.26971770     0.00000000
 C      3   2   1     1.530644199081   112.79669588    67.61606042
 C      4   3   2     1.504778802722   111.16404189   181.46314597
 O      5   4   3     1.213212568920   125.25801972    41.63378733
 O      5   4   3     1.329581327544   111.54379077   221.70071033
 C      7   5   4     1.430654699603   118.13296181   180.85991471
 H      1   2   3     1.087565425610   110.39996680    54.31042200
 H      1   2   3     1.087060317999   110.12268578   173.97395211
 H      1   2   3     1.086593427219   111.26177955   293.71321330
 H      2   1   3     1.091577726960   109.54488073   122.26641069
 H      2   1   3     1.091560135000   108.82567087   239.76784996
 H      3   2   1     1.091761053081   109.97760194   306.14044632
 H      3   2   1     1.092177015289   109.05601848   188.47784645
 H      4   3   2     1.089629802783   111.51945828    59.90120549
 H      4   3   2     1.091856613952   109.54750356   299.43202506
 H      8   7   5     1.090208790698   109.56698005    81.45116255
 H      8   7   5     1.090630478622   109.95720586   321.32286293
 H      8   7   5     1.085694384743   105.93478892   200.96388806

---------------------------
INTERNAL COORDINATES (A.U.)
---------------------------
 C      0   0   0     0.000000000000     0.00000000     0.00000000
 C      1   0   0     2.880783841974     0.00000000     0.00000000
 C      2   1   0     2.887978761241   113.26971770     0.00000000
 C      3   2   1     2.892498344739   112.79669588    67.61606042
 C      4   3   2     2.843619829275   111.16404189   181.46314597
 O      5   4   3     2.292639497490   125.25801972    41.63378733
 O      5   4   3     2.512544581834   111.54379077   221.70071033
 C      7   5   4     2.703545574457   118.13296181   180.85991471
 H      1   2   3     2.055200807125   110.39996680    54.31042200
 H      1   2   3     2.054246292071   110.12268578   173.97395211
 H      1   2   3     2.053363996362   111.26177955   293.71321330
 H      2   1   3     2.062782957843   109.54488073   122.26641069
 H      2   1   3     2.062749713856   108.82567087   239.76784996
 H      3   2   1     2.063129394005   109.97760194   306.14044632
 H      3   2   1     2.063915448659   109.05601848   188.47784645
 H      4   3   2     2.059101914619   111.51945828    59.90120549
 H      4   3   2     2.063309977881   109.54750356   299.43202506
 H      8   7   5     2.060196043212   109.56698005    81.45116255
 H      8   7   5     2.060992917903   109.95720586   321.32286293
 H      8   7   5     2.051665052301   105.93478892   200.96388806

---------------------
BASIS SET INFORMATION
---------------------
There are 3 groups of distinct atoms

 Group   1 Type C   : 11s6p1d contracted to 5s3p1d pattern {62111/411/1}
 Group   2 Type O   : 11s6p2d contracted to 5s3p2d pattern {62111/411/11}
 Group   3 Type H   : 4s1p contracted to 2s1p pattern {31/1}

Atom   0C    basis set group =>   1
Atom   1C    basis set group =>   1
Atom   2C    basis set group =>   1
Atom   3C    basis set group =>   1
Atom   4C    basis set group =>   1
Atom   5O    basis set group =>   2
Atom   6O    basis set group =>   2
Atom   7C    basis set group =>   1
Atom   8H    basis set group =>   3
Atom   9H    basis set group =>   3
Atom  10H    basis set group =>   3
Atom  11H    basis set group =>   3
Atom  12H    basis set group =>   3
Atom  13H    basis set group =>   3
Atom  14H    basis set group =>   3
Atom  15H    basis set group =>   3
Atom  16H    basis set group =>   3
Atom  17H    basis set group =>   3
Atom  18H    basis set group =>   3
Atom  19H    basis set group =>   3
---------------------------------
AUXILIARY/J BASIS SET INFORMATION
---------------------------------
There are 3 groups of distinct atoms

 Group   1 Type C   : 12s5p4d2f1g contracted to 6s4p3d1f1g pattern {711111/2111/211/2/1}
 Group   2 Type O   : 12s5p4d2f1g contracted to 6s4p3d1f1g pattern {711111/2111/211/2/1}
 Group   3 Type H   : 5s2p1d contracted to 3s1p1d pattern {311/2/1}

Atom   0C    basis set group =>   1
Atom   1C    basis set group =>   1
Atom   2C    basis set group =>   1
Atom   3C    basis set group =>   1
Atom   4C    basis set group =>   1
Atom   5O    basis set group =>   2
Atom   6O    basis set group =>   2
Atom   7C    basis set group =>   1
Atom   8H    basis set group =>   3
Atom   9H    basis set group =>   3
Atom  10H    basis set group =>   3
Atom  11H    basis set group =>   3
Atom  12H    basis set group =>   3
Atom  13H    basis set group =>   3
Atom  14H    basis set group =>   3
Atom  15H    basis set group =>   3
Atom  16H    basis set group =>   3
Atom  17H    basis set group =>   3
Atom  18H    basis set group =>   3
Atom  19H    basis set group =>   3

Checking for AutoStart:
The File: sp_solv.gbw exists
Trying to determine its content:
     ... Fine, the file contains calculation information
     ... Fine, the calculation information was read
     ... Fine, the file contains a basis set
     ... Fine, the basis set was read
     ... Fine, the file contains a geometry
     ... Fine, the geometry was read
     ... Fine, the file contains a set of orbitals
     ... Fine, the orbitals can be read
     => possible old guess file was deleted
     => GBW file was renamed to GES file
     => GES file is set as startup file
     => Guess is set to MORead
     ... now leaving AutoStart

------------------------------------------------------------------------------
                             ORCA STARTUP CALCULATIONS
                           -- RI-GTO INTEGRALS CHOSEN --
------------------------------------------------------------------------------
------------------------------------------------------------------------------
                   ___                                                        
                  /   \      - P O W E R E D   B Y -                         
                 /     \                                                     
                 |  |  |   _    _      __       _____    __    __             
                 |  |  |  | |  | |    /  \     |  _  \  |  |  /  |          
                  \  \/   | |  | |   /    \    | | | |  |  | /  /          
                 / \  \   | |__| |  /  /\  \   | |_| |  |  |/  /          
                |  |  |   |  __  | /  /__\  \  |    /   |      \           
                |  |  |   | |  | | |   __   |  |    \   |  |\   \          
                \     /   | |  | | |  |  |  |  | |\  \  |  | \   \       
                 \___/    |_|  |_| |__|  |__|  |_| \__\ |__|  \__/        
                                                                              
                      - O R C A' S   B I G   F R I E N D -                    
                                      &                                       
                       - I N T E G R A L  F E E D E R -                       
                                                                              
 v1 FN, 2020, v2 2021, v3 2022-2024                                           
------------------------------------------------------------------------------


----------------------
SHARK INTEGRAL PACKAGE
----------------------

Number of atoms                             ...     20
Number of basis functions                   ...    222
Number of shells                            ...    110
Maximum angular momentum                    ...      2
Integral batch strategy                     ... SHARK/LIBINT Hybrid
RI-J (if used) integral strategy            ... SPLIT-RIJ (Revised 2003 algorithm where possible)
Printlevel                                  ...      1
Contraction scheme used                     ... SEGMENTED contraction
Prescreening option                         ... SCHWARTZ
   Thresh                                   ... 1.000e-10
   Tcut                                     ... 1.000e-11
   Tpresel                                  ... 1.000e-11 
Coulomb Range Separation                    ... NOT USED
Exchange Range Separation                   ... NOT USED
Multipole approximations                    ... NOT USED
Finite Nucleus Model                        ... NOT USED
CABS basis                                  ... NOT available
Auxiliary Coulomb fitting basis             ... AVAILABLE
   # of basis functions in Aux-J            ...    524
   # of shells in Aux-J                     ...    180
   Maximum angular momentum in Aux-J        ...      4
Auxiliary J/K fitting basis                 ... NOT available
Auxiliary Correlation fitting basis         ... NOT available
Auxiliary 'external' fitting basis          ... NOT available

Checking pre-screening integrals            ... done (  0.0 sec) Dimension = 110
Check shell pair data                       ... done (  0.0 sec)
Shell pair information
Shell pair cut-off parameter TPreSel        ...   1.0e-11
Total number of shell pairs                 ...      6105
Shell pairs after pre-screening             ...      5178
Total number of primitive shell pairs       ...     21533
Primitive shell pairs kept                  ...     12928
          la=0 lb=0:   1734 shell pairs
          la=1 lb=0:   1957 shell pairs
          la=1 lb=1:    574 shell pairs
          la=2 lb=0:    552 shell pairs
          la=2 lb=1:    313 shell pairs
          la=2 lb=2:     48 shell pairs

Calculating one electron integrals          ... done (  0.0 sec)
Calculating RI/J V-Matrix + Cholesky decomp.... done (  0.1 sec)
Calculating Nuclear repulsion               ... done (  0.0 sec) ENN=    384.479840424195 Eh

Diagonalization of the overlap matrix:
Smallest eigenvalue                        ... 1.055e-04
Time for diagonalization                   ...    0.005 sec
Threshold for overlap eigenvalues          ... 1.000e-07
Number of eigenvalues below threshold      ... 0
Time for construction of square roots      ...    0.017 sec
Total time needed                          ...    0.031 sec

-------------------
DFT GRID GENERATION
-------------------

General Integration Accuracy     IntAcc      ... 4.388
Radial Grid Type                 RadialGrid  ... OptM3 with GC (2021)
Angular Grid (max. ang.)         AngularGrid ... 4 (Lebedev-302)
Angular grid pruning method      GridPruning ... 4 (adaptive)
Weight generation scheme         WeightScheme... mBecke (2022)
Basis function cutoff            BFCut       ... 1.0000e-10
Integration weight cutoff        WCut        ... 1.0000e-14
Partially contracted basis set               ... off
Rotationally invariant grid construction     ... off
Angular grids for H and He will be reduced by one unit
Diffuse basis detected: some atoms will have their outermost
                        angular grid increased by 1.

Total number of grid points                  ...    87399
Total number of batches                      ...     1377
Average number of points per batch           ...       63
Average number of grid points per atom       ...     4370
Initializing property integral containers    ... done (  0.0 sec)

SHARK setup successfully completed in   1.2 seconds

Maximum memory used throughout the entire STARTUP-calculation: 39.2 MB
-------------------------------------------------------------------------------
                                 ORCA GUESS
                   Start orbitals & Density for SCF / CASSCF
-------------------------------------------------------------------------------

------------
SCF SETTINGS
------------
Hamiltonian:
 Density Functional     Method          .... DFT(GTOs)
  Functional kind                       .... Exchange
  Functional name                       .... Re-regularized SCAN exchange by Furness et al
  Functional family                     .... MGGA
  Functional refs                              
    [ 0] J. W. Furness, A. D. Kaplan, J. Ning, J. P. Perdew, and J. Sun.,  J. Phys. Chem. Lett. 11, 8208-8215 (2020), doi: 10.1021/acs.jpclett.0c02405
    [ 1] J. W. Furness, A. D. Kaplan, J. Ning, J. P. Perdew, and J. Sun.,  J. Phys. Chem. Lett. 11, 9248-9248 (2020), doi: 10.1021/acs.jpclett.0c03077
  Functional external parameters        .... 6
    Parameter  0 _c1        =  6.670000e-01 : c1 parameter        
    Parameter  1 _c2        =  8.000000e-01 : c2 parameter        
    Parameter  2 _d         =  1.240000e+00 : d parameter         
    Parameter  3 _k1        =  6.500000e-02 : k1 parameter        
    Parameter  4 _eta       =  1.000000e-03 : eta parameter       
    Parameter  5 _dp2       =  3.610000e-01 : dp2 parameter       
  Functional kind                       .... Correlation
  Functional name                       .... Re-regularized SCAN correlation by Furness et al
  Functional family                     .... MGGA
  Functional refs                              
    [ 0] J. W. Furness, A. D. Kaplan, J. Ning, J. P. Perdew, and J. Sun.,  J. Phys. Chem. Lett. 11, 8208-8215 (2020), doi: 10.1021/acs.jpclett.0c02405
    [ 1] J. W. Furness, A. D. Kaplan, J. Ning, J. P. Perdew, and J. Sun.,  J. Phys. Chem. Lett. 11, 9248-9248 (2020), doi: 10.1021/acs.jpclett.0c03077
  Functional external parameters        .... 1
    Parameter  0 _eta       =  1.000000e-03 : Regularization parameter
 Gradients option       PostSCFGGA      .... off
 RI-approximation to the Coulomb term is turned on
   Number of AuxJ basis functions       .... 524


General Settings:
 Integral files         IntName         .... sp_solv
 Hartree-Fock type      HFTyp           .... RHF
 Total Charge           Charge          ....    0
 Multiplicity           Mult            ....    1
 Number of Electrons    NEL             ....   64
 Basis Dimension        Dim             ....  222
 Nuclear Repulsion      ENuc            ....    384.4798404242 Eh

Convergence Acceleration:
 AO-DIIS                CNVDIIS         .... on
   Start iteration      DIISMaxIt       ....    12
   Startup error        DIISStart       ....  0.200000
   # of expansion vecs  DIISMaxEq       ....     5
   Bias factor          DIISBfac        ....   1.050
   Max. coefficient     DIISMaxC        ....  10.000
 MO-DIIS                CNVKDIIS        .... off
 Trust-Rad. Augm. Hess. CNVTRAH         .... auto
   Auto Start mean grad. ratio tolernc. ....  1.125000
   Auto Start start iteration           ....     1
   Auto Start num. interpolation iter.  ....    10
   Max. Number of Micro iterations      ....    24
   Max. Number of Macro iterations      .... Maxiter - #DIIS iter
   Number of Davidson start vectors     ....     2
   Converg. threshold    (grad. norm)   ....   3.330e-04
   Grad. Scal. Fac. for Micro threshold ....   0.100
   Minimum threshold for Micro iter.    ....   1.000e-02
   NR start threshold (gradient norm)   ....   1.000e-04
   Initial trust radius                 ....   0.400
   Minimum AH scaling param. (alpha)    ....   1.000
   Maximum AH scaling param. (alpha)    .... 1000.000
   Quad. conv. algorithm                .... NR
   White noise on init. David. guess    .... on
   Maximum white noise                  ....   0.010
   Pseudo random numbers                .... off
   Inactive MOs                         .... canonical
   Orbital update algorithm             .... Taylor
   Preconditioner                       .... Diag
   Full preconditioner red. dimension   ....   250
   COSX micro iterations for RIJONX calc.... off
 SOSCF                  CNVSOSCF        .... on
   Start iteration      SOSCFMaxIt      ....   150
   Startup grad/error   SOSCFStart      ....  0.003300
   Hessian update       SOSCFHessUp     .... L-BFGS
 Level Shifting         CNVShift        .... on
   Level shift para.    LevelShift      ....    0.2500
   Turn off err/grad.   ShiftErr        ....    0.0010
 Zerner damping         CNVZerner       .... off
 Static damping         CNVDamp         .... on
   Fraction old density DampFac         ....    0.7000
   Max. Damping (<1)    DampMax         ....    0.9800
   Min. Damping (>=0)   DampMin         ....    0.0000
   Turn off err/grad.   DampErr         ....    0.1000

SCF Procedure:
 Maximum # iterations   MaxIter         ....   125
 SCF integral mode      SCFMode         .... Direct
   Integral package                     .... SHARK and LIBINT hybrid scheme
 Reset frequency        DirectResetFreq ....    20
 Integral Threshold     Thresh          ....  1.000e-10 Eh
 Primitive CutOff       TCut            ....  1.000e-11 Eh

Convergence Tolerance:
 Convergence Check Mode ConvCheckMode   .... Total+1el-Energy
 Convergence forced     ConvForced      .... 0
 Energy Change          TolE            ....  1.000e-06 Eh
 1-El. energy change                    ....  1.000e-03 Eh
 Orbital Gradient       TolG            ....  3.330e-04
 Orbital Rotation angle TolX            ....  3.330e-04
 DIIS Error             TolErr          ....  1.000e-06

---------------------
INITIAL GUESS: MOREAD
---------------------
Guess MOs are being read from file: sp_solv.ges
Input Geometry matches current geometry (good)
Atom 0: N(Shells)= 9 and 6 - projection required
Input basis set needs projection
NBasis(read)= 136
NBasis(calc)= 222
Basis set overlap was calculated
Using GuessMode=FMatrix for the initial guess
C*T matrix was formed
Effective Fockian was calculated
Effective Fockian was diagonalized
Initial density was built
                      ------------------
                      INITIAL GUESS DONE (   0.0 sec)
                      ------------------
             **** ENERGY FILE WAS UPDATED (sp_solv.en.tmp) ****
Finished Guess after   0.3 sec
Maximum memory used throughout the entire GUESS-calculation: 14.9 MB

-------------------------------------------------------------------------------------------
                                      ORCA LEAN-SCF
                              memory conserving SCF solver
-------------------------------------------------------------------------------------------

--------------------
CPCM SOLVATION MODEL
--------------------
CPCM parameters:
  Epsilon                                         ...      78.3550
  Refrac                                          ...       1.3328
  Rsolv                                           ...       1.3000
  Surface type                                    ... GAUSSIAN VDW
  Discretization scheme                           ... Constant charge density
    Threshold for H atoms                         ...       5.0000 (charges/Ang^2)
    Threshold for non-H atoms                     ...       5.0000 (charges/Ang^2)
  Epsilon function type                           ...         CPCM
Solvent:                                          ... WATER
SMD-CDS solvent descriptors:
  Soln                                            ...       1.3328
  Soln25                                          ...       1.3323
  Sola                                            ...       0.0000
  Solb                                            ...       0.0000
  Solg                                            ...       0.0000
  Solc                                            ...       0.0000
  Solh                                            ...       0.0000
Radii:
  Scheme                                          ... Element-dependent radii
  Radius for C  used is    3.4960 Bohr (=   1.8500 Ang.)
  Radius for O  used is    2.8724 Bohr (=   1.5200 Ang.)
  Radius for H  used is    2.2677 Bohr (=   1.2000 Ang.)
Calculating surface                               ...        done! (  0.0s)
Cavity surface points                             ...         1513
Cavity Volume                                     ...     878.9241
Cavity Surface-area                               ...     585.2360
Calculating surface distance matrix               ...        done! (  0.0s)
Performing Cholesky decomposition & store         ...        done! (  0.1s)
Overall time for CPCM initialization              ...                 0.1s

----------------------------------------D-I-I-S--------------------------------------------
Iteration    Energy (Eh)           Delta-E    RMSDP     MaxDP     DIISErr   Damp  Time(sec)
-------------------------------------------------------------------------------------------
               ***  Starting incremental Fock matrix formation  ***
    1    -386.0515108232838202     0.00e+00  4.27e-03  1.69e-01  6.25e-01  0.700   3.3
    2    -386.1104353596622332    -5.89e-02  3.35e-03  1.03e-01  4.40e-01  0.700   3.1
    3    -386.1521262766182190    -4.17e-02  2.43e-03  6.72e-02  3.09e-01  0.700   3.0
    4    -386.1814287522170162    -2.93e-02  1.73e-03  4.73e-02  2.17e-01  0.700   3.0
                               ***Turning on AO-DIIS***
    5    -386.2020033526050611    -2.06e-02  1.24e-03  3.39e-02  1.52e-01  0.700   2.9
    6    -386.2164279897846200    -1.44e-02  8.76e-04  2.40e-02  1.06e-01  0.700   2.9
    7    -386.2265535970316250    -1.01e-02  6.17e-04  1.69e-02  7.40e-02  0.700   2.8
    8    -386.2336501069514725    -7.10e-03  1.45e-03  3.94e-02  5.20e-02  0.000   2.8
                              *** Initializing SOSCF ***
---------------------------------------S-O-S-C-F--------------------------------------
Iteration    Energy (Eh)           Delta-E    RMSDP     MaxDP     MaxGrad    Time(sec)
--------------------------------------------------------------------------------------
    9    -386.2502412653274178    -1.66e-02  1.12e-05  3.20e-04  1.86e-04     2.9
               *** Restarting incremental Fock matrix formation ***
   10    -386.2502413489609125    -8.36e-08  7.05e-06  1.79e-04  5.40e-05     3.3
                  *** Gradient check signals convergence ***

               *****************************************************
               *                     SUCCESS                       *
               *           SCF CONVERGED AFTER  10 CYCLES          *
               *****************************************************


SMD CDS free energy correction energy :                 5.38746     Kcal/mol
Total Energy after SMD CDS correction =              -386.241655878 Eh
             **** ENERGY FILE WAS UPDATED (sp_solv.en.tmp) ****

----------------
TOTAL SCF ENERGY
----------------

Total Energy       :       -386.24165587804134 Eh          -10510.16978 eV

Components:
Nuclear Repulsion  :        384.47984042419466 Eh           10462.22835 eV
Electronic Energy  :       -770.71389905534841 Eh          -20972.19140 eV
One Electron Energy:      -1286.28762660305165 Eh          -35001.66577 eV
Two Electron Energy:        515.57372754770324 Eh           14029.47437 eV
CPCM Dielectric    :         -0.01618271780720 Eh              -0.44035 eV
SMD CDS (Gcds)     :          0.00858547091958 Eh               0.23362 eV

Virial components:
Potential Energy   :       -770.88228621714211 Eh          -20976.77345 eV
Kinetic Energy     :        384.64063033910082 Eh           10466.60366 eV
Virial Ratio       :          2.00416239318641

DFT components:
N(Alpha)           :       31.999982815797 electrons
N(Beta)            :       31.999982815797 electrons
N(Total)           :       63.999965631594 electrons
E(X)               :      -52.083991299441 Eh       
E(C)               :       -2.038000148942 Eh       
E(XC)              :      -54.121991448383 Eh       

CPCM Solvation Model Properties:
Surface-charge          :         -0.04767894478485
Corrected charge        :          0.00000000000000
Outlying charge corr.   :          0.00016985433398 Eh               0.00462 eV
Free-energy (cav+disp)  :          0.00858547091958 Eh               0.23362 eV

---------------
SCF CONVERGENCE
---------------

  Last Energy change         ...    8.3633e-08  Tolerance :   1.0000e-06
  Last MAX-Density change    ...    1.7941e-04  Tolerance :   1.0000e-05
  Last RMS-Density change    ...    7.0491e-06  Tolerance :   1.0000e-06
  Last DIIS Error            ...    1.8639e-04  Tolerance :   1.0000e-06
  Last Orbital Gradient      ...    5.4033e-05  Tolerance :   3.3300e-04
  Last Orbital Rotation      ...    1.2311e-04  Tolerance :   3.3300e-04


----------------
ORBITAL ENERGIES
----------------

  NO   OCC          E(Eh)            E(eV) 
   0   2.0000     -19.004422      -517.1366 
   1   2.0000     -18.943884      -515.4893 
   2   2.0000     -10.162405      -276.5331 
   3   2.0000     -10.075757      -274.1753 
   4   2.0000     -10.035218      -273.0722 
   5   2.0000     -10.024466      -272.7796 
   6   2.0000     -10.019150      -272.6349 
   7   2.0000     -10.008187      -272.3366 
   8   2.0000      -1.079252       -29.3679 
   9   2.0000      -0.989134       -26.9157 
  10   2.0000      -0.771165       -20.9845 
  11   2.0000      -0.722278       -19.6542 
  12   2.0000      -0.678060       -18.4510 
  13   2.0000      -0.615634       -16.7523 
  14   2.0000      -0.544043       -14.8042 
  15   2.0000      -0.523780       -14.2528 
  16   2.0000      -0.472217       -12.8497 
  17   2.0000      -0.460650       -12.5349 
  18   2.0000      -0.451569       -12.2878 
  19   2.0000      -0.424234       -11.5440 
  20   2.0000      -0.405757       -11.0412 
  21   2.0000      -0.391498       -10.6532 
  22   2.0000      -0.377162       -10.2631 
  23   2.0000      -0.360290        -9.8040 
  24   2.0000      -0.341470        -9.2919 
  25   2.0000      -0.329914        -8.9774 
  26   2.0000      -0.323687        -8.8080 
  27   2.0000      -0.295662        -8.0454 
  28   2.0000      -0.292464        -7.9584 
  29   2.0000      -0.288810        -7.8589 
  30   2.0000      -0.280649        -7.6368 
  31   2.0000      -0.252870        -6.8809 
  32   0.0000      -0.021705        -0.5906 
  33   0.0000       0.071754         1.9525 
  34   0.0000       0.101169         2.7529 
  35   0.0000       0.108793         2.9604 
  36   0.0000       0.127976         3.4824 
  37   0.0000       0.131543         3.5795 
  38   0.0000       0.143013         3.8916 
  39   0.0000       0.147687         4.0188 
  40   0.0000       0.153762         4.1841 
  41   0.0000       0.164845         4.4857 
  42   0.0000       0.177533         4.8309 
*Only the first 10 virtual orbitals were printed.

                    ********************************
                    * MULLIKEN POPULATION ANALYSIS *
                    ********************************

-----------------------
MULLIKEN ATOMIC CHARGES
-----------------------
   0 C :   -0.532849
   1 C :   -0.223225
   2 C :   -0.279714
   3 C :   -0.355613
   4 C :    0.427546
   5 O :   -0.514835
   6 O :   -0.207225
   7 C :   -0.326029
   8 H :    0.158122
   9 H :    0.158199
  10 H :    0.159745
  11 H :    0.145033
  12 H :    0.155613
  13 H :    0.159273
  14 H :    0.157871
  15 H :    0.182275
  16 H :    0.201481
  17 H :    0.179163
  18 H :    0.178039
  19 H :    0.177131
Sum of atomic charges:    0.0000000

--------------------------------
MULLIKEN REDUCED ORBITAL CHARGES
--------------------------------
  0 C s       :     3.347332  s :     3.347332
      pz      :     1.084372  p :     3.158483
      px      :     1.093292
      py      :     0.980819
      dz2     :     0.003397  d :     0.027033
      dxz     :     0.003959
      dyz     :     0.008575
      dx2y2   :     0.006840
      dxy     :     0.004262

  1 C s       :     3.199504  s :     3.199504
      pz      :     1.070047  p :     2.986633
      px      :     0.951009
      py      :     0.965577
      dz2     :     0.003937  d :     0.037088
      dxz     :     0.007696
      dyz     :     0.009713
      dx2y2   :     0.008414
      dxy     :     0.007328

  2 C s       :     3.235511  s :     3.235511
      pz      :     0.971560  p :     3.007590
      px      :     0.936165
      py      :     1.099865
      dz2     :     0.004095  d :     0.036613
      dxz     :     0.009116
      dyz     :     0.009387
      dx2y2   :     0.008326
      dxy     :     0.005690

  3 C s       :     3.254155  s :     3.254155
      pz      :     0.998003  p :     3.066606
      px      :     0.959073
      py      :     1.109530
      dz2     :     0.004805  d :     0.034853
      dxz     :     0.008258
      dyz     :     0.008465
      dx2y2   :     0.009242
      dxy     :     0.004083

  4 C s       :     3.139945  s :     3.139945
      pz      :     0.747506  p :     2.307690
      px      :     0.831444
      py      :     0.728740
      dz2     :     0.028478  d :     0.124820
      dxz     :     0.042068
      dyz     :     0.019557
      dx2y2   :     0.015381
      dxy     :     0.019336

  5 O s       :     3.835008  s :     3.835008
      pz      :     1.370993  p :     4.657947
      px      :     1.817496
      py      :     1.469458
      dz2     :     0.008301  d :     0.021880
      dxz     :     0.000614
      dyz     :     0.008264
      dx2y2   :     0.002252
      dxy     :     0.002449

  6 O s       :     3.706553  s :     3.706553
      pz      :     1.642546  p :     4.464112
      px      :     1.121149
      py      :     1.700417
      dz2     :     0.008562  d :     0.036560
      dxz     :     0.006291
      dyz     :     0.005968
      dx2y2   :     0.004385
      dxy     :     0.011354

  7 C s       :     3.343186  s :     3.343186
      pz      :     1.092968  p :     2.940384
      px      :     0.718462
      py      :     1.128953
      dz2     :     0.009158  d :     0.042459
      dxz     :     0.008683
      dyz     :     0.002932
      dx2y2   :     0.011026
      dxy     :     0.010659

  8 H s       :     0.823637  s :     0.823637
      pz      :     0.007467  p :     0.018241
      px      :     0.003636
      py      :     0.007138

  9 H s       :     0.823439  s :     0.823439
      pz      :     0.004265  p :     0.018363
      px      :     0.010274
      py      :     0.003823

 10 H s       :     0.821818  s :     0.821818
      pz      :     0.008256  p :     0.018437
      px      :     0.005444
      py      :     0.004738

 11 H s       :     0.837045  s :     0.837045
      pz      :     0.007799  p :     0.017922
      px      :     0.003400
      py      :     0.006723

 12 H s       :     0.826487  s :     0.826487
      pz      :     0.007281  p :     0.017900
      px      :     0.005867
      py      :     0.004753

 13 H s       :     0.822774  s :     0.822774
      pz      :     0.007426  p :     0.017953
      px      :     0.003344
      py      :     0.007183

 14 H s       :     0.824231  s :     0.824231
      pz      :     0.004880  p :     0.017898
      px      :     0.004111
      py      :     0.008907

 15 H s       :     0.799803  s :     0.799803
      pz      :     0.007669  p :     0.017921
      px      :     0.003110
      py      :     0.007142

 16 H s       :     0.780091  s :     0.780091
      pz      :     0.004898  p :     0.018428
      px      :     0.004328
      py      :     0.009202

 17 H s       :     0.803061  s :     0.803061
      pz      :     0.003912  p :     0.017775
      px      :     0.003328
      py      :     0.010536

 18 H s       :     0.803796  s :     0.803796
      pz      :     0.012120  p :     0.018164
      px      :     0.002398
      py      :     0.003647

 19 H s       :     0.804982  s :     0.804982
      pz      :     0.005273  p :     0.017887
      px      :     0.005006
      py      :     0.007609


------------------------
MULLIKEN OVERLAP CHARGES
------------------------
B(  0-C ,  1-C ) :   0.4188 B(  0-C ,  2-C ) :  -0.2158 B(  0-C ,  8-H ) :   0.8517 
B(  0-C ,  9-H ) :   0.7929 B(  0-C , 10-H ) :   0.8509 B(  0-C , 11-H ) :  -0.0727 
B(  0-C , 12-H ) :  -0.0555 B(  1-C ,  2-C ) :   0.4724 B(  1-C ,  3-C ) :  -0.1954 
B(  1-C ,  8-H ) :  -0.1058 B(  1-C ,  9-H ) :  -0.0714 B(  1-C , 10-H ) :  -0.0853 
B(  1-C , 11-H ) :   0.8567 B(  1-C , 12-H ) :   0.8480 B(  1-C , 13-H ) :  -0.0841 
B(  1-C , 14-H ) :  -0.0699 B(  2-C ,  3-C ) :   0.2701 B(  2-C , 11-H ) :  -0.0901 
B(  2-C , 12-H ) :  -0.1171 B(  2-C , 13-H ) :   0.8584 B(  2-C , 14-H ) :   0.8216 
B(  2-C , 15-H ) :  -0.0586 B(  2-C , 16-H ) :  -0.0898 B(  3-C ,  4-C ) :   0.5056 
B(  3-C ,  5-O ) :  -0.1538 B(  3-C ,  6-O ) :  -0.0687 B(  3-C , 13-H ) :  -0.0592 
B(  3-C , 14-H ) :  -0.0756 B(  3-C , 15-H ) :   0.8652 B(  3-C , 16-H ) :   0.8008 
B(  4-C ,  5-O ) :   0.9330 B(  4-C ,  6-O ) :   0.4682 B(  4-C ,  7-C ) :  -0.1963 
B(  4-C , 15-H ) :  -0.1101 B(  5-O ,  6-O ) :  -0.2175 B(  6-O ,  7-C ) :   0.3333 
B(  6-O , 17-H ) :  -0.0655 B(  6-O , 18-H ) :  -0.0579 B(  6-O , 19-H ) :  -0.0787 
B(  7-C , 17-H ) :   0.8050 B(  7-C , 18-H ) :   0.8279 B(  7-C , 19-H ) :   0.7963 
B( 17-H , 18-H ) :  -0.0548 


                     *******************************
                     * LOEWDIN POPULATION ANALYSIS *
                     *******************************

----------------------
LOEWDIN ATOMIC CHARGES
----------------------
   0 C :   -0.433425
   1 C :   -0.314732
   2 C :   -0.289218
   3 C :   -0.225522
   4 C :    0.368726
   5 O :   -0.494719
   6 O :   -0.606734
   7 C :   -0.042468
   8 H :    0.153725
   9 H :    0.154152
  10 H :    0.152291
  11 H :    0.156128
  12 H :    0.157038
  13 H :    0.165132
  14 H :    0.164003
  15 H :    0.186367
  16 H :    0.193711
  17 H :    0.181750
  18 H :    0.186137
  19 H :    0.187659

-------------------------------
LOEWDIN REDUCED ORBITAL CHARGES
-------------------------------
  0 C s       :     2.972872  s :     2.972872
      pz      :     1.152869  p :     3.397624
      px      :     1.140637
      py      :     1.104118
      dz2     :     0.007987  d :     0.062930
      dxz     :     0.009484
      dyz     :     0.020165
      dx2y2   :     0.015731
      dxy     :     0.009563

  1 C s       :     2.936934  s :     2.936934
      pz      :     1.131859  p :     3.297909
      px      :     1.069218
      py      :     1.096831
      dz2     :     0.008221  d :     0.079889
      dxz     :     0.016936
      dyz     :     0.021881
      dx2y2   :     0.017768
      dxy     :     0.015084

  2 C s       :     2.932757  s :     2.932757
      pz      :     1.091885  p :     3.277161
      px      :     1.046067
      py      :     1.139209
      dz2     :     0.008033  d :     0.079300
      dxz     :     0.019954
      dyz     :     0.021543
      dx2y2   :     0.018761
      dxy     :     0.011010

  3 C s       :     2.919643  s :     2.919643
      pz      :     1.094425  p :     3.232313
      px      :     1.003369
      py      :     1.134518
      dz2     :     0.008928  d :     0.073566
      dxz     :     0.017972
      dyz     :     0.019583
      dx2y2   :     0.019097
      dxy     :     0.007986

  4 C s       :     2.739013  s :     2.739013
      pz      :     0.913553  p :     2.621419
      px      :     0.951255
      py      :     0.756611
      dz2     :     0.060491  d :     0.270843
      dxz     :     0.093166
      dyz     :     0.046591
      dx2y2   :     0.031037
      dxy     :     0.039557

  5 O s       :     3.543506  s :     3.543506
      pz      :     1.490760  p :     4.730130
      px      :     1.755050
      py      :     1.484320
      dz2     :     0.057335  d :     0.221083
      dxz     :     0.061129
      dyz     :     0.054878
      dx2y2   :     0.023222
      dxy     :     0.024519

  6 O s       :     3.469941  s :     3.469941
      pz      :     1.648833  p :     4.666481
      px      :     1.333168
      py      :     1.684480
      dz2     :     0.083301  d :     0.470312
      dxz     :     0.120512
      dyz     :     0.036743
      dx2y2   :     0.114913
      dxy     :     0.114842

  7 C s       :     2.908681  s :     2.908681
      pz      :     1.094088  p :     3.031756
      px      :     0.821378
      py      :     1.116290
      dz2     :     0.023817  d :     0.102031
      dxz     :     0.020539
      dyz     :     0.006163
      dx2y2   :     0.025596
      dxy     :     0.025917

  8 H s       :     0.802527  s :     0.802527
      pz      :     0.018408  p :     0.043748
      px      :     0.008069
      py      :     0.017271

  9 H s       :     0.801927  s :     0.801927
      pz      :     0.009671  p :     0.043921
      px      :     0.025459
      py      :     0.008791

 10 H s       :     0.803343  s :     0.803343
      pz      :     0.020352  p :     0.044366
      px      :     0.013016
      py      :     0.010998

 11 H s       :     0.800508  s :     0.800508
      pz      :     0.019132  p :     0.043364
      px      :     0.007946
      py      :     0.016286

 12 H s       :     0.799612  s :     0.799612
      pz      :     0.017990  p :     0.043349
      px      :     0.014187
      py      :     0.011173

 13 H s       :     0.790914  s :     0.790914
      pz      :     0.018288  p :     0.043954
      px      :     0.007736
      py      :     0.017929

 14 H s       :     0.792472  s :     0.792472
      pz      :     0.011406  p :     0.043525
      px      :     0.009954
      py      :     0.022165

 15 H s       :     0.769256  s :     0.769256
      pz      :     0.019268  p :     0.044378
      px      :     0.007187
      py      :     0.017922

 16 H s       :     0.760626  s :     0.760626
      pz      :     0.011712  p :     0.045662
      px      :     0.010408
      py      :     0.023542

 17 H s       :     0.776834  s :     0.776834
      pz      :     0.009058  p :     0.041416
      px      :     0.006938
      py      :     0.025421

 18 H s       :     0.770954  s :     0.770954
      pz      :     0.029384  p :     0.042909
      px      :     0.005422
      py      :     0.008103

 19 H s       :     0.771332  s :     0.771332
      pz      :     0.012818  p :     0.041009
      px      :     0.009850
      py      :     0.018342


---------------------------------
LOEWDIN BOND ORDERS (THRESH 0.050000)
---------------------------------
B(  0-C ,  1-C ) :   1.1417 B(  0-C ,  2-C ) :   0.0643 B(  0-C ,  8-H ) :   0.9292 
B(  0-C ,  9-H ) :   0.9294 B(  0-C , 10-H ) :   0.9275 B(  1-C ,  2-C ) :   1.1116 
B(  1-C ,  3-C ) :   0.0673 B(  1-C , 11-H ) :   0.8931 B(  1-C , 12-H ) :   0.8924 
B(  2-C ,  3-C ) :   1.0720 B(  2-C ,  4-C ) :   0.0783 B(  2-C , 13-H ) :   0.8813 
B(  2-C , 14-H ) :   0.8866 B(  3-C ,  4-C ) :   0.9317 B(  3-C ,  5-O ) :   0.1806 
B(  3-C ,  6-O ) :   0.1884 B(  3-C , 15-H ) :   0.8599 B(  3-C , 16-H ) :   0.8505 
B(  4-C ,  5-O ) :   2.1368 B(  4-C ,  6-O ) :   1.4681 B(  4-C ,  7-C ) :   0.0893 
B(  5-O ,  6-O ) :   0.4566 B(  5-O ,  7-C ) :   0.0709 B(  6-O ,  7-C ) :   1.3547 
B(  6-O , 17-H ) :   0.0996 B(  6-O , 18-H ) :   0.0970 B(  6-O , 19-H ) :   0.1006 
B(  7-C , 17-H ) :   0.8594 B(  7-C , 18-H ) :   0.8477 B(  7-C , 19-H ) :   0.8603 


------------------------------------------
LOEWDIN REDUCED ORBITAL POPULATIONS PER MO
-------------------------------------------
THRESHOLD FOR PRINTING IS 0.1%%
                      0         1         2         3         4         5   
                 -19.00442 -18.94388 -10.16240 -10.07576 -10.03522 -10.02447
                   2.00000   2.00000   2.00000   2.00000   2.00000   2.00000
                  --------  --------  --------  --------  --------  --------
 2 C  s               0.0       0.0       0.0       0.0       0.0      99.7
 3 C  s               0.0       0.0       0.0       0.0      99.7       0.0
 4 C  s               0.0       0.0      98.9       0.0       0.0       0.0
 5 O  s               0.0      99.9       0.0       0.0       0.0       0.0
 5 O  pz              0.0       0.0       0.2       0.0       0.0       0.0
 5 O  dz2             0.0       0.0       0.1       0.0       0.0       0.0
 5 O  dyz             0.0       0.0       0.2       0.0       0.0       0.0
 6 O  s              99.9       0.0       0.0       0.0       0.0       0.0
 6 O  dxz             0.0       0.0       0.2       0.1       0.0       0.0
 6 O  dx2y2           0.0       0.0       0.0       0.2       0.0       0.0
 7 C  s               0.0       0.0       0.0      99.4       0.0       0.0

                      6         7         8         9        10        11   
                 -10.01915 -10.00819  -1.07925  -0.98913  -0.77117  -0.72228
                   2.00000   2.00000   2.00000   2.00000   2.00000   2.00000
                  --------  --------  --------  --------  --------  --------
 0 C  s               0.0      99.7       0.0       0.0       5.4      11.0
 0 C  pz              0.0       0.0       0.0       0.0       0.2       0.2
 0 C  px              0.0       0.0       0.0       0.0       0.7       0.2
 0 C  py              0.1       0.0       0.0       0.0       1.0       0.9
 1 C  s              99.7       0.0       0.0       0.0      13.8      12.7
 1 C  px              0.0       0.0       0.0       0.0       1.5       0.2
 1 C  py              0.0       0.1       0.0       0.0       0.6       0.7
 2 C  s               0.0       0.0       0.1       0.0      20.5       1.1
 2 C  pz              0.0       0.0       0.0       0.0       1.7       0.0
 2 C  px              0.1       0.0       0.2       0.1       0.0       4.8
 2 C  py              0.0       0.0       0.0       0.0       0.1       0.1
 3 C  s               0.0       0.0       1.0       0.2      18.4       5.7
 3 C  pz              0.0       0.0       0.2       0.3       1.0       0.1
 3 C  px              0.0       0.0       1.8       0.1       0.7       2.9
 3 C  py              0.0       0.0       0.0       0.1       0.1       0.0
 4 C  s               0.0       0.0      17.0       3.1       2.1       4.0
 4 C  pz              0.0       0.0       0.0      17.1       1.8       3.9
 4 C  px              0.0       0.0       4.8       1.1       5.0       2.1
 4 C  py              0.0       0.0       0.0       5.5       0.5       0.9
 4 C  dz2             0.0       0.0       0.1       0.6       0.0       0.0
 4 C  dxz             0.0       0.0       0.2       0.6       0.0       0.0
 4 C  dyz             0.0       0.0       0.6       0.4       0.0       0.0
 4 C  dx2y2           0.0       0.0       0.1       0.2       0.1       0.0
 4 C  dxy             0.0       0.0       0.1       0.2       0.0       0.0
 5 O  s               0.0       0.0      14.7      40.5       1.0       1.3
 5 O  pz              0.0       0.0       2.6       2.3       0.2       0.5
 5 O  px              0.0       0.0       0.0       0.2       0.2       0.2
 5 O  py              0.0       0.0       0.8       0.6       0.1       0.1
 5 O  dz2             0.0       0.0       0.5       0.0       0.0       0.2
 5 O  dxz             0.0       0.0       0.1       0.2       0.3       0.3
 5 O  dyz             0.0       0.0       0.8       0.1       0.1       0.2
 5 O  dxy             0.0       0.0       0.0       0.1       0.1       0.1
 6 O  s               0.0       0.0      39.6      19.2       0.1       0.0
 6 O  pz              0.0       0.0       2.0       0.3       0.0       0.0
 6 O  px              0.0       0.0       0.2       0.6       2.7      14.8
 6 O  py              0.0       0.0       0.7       0.1       0.0       0.1
 6 O  dz2             0.0       0.0       0.0       0.3       0.1       0.0
 6 O  dxz             0.0       0.0       0.2       0.5       0.1       0.6
 6 O  dyz             0.0       0.0       0.3       0.4       0.0       0.0
 6 O  dx2y2           0.0       0.0       0.2       0.1       0.1       0.0
 6 O  dxy             0.0       0.0       0.1       0.1       0.1       0.2
 7 C  s               0.0       0.0       4.2       2.0       1.2      10.3
 7 C  pz              0.0       0.0       0.2       0.4       0.0       0.1
 7 C  px              0.0       0.0       5.0       1.6       0.1       0.2
 7 C  dx2y2           0.0       0.0       0.3       0.2       0.0       0.0
 8 H  s               0.0       0.0       0.0       0.0       0.7       1.7
 9 H  s               0.0       0.0       0.0       0.0       0.6       1.8
 9 H  px              0.0       0.0       0.0       0.0       0.0       0.1
10 H  s               0.0       0.0       0.0       0.0       0.7       1.6
11 H  s               0.0       0.0       0.0       0.0       1.7       1.9
12 H  s               0.0       0.0       0.0       0.0       1.7       2.1
12 H  pz              0.0       0.0       0.0       0.0       0.1       0.1
13 H  s               0.0       0.0       0.0       0.0       2.6       0.2
13 H  pz              0.0       0.0       0.0       0.0       0.1       0.0
13 H  py              0.0       0.0       0.0       0.0       0.1       0.0
14 H  s               0.0       0.0       0.0       0.0       2.6       0.1
14 H  py              0.0       0.0       0.0       0.0       0.2       0.0
15 H  s               0.0       0.0       0.1       0.0       2.6       1.2
15 H  pz              0.0       0.0       0.0       0.0       0.1       0.1
15 H  py              0.0       0.0       0.0       0.0       0.1       0.1
16 H  s               0.0       0.0       0.0       0.0       2.6       0.9
16 H  py              0.0       0.0       0.0       0.0       0.2       0.1
17 H  s               0.0       0.0       0.3       0.1       0.2       1.8
17 H  py              0.0       0.0       0.0       0.0       0.0       0.1
18 H  s               0.0       0.0       0.3       0.1       0.2       1.8
18 H  pz              0.0       0.0       0.0       0.0       0.0       0.2
19 H  s               0.0       0.0       0.2       0.2       0.2       2.2

                     12        13        14        15        16        17   
                  -0.67806  -0.61563  -0.54404  -0.52378  -0.47222  -0.46065
                   2.00000   2.00000   2.00000   2.00000   2.00000   2.00000
                  --------  --------  --------  --------  --------  --------
 0 C  s              11.8      14.0       3.8       1.4       0.0       0.1
 0 C  pz              0.0       0.4       0.3       0.0       0.6       0.2
 0 C  px              0.0       0.5       0.2       0.2       0.7       0.6
 0 C  py              0.2       1.2       5.1       2.5       0.3       0.0
 1 C  s               3.3       2.7       9.4       3.3       0.3       0.0
 1 C  pz              0.5       2.4       0.0       1.0       1.5       0.3
 1 C  px              3.3       4.3       1.0       0.7       2.6       0.1
 1 C  py              0.8       3.2       4.5       1.7       0.3       0.6
 1 C  dx2y2           0.1       0.1       0.0       0.0       0.0       0.0
 2 C  s               4.5      10.1       3.8       4.5       0.0       0.0
 2 C  pz              0.1       1.4       1.0       5.0       5.5       0.1
 2 C  px              3.2       2.0       3.2       0.5       0.1       1.0
 2 C  py              0.1       1.2       1.0       0.0       0.0       3.1
 3 C  s               7.3       5.9       0.0       3.0       1.7       0.0
 3 C  pz              0.4       1.5       1.2       4.9       8.6       0.0
 3 C  px              0.9       2.2       3.2       0.1      10.4       0.8
 3 C  py              0.0       1.0       0.0       0.4       0.7      10.9
 3 C  dxz             0.0       0.1       0.1       0.0       0.2       0.0
 3 C  dx2y2           0.0       0.0       0.0       0.1       0.1       0.0
 4 C  s               0.6       1.0       2.6       1.9       2.5       0.4
 4 C  pz              0.6       0.6       1.2       0.4       0.4       1.1
 4 C  px              3.5       4.0       0.2       2.2      12.3       0.3
 4 C  py              0.2       0.0       0.1       1.1       0.2      13.6
 4 C  dxz             0.2       0.1       0.0       0.1       0.0       0.0
 5 O  s               0.0       0.2       0.9       2.3       2.5       3.5
 5 O  pz              0.0       0.2       1.5       1.7       3.5      14.5
 5 O  px              0.1       0.3       0.1       0.4      11.6       0.1
 5 O  py              0.0       0.0       0.2       1.6       1.3       0.6
 5 O  dz2             0.1       0.0       0.1       0.0       0.0       0.6
 5 O  dxz             0.1       0.2       0.0       0.1       0.9       0.0
 5 O  dyz             0.0       0.0       0.1       0.2       0.0       0.1
 5 O  dx2y2           0.2       0.0       0.0       0.0       0.0       0.2
 5 O  dxy             0.0       0.0       0.0       0.0       0.4       0.0
 6 O  s               0.7       1.1       3.2       2.9       0.5       0.2
 6 O  pz              0.2       0.1       2.2       7.8       4.9       0.2
 6 O  px             12.4       0.3       5.2       7.8       0.8       2.5
 6 O  py              0.2       0.0       1.3       1.7       2.8      20.4
 6 O  dz2             0.4       0.4       0.2       0.0       0.3       0.1
 6 O  dxz             0.5       0.0       0.1       0.1       0.8       0.0
 6 O  dyz             0.0       0.0       0.0       0.0       0.1       0.2
 6 O  dx2y2           1.2       1.0       0.6       0.1       0.3       0.5
 6 O  dxy             0.1       0.0       0.0       0.0       0.3       0.0
 7 C  s              15.9       4.3       4.2       2.4       0.0       0.2
 7 C  pz              0.0       0.0       2.2       4.6       4.6       1.2
 7 C  px              0.3       1.0       5.4       4.3       0.1       1.3
 7 C  py              0.0       0.0       0.6       0.9       2.0       8.4
 7 C  dxz             0.0       0.0       0.1       0.2       0.0       0.0
 7 C  dx2y2           0.0       0.0       0.2       0.1       0.0       0.0
 8 H  s               2.2       3.7       2.3       1.2       0.0       0.0
 8 H  pz              0.1       0.2       0.1       0.1       0.0       0.0
 8 H  py              0.1       0.1       0.0       0.0       0.0       0.0
 9 H  s               2.5       4.2       1.4       0.6       0.1       0.3
 9 H  px              0.2       0.3       0.1       0.0       0.0       0.0
10 H  s               2.1       4.2       2.2       0.6       0.5       0.0
10 H  pz              0.1       0.2       0.1       0.0       0.0       0.0
11 H  s               0.6       0.7       4.9       2.8       0.0       0.2
11 H  pz              0.0       0.1       0.2       0.1       0.0       0.0
11 H  py              0.0       0.0       0.1       0.1       0.0       0.0
12 H  s               0.7       1.0       4.8       1.3       1.6       0.0
12 H  pz              0.0       0.0       0.2       0.1       0.0       0.0
13 H  s               0.9       2.5       2.6       3.3       0.6       0.6
13 H  py              0.0       0.1       0.1       0.1       0.0       0.0
14 H  s               1.0       3.3       1.3       2.9       0.2       0.7
14 H  py              0.1       0.2       0.1       0.2       0.0       0.0
15 H  s               1.1       1.6       0.1       2.3       4.0       2.0
15 H  py              0.0       0.1       0.0       0.1       0.1       0.0
16 H  s               1.4       2.5       0.0       2.7       2.4       2.6
16 H  py              0.1       0.1       0.0       0.2       0.2       0.0
17 H  s               3.5       1.4       2.8       2.0       0.1       1.4
17 H  py              0.3       0.1       0.1       0.1       0.0       0.0
18 H  s               3.2       1.3       3.4       3.8       1.2       1.3
18 H  pz              0.3       0.1       0.2       0.2       0.0       0.0
19 H  s               4.1       1.5       1.3       0.4       1.5       1.9
19 H  px              0.1       0.0       0.0       0.0       0.0       0.0
19 H  py              0.2       0.1       0.1       0.0       0.0       0.0

                     18        19        20        21        22        23   
                  -0.45157  -0.42423  -0.40576  -0.39150  -0.37716  -0.36029
                   2.00000   2.00000   2.00000   2.00000   2.00000   2.00000
                  --------  --------  --------  --------  --------  --------
 0 C  s               0.0       0.3       0.0       0.0       0.1       0.0
 0 C  pz              0.4       5.3       6.6       8.4       5.7       0.0
 0 C  px              0.0       2.9      11.0       0.0       4.3      13.7
 0 C  py              0.2       0.1       0.0       4.9       0.4      10.0
 0 C  dz2             0.0       0.0       0.0       0.0       0.0       0.1
 1 C  s               0.0       0.2       0.1       0.1       0.3       0.1
 1 C  pz              1.7       4.2      10.7       9.7       0.0       0.3
 1 C  px              0.0       0.1       9.0       1.0       0.0       5.6
 1 C  py              0.1       4.9       0.9       0.7       5.6       0.0
 2 C  s               0.2       0.1       0.1       0.0       0.3       0.2
 2 C  pz              2.4       0.5       3.3       0.2       2.5       0.0
 2 C  px              0.6       4.0       0.9       3.6       0.0       2.8
 2 C  py              0.0      15.8       0.9       2.7       4.8       6.0
 2 C  dxz             0.0       0.0       0.1       0.0       0.0       0.1
 2 C  dx2y2           0.0       0.0       0.0       0.0       0.1       0.0
 3 C  s               0.3       0.0       1.1       0.1       0.1       0.2
 3 C  pz              0.4       0.1       0.6      10.2       1.7       0.0
 3 C  px              1.3       0.2       1.5       0.1       0.0       7.8
 3 C  py              0.2      11.5       0.3       4.3       4.4       0.2
 3 C  dxz             0.0       0.0       0.0       0.0       0.0       0.1
 4 C  s               0.8       0.0       0.2       0.1       0.0       0.3
 4 C  pz              7.7       0.2       0.2       2.3       2.1       0.8
 4 C  px              0.2       0.0       0.3       2.2       0.5       5.4
 4 C  py              1.5       0.4       0.1       0.8       7.4       0.3
 4 C  dz2             0.1       0.0       0.1       0.1       0.1       0.0
 4 C  dx2y2           0.0       0.0       0.1       0.1       0.0       0.0
 4 C  dxy             0.0       0.2       0.0       0.0       0.0       0.0
 5 O  s               8.1       0.3       0.2       1.0       0.0       0.1
 5 O  pz             12.8       1.6       1.8       9.1       3.9       0.2
 5 O  px              0.1       0.0       0.6       0.7       0.5       2.1
 5 O  py             13.5       0.1       0.2       1.6       9.6       2.6
 5 O  dz2             0.1       0.0       0.0       0.1       0.2       0.0
 5 O  dxz             0.0       0.0       0.0       0.0       0.0       0.1
 5 O  dyz             0.3       0.0       0.0       0.1       0.2       0.0
 5 O  dx2y2           0.1       0.0       0.1       0.2       0.0       0.0
 5 O  dxy             0.0       0.1       0.0       0.0       0.1       0.0
 6 O  s               0.7       0.0       0.4       0.0       0.0       0.0
 6 O  pz             15.3       2.0       2.9       1.1       0.0       0.0
 6 O  px              7.0       0.5       4.0       0.1       0.1       1.9
 6 O  py              2.0       5.9       1.2       0.3       0.1       0.0
 6 O  dz2             0.7       0.1       0.0       0.0       0.0       0.0
 6 O  dxz             0.0       0.2       0.4       0.1       0.4       0.4
 6 O  dxy             0.0       0.5       0.2       0.1       2.4       0.0
 7 C  s               0.6       0.0       0.2       0.0       0.0       0.0
 7 C  pz              2.6       3.7       3.7       4.7       1.8       6.9
 7 C  px              6.7       0.0       6.5       1.8       0.0       3.9
 7 C  py              2.8       7.4       2.6       2.1      15.4       0.3
 7 C  dx2y2           0.2       0.0       0.1       0.0       0.0       0.0
 7 C  dxy             0.0       0.0       0.0       0.0       0.1       0.0
 8 H  s               0.2       0.4       1.2       5.3       0.6       2.8
 9 H  s               0.0       2.3       2.4       0.6       3.1       7.8
 9 H  px              0.0       0.1       0.0       0.0       0.1       0.1
10 H  s               0.0       0.7       4.4       0.5       0.8       3.9
10 H  pz              0.0       0.0       0.1       0.0       0.0       0.2
11 H  s               0.5       2.2       1.5       3.5       0.4       0.0
11 H  py              0.0       0.0       0.1       0.1       0.0       0.0
12 H  s               0.1       0.5       6.8       0.5       0.1       0.2
13 H  s               1.0       2.9       0.0       0.8       0.0       1.9
13 H  pz              0.0       0.1       0.0       0.0       0.0       0.1
14 H  s               0.2       5.4       0.9       0.2       4.0       0.7
14 H  pz              0.0       0.1       0.0       0.0       0.0       0.0
15 H  s               0.0       1.4       1.4       6.6       0.2       0.0
16 H  s               0.0       3.9       0.1       0.0       2.6       1.0
17 H  s               3.8       3.0       0.0       0.0       7.3       0.3
17 H  py              0.1       0.1       0.0       0.0       0.1       0.0
18 H  s               0.2       2.0       0.7       1.5       1.6       2.9
19 H  s               1.0       0.5       5.7       3.6       2.6       4.0
19 H  pz              0.0       0.1       0.0       0.0       0.1       0.0
19 H  py              0.1       0.0       0.1       0.1       0.0       0.1

                     24        25        26        27        28        29   
                  -0.34147  -0.32991  -0.32369  -0.29566  -0.29246  -0.28881
                   2.00000   2.00000   2.00000   2.00000   2.00000   2.00000
                  --------  --------  --------  --------  --------  --------
 0 C  s               0.1       0.1       0.1       0.0       0.4       0.2
 0 C  pz             10.7       4.7       0.3       3.9       0.4       8.5
 0 C  px              0.5       1.6       5.4      10.3       3.1       0.7
 0 C  py              2.7      11.7       0.7       0.6       8.0       4.4
 0 C  dz2             0.0       0.0       0.0       0.0       0.0       0.1
 0 C  dxz             0.1       0.0       0.0       0.1       0.0       0.1
 0 C  dyz             0.1       0.2       0.1       0.0       0.3       0.2
 0 C  dx2y2           0.0       0.0       0.0       0.5       0.0       0.0
 0 C  dxy             0.1       0.0       0.0       0.0       0.0       0.1
 1 C  s               0.1       0.0       0.0       0.2       0.2       0.1
 1 C  pz              2.4       0.0       0.0       4.8       4.7      11.3
 1 C  px              0.0       0.9       1.2      15.5       2.0       3.1
 1 C  py              4.3       8.3       1.3       1.5      10.5       4.1
 1 C  dz2             0.1       0.0       0.0       0.0       0.1       0.0
 1 C  dxz             0.0       0.1       0.0       0.2       0.0       0.3
 1 C  dyz             0.0       0.1       0.0       0.0       0.7       0.1
 1 C  dx2y2           0.0       0.0       0.1       0.4       0.0       0.0
 1 C  dxy             0.1       0.0       0.0       0.0       0.1       0.4
 2 C  s               0.3       0.0       0.1       0.6       0.1       0.1
 2 C  pz              8.1       8.3       2.1       5.3       2.9       3.5
 2 C  px              2.1       0.8       0.3      18.0       1.6       1.6
 2 C  py              0.4       1.7       0.0       0.0      12.5       5.9
 2 C  dxz             0.0       0.0       0.0       0.0       0.0       0.4
 2 C  dyz             0.0       0.1       0.0       0.0       0.8       0.0
 2 C  dx2y2           0.1       0.0       0.0       0.3       0.0       0.1
 2 C  dxy             0.0       0.1       0.0       0.0       0.0       0.1
 3 C  s               0.2       0.1       0.1       0.1       0.1       0.4
 3 C  pz              7.0       6.9       0.0       0.0       1.6       4.9
 3 C  px              0.3       2.6       3.4       1.1       1.2       2.0
 3 C  py              7.1       6.3       0.9       0.0       2.5       5.0
 3 C  dz2             0.0       0.1       0.0       0.1       0.0       0.0
 3 C  dxz             0.1       0.0       0.0       0.0       0.0       0.1
 3 C  dyz             0.0       0.3       0.0       0.0       0.4       0.0
 3 C  dx2y2           0.1       0.0       0.0       0.2       0.0       0.0
 3 C  dxy             0.1       0.0       0.0       0.0       0.0       0.0
 4 C  s               0.0       0.0       0.4       0.4       0.0       0.0
 4 C  pz              1.4       0.6       2.3       0.3       0.0       0.0
 4 C  px              0.1       0.1       0.1       1.2       0.0       0.1
 4 C  py              3.3       0.9       0.5       0.3       0.0       0.1
 4 C  dz2             0.2       0.1       0.4       0.1       0.0       0.2
 4 C  dyz             0.1       0.1       0.1       0.0       0.0       0.1
 4 C  dx2y2           0.0       0.1       0.2       0.0       0.0       0.0
 4 C  dxy             0.1       0.1       0.0       0.0       0.0       0.0
 5 O  s               0.0       0.2       0.4       0.1       0.0       0.0
 5 O  pz              2.6       3.6       2.7       0.6       0.0       1.8
 5 O  px              0.0       0.0       2.1       1.9       0.7       0.2
 5 O  py             14.6       0.1       1.6       0.6       0.2       4.6
 5 O  dz2             0.1       0.0       0.2       0.1       0.0       0.0
 5 O  dyz             0.0       0.1       0.1       0.1       0.0       0.0
 6 O  s               0.0       0.1       3.8       0.3       0.2       0.1
 6 O  pz              0.2       3.4      19.3       4.2       0.7       0.0
 6 O  px              0.0       0.2       3.4       0.4       0.2       0.2
 6 O  py              1.1       0.3       7.5       0.2       0.2       0.4
 6 O  dz2             0.1       0.0       0.7       0.2       0.1       0.0
 6 O  dxz             0.1       0.5       0.6       0.1       0.0       0.0
 6 O  dx2y2           0.0       0.0       0.7       0.2       0.1       0.1
 6 O  dxy             0.4       0.0       0.4       0.0       0.0       0.1
 7 C  s               0.0       0.0       0.2       0.1       0.0       0.0
 7 C  pz              1.5       2.9      11.4       0.5       0.1       0.0
 7 C  px              0.0       0.3       0.7       0.4       0.1       0.1
 7 C  py              3.1       0.1       3.9       0.1       0.0       0.0
 7 C  dz2             0.0       0.1       0.3       0.1       0.0       0.0
 7 C  dxz             0.0       0.1       0.2       0.0       0.0       0.0
 7 C  dxy             0.1       0.0       0.2       0.0       0.0       0.0
 8 H  s               1.0       7.9       0.4       3.4       4.0       0.8
 8 H  pz              0.0       0.1       0.0       0.0       0.0       0.0
 8 H  py              0.1       0.0       0.0       0.0       0.0       0.1
 9 H  s               0.0       0.0       2.0       9.4       0.3       0.3
10 H  s               7.2       0.6       1.0       0.2       0.5       8.0
10 H  py              0.0       0.2       0.0       0.0       0.1       0.0
11 H  s               0.0       1.6       0.2       3.5      12.1       1.4
11 H  px              0.0       0.0       0.0       0.2       0.0       0.0
11 H  py              0.0       0.0       0.0       0.0       0.0       0.1
12 H  s               2.0       0.3       0.0       0.7       1.1      13.9
12 H  pz              0.0       0.0       0.0       0.1       0.0       0.1
12 H  py              0.0       0.0       0.0       0.0       0.2       0.0
13 H  s               0.9       5.4       0.2       0.9      12.1       0.0
13 H  px              0.0       0.0       0.0       0.2       0.0       0.0
13 H  py              0.1       0.1       0.0       0.0       0.0       0.0
14 H  s               0.7       0.0       0.2       2.8       6.1       5.4
14 H  pz              0.0       0.1       0.0       0.0       0.1       0.0
14 H  px              0.1       0.0       0.0       0.1       0.0       0.1
15 H  s               0.0       8.4       0.3       0.0       3.8       0.1
[...]
 4 C  py              0.1       0.3       0.8       1.8       0.0       0.0
 4 C  dz2             1.3       0.0       0.0       2.7       0.0       0.0
 4 C  dxz             2.8       1.3       7.7       0.7       0.0       0.0
 4 C  dyz             0.2       0.2       1.4       3.0       0.0       0.0
 4 C  dx2y2           3.4       0.1       0.5       0.2       0.0       0.0
 4 C  dxy             0.5       0.5       2.9       0.2       0.0       0.0
 5 O  s               0.2       1.1       0.7      18.4       0.0       0.0
 5 O  pz              0.2       0.6       0.4      16.2       0.0       0.0
 5 O  px              2.1       0.1       0.3       0.7       0.0       0.0
 5 O  py              0.3       0.2       0.1       4.9       0.0       0.0
 5 O  dz2             0.0       0.8       0.0      13.3       0.0       0.0
 5 O  dxz             6.3       0.0       1.3       2.1       0.0       0.0
 5 O  dyz             0.4       0.9       0.2      16.4       0.0       0.0
 5 O  dx2y2           0.0       0.2       0.6       1.2       0.0       0.0
 5 O  dxy             2.2       0.0       0.3       0.6       0.0       0.0
 6 O  s               2.0      24.4       6.0       0.7       0.0       0.0
 6 O  pz              1.8       4.8       3.5       0.1       0.0       0.0
 6 O  px              0.0       8.1      25.1       0.9       0.0       0.0
 6 O  py              0.4       1.1       1.8       0.0       0.0       0.0
 6 O  dz2             1.8       3.3       0.3       0.2       0.0       0.0
 6 O  dxz             0.1       0.4      20.1       0.7       0.0       0.0
 6 O  dyz             1.3       1.5       2.7       0.0       0.0       0.0
 6 O  dx2y2           0.5      21.4       0.3       1.3       0.0       0.0
 6 O  dxy             0.0       0.0       6.7       0.1       0.0       0.0
 7 C  s               0.1       1.7       0.6       0.2       1.4      50.5
 7 C  pz              0.0       0.4       0.3       0.0       0.0       0.0
 7 C  px              0.0       7.3       1.7       0.4       0.0       0.0
 7 C  py              0.0       0.1       0.0       0.0       0.0       0.0
 7 C  dz2             0.2       1.4       0.6       0.1       0.0       0.0
 7 C  dxz             0.4       3.3       0.6       0.3       0.0       0.0
 7 C  dx2y2           0.0       8.5       1.4       0.3       0.0       0.0
 7 C  dxy             0.1       0.3       0.1       0.1       0.0       0.0
 8 H  s               0.2       0.0       0.0       0.0       0.0       0.0
 8 H  pz              0.1       0.0       0.0       0.0       0.0       0.0
 8 H  py              0.3       0.0       0.0       0.0       0.0       0.0
10 H  s               0.3       0.0       0.0       0.0       0.0       0.0
10 H  pz              0.7       0.0       0.0       0.0       0.0       0.0
10 H  py              0.2       0.0       0.0       0.0       0.0       0.0
11 H  s               2.6       0.0       0.0       0.0       0.0       0.0
11 H  pz              2.4       0.0       0.0       0.0       0.0       0.0
11 H  py              4.2       0.0       0.0       0.0       0.0       0.0
12 H  s               2.5       0.0       0.0       0.0       0.0       0.0
12 H  pz              2.5       0.0       0.0       0.0       0.0       0.0
12 H  px              2.1       0.0       0.0       0.0       0.0       0.0
12 H  py              0.8       0.0       0.0       0.0       0.0       0.0
13 H  s               2.1       0.0       0.0       0.0       0.0       0.0
13 H  pz              2.8       0.0       0.0       0.0       0.0       0.0
13 H  py              2.1       0.0       0.0       0.0       0.0       0.0
14 H  s               1.2       0.0       0.0       0.0       0.0       0.0
14 H  pz              0.6       0.0       0.0       0.0       0.0       0.0
14 H  px              0.5       0.0       0.0       0.0       0.0       0.0
14 H  py              1.5       0.0       0.0       0.0       0.0       0.0
15 H  s               0.0       0.0       0.1       0.0       0.0       0.0
16 H  s               1.4       0.0       0.0       0.0       0.0       0.0
16 H  pz              0.7       0.0       0.0       0.0       0.0       0.0
16 H  py              3.7       0.0       0.0       0.0       0.0       0.0
17 H  s               0.0       0.4       0.0       0.0       0.0       0.0
17 H  pz              0.0       0.2       0.0       0.0       0.0       0.0
17 H  py              0.0       0.9       0.0       0.0       0.0       0.0
18 H  s               0.0       0.2       0.1       0.0       0.0       0.0
18 H  pz              0.1       0.3       0.1       0.0       0.0       0.0
18 H  px              0.2       0.1       0.1       0.0       0.0       0.0
19 H  s               0.0       0.3       0.1       0.0       0.0       0.0
19 H  pz              0.0       0.4       0.1       0.0       0.0       0.0
19 H  py              0.1       0.5       0.1       0.0       0.0       0.0

                    216       217       218       219       220       221   
                  22.00412  22.02923  22.04751  22.26026  43.63096  43.70074
                   0.00000   0.00000   0.00000   0.00000   0.00000   0.00000
                  --------  --------  --------  --------  --------  --------
 0 C  s               8.5       4.5       0.2       0.0       0.0       0.0
 1 C  s              18.3      52.2      22.0       0.1       0.0       0.0
 2 C  s              29.2      39.2       8.9       0.8       0.0       0.0
 3 C  s               3.8       3.1      58.3       3.0       0.0       0.0
 4 C  s               2.4       0.0       1.3      94.4       0.0       0.0
 5 O  s               0.0       0.0       0.0       0.2      72.5      27.4
 5 O  pz              0.0       0.0       0.0       0.1       0.0       0.0
 6 O  s               0.1       0.0       0.1       0.1      27.4      72.5
 7 C  s              37.4       0.8       8.9       0.7       0.0       0.0



                      *****************************
                      * MAYER POPULATION ANALYSIS *
                      *****************************

  NA   - Mulliken gross atomic population
  ZA   - Total nuclear charge
  QA   - Mulliken gross atomic charge
  VA   - Mayer's total valence
  BVA  - Mayer's bonded valence
  FA   - Mayer's free valence

  ATOM       NA         ZA         QA         VA         BVA        FA
  0 C      6.5328     6.0000    -0.5328     3.7934     3.7934     0.0000
  1 C      6.2232     6.0000    -0.2232     3.5807     3.5807    -0.0000
  2 C      6.2797     6.0000    -0.2797     3.6388     3.6388    -0.0000
  3 C      6.3556     6.0000    -0.3556     3.7914     3.7914     0.0000
  4 C      5.5725     6.0000     0.4275     3.8168     3.8168     0.0000
  5 O      8.5148     8.0000    -0.5148     1.8752     1.8752     0.0000
  6 O      8.2072     8.0000    -0.2072     1.9821     1.9821    -0.0000
  7 C      6.3260     6.0000    -0.3260     3.7392     3.7392    -0.0000
  8 H      0.8419     1.0000     0.1581     0.9602     0.9602     0.0000
  9 H      0.8418     1.0000     0.1582     0.9584     0.9584     0.0000
 10 H      0.8403     1.0000     0.1597     0.9590     0.9590     0.0000
 11 H      0.8550     1.0000     0.1450     0.9634     0.9634    -0.0000
 12 H      0.8444     1.0000     0.1556     0.9576     0.9576     0.0000
 13 H      0.8407     1.0000     0.1593     0.9591     0.9591    -0.0000
 14 H      0.8421     1.0000     0.1579     0.9581     0.9581    -0.0000
 15 H      0.8177     1.0000     0.1823     0.9562     0.9562     0.0000
 16 H      0.7985     1.0000     0.2015     0.9451     0.9451     0.0000
 17 H      0.8208     1.0000     0.1792     0.9482     0.9482     0.0000
 18 H      0.8220     1.0000     0.1780     0.9540     0.9540     0.0000
 19 H      0.8229     1.0000     0.1771     0.9508     0.9508    -0.0000

  Mayer bond orders larger than 0.100000
B(  0-C ,  1-C ) :   0.8813 B(  0-C ,  8-H ) :   0.9803 B(  0-C ,  9-H ) :   0.9675 
B(  0-C , 10-H ) :   0.9780 B(  1-C ,  2-C ) :   0.8830 B(  1-C , 11-H ) :   0.9786 
B(  1-C , 12-H ) :   0.9724 B(  2-C ,  3-C ) :   0.8889 B(  2-C , 13-H ) :   0.9766 
B(  2-C , 14-H ) :   0.9652 B(  3-C ,  4-C ) :   0.9978 B(  3-C , 15-H ) :   0.9708 
B(  3-C , 16-H ) :   0.9290 B(  4-C ,  5-O ) :   1.7492 B(  4-C ,  6-O ) :   1.0894 
B(  6-O ,  7-C ) :   0.8282 B(  7-C , 17-H ) :   0.9529 B(  7-C , 18-H ) :   0.9611 
B(  7-C , 19-H ) :   0.9603 

-------
TIMINGS
-------

Total SCF time: 0 days 0 hours 0 min 30 sec 

Total time                  ....      30.681 sec
Sum of individual times     ....      30.154 sec  ( 98.3%)

SCF preparation             ....       0.383 sec  (  1.2%)
Fock matrix formation       ....      28.774 sec  ( 93.8%)
  Startup                   ....       0.069 sec  (  0.2% of F)
  Split-RI-J                ....       4.600 sec  ( 16.0% of F)
  XC integration            ....      18.440 sec  ( 64.1% of F)
    Basis function eval.    ....       3.331 sec  ( 18.1% of XC)
    Density eval.           ....       5.606 sec  ( 30.4% of XC)
    XC-Functional eval.     ....       2.487 sec  ( 13.5% of XC)
    XC-Potential eval.      ....       5.997 sec  ( 32.5% of XC)
  CPCM terms                ....       5.089 sec  ( 17.7% of F)
Diagonalization             ....       0.000 sec  (  0.0%)
Density matrix formation    ....       0.267 sec  (  0.9%)
Total Energy calculation    ....       0.046 sec  (  0.2%)
Population analysis         ....       0.129 sec  (  0.4%)
Orbital Transformation      ....       0.061 sec  (  0.2%)
Orbital Orthonormalization  ....       0.000 sec  (  0.0%)
DIIS solution               ....       0.438 sec  (  1.4%)
  MO trafo                  ....       0.000 sec  (  0.0 % of DIIS)
  Orb grad                  ....       0.000 sec  (  0.0 % of DIIS)
  Energy W gradient         ....       0.000 sec  (  0.0 % of DIIS)
  DIIS error                ....       0.016 sec  (  3.6 % of DIIS)
  DIIS work                 ....       0.365 sec  ( 83.4 % of DIIS)
  Form Q                    ....       0.000 sec  (  0.0 % of DIIS)
  Form QpQm                 ....       0.000 sec  (  0.0 % of DIIS)
  Exp/Cayley                ....       0.000 sec  (  0.0 % of DIIS)
  Orb update                ....       0.000 sec  (  0.0 % of DIIS)
  Wake-sleep                ....       0.026 sec  (  5.9 % of DIIS)
SOSCF solution              ....       0.056 sec  (  0.2%)
  MO trafo                  ....       0.044 sec  ( 78.1 % of SOSCF)
  Orb grad                  ....       0.001 sec  (  1.0 % of SOSCF)
  Rot update                ....       0.000 sec  (  0.1 % of SOSCF)
  Step                      ....       0.011 sec  ( 20.6 % of SOSCF)
Finished LeanSCF after  30.8 sec

Maximum memory used throughout the entire LEANSCF-calculation: 30.5 MB


-------------------------------------------------------------------------------
                          DFT DISPERSION CORRECTION                            
                                                                               
                                DFTD4 V3.4.0                                   
-------------------------------------------------------------------------------
The R2SCAN3C composite method is recognized
Using three-body term ABC
Active option DFTDOPT                   ...         5   

-------------------------   ----------------
Dispersion correction           -0.004995095
-------------------------   ----------------

------------------   -----------------
gCP correction             0.012055489
------------------   -----------------

-------------------------   --------------------
FINAL SINGLE POINT ENERGY      -386.234595484636
-------------------------   --------------------


------------------------------------------------------------------------------
                              ORCA PROPERTY CALCULATIONS
------------------------------------------------------------------------------

GBWName                                 ... sp_solv.gbw
Number of atoms                         ...     20
Number of basis functions               ...    222
Max core memory                         ...   1024 MB

Electric properties:
Dipole moment                           ... YES
Quadrupole moment                       ...  NO
Static polarizability (Dipole/Dipole)   ...  NO
Static polarizability (Dipole/Quad.)    ...  NO
Static polarizability (Quad./Quad.)     ...  NO
Static polarizability (Velocity)        ...  NO

Atomic electric properties:
Dipole moment                           ...  NO
Quadrupole moment                       ...  NO
Static polarizability                   ...  NO

Choice of electric origin               ... Center of mass
Position of electric origin             ...    -0.000036    -0.000005     0.000007

General magnetic properties:
Magnetizability                         ...  NO

EPR properties:
g-Tensor (aka g-matrix)                 ...  NO
Zero-Field splitting spin-orbit         ...  NO
Zero-field splitting spin-spin          ...  NO
Hyperfine couplings                     ...  NO (   0 nuclei)
Quadrupole couplings                    ...  NO (   0 nuclei)
Contact density                         ...  NO (   0 nuclei)

NMR properties:
Chemical shifts                         ...  NO (   0 nuclei)
Spin-rotation constants                 ...  NO (   0 nuclei)
Spin-spin couplings                     ...  NO (   0 nuclei,    0 pairs)

Choice of magnetic origin               ... GIAO
Position of magnetic origin             ...     0.000000     0.000000     0.000000

Properties with geometric perturbations:
SCF Hessian                             ...  NO
IR spectrum                             ...  NO
VCD spectrum                            ...  NO
X-ray spectroscopy properties:
SCF XES/XAS/RIXS spectra                ...  NO


-------------
DIPOLE MOMENT
-------------

Method             : SCF
Type of density    : Electron Density
Multiplicity       :   1
Irrep              :   0
Energy             :  -386.2416558780413425 Eh
Relativity type    : 
Basis              : AO
                                X                 Y                 Z
Electronic contribution:      8.601403265       0.401610695      -0.949440267
Nuclear contribution   :     -8.523214467      -0.956841061       1.874705066
                        -----------------------------------------
Total Dipole Moment    :      0.078188798      -0.555230366       0.925264799
                        -----------------------------------------
Magnitude (a.u.)       :      1.081900733
Magnitude (Debye)      :      2.749973120



--------------------
Rotational spectrum 
--------------------
 
Rotational constants in cm-1:             0.198586             0.027101             0.026106 
Rotational constants in MHz :          5953.468445           812.454544           782.652038 

Dipole components along the rotational axes: 
x,y,z [a.u.] :     0.060248    -1.076858    -0.085184 
x,y,z [Debye]:     0.153137    -2.737155    -0.216521 

 

Dipole moment calculation done in   0.0 sec 

Maximum memory used throughout the entire PROP-calculation: 13.6 MB

--------------------------------
SUGGESTED CITATIONS FOR THIS RUN
--------------------------------

Below you find a list of papers that are relevant to this ORCA run
We neither can nor want to force you to cite these papers, but we appreciate if you do
You receive ORCA, which is the product of decades of hard work by many enthusiastic individuals, for free
The only thing we kindly ask in return is that you cite our papers,
We deeply appreciate it, if you show your appreciation for ORCA by not just citing the generic ORCA reference.

Please note that relegating all ORCA citations to the supporting information does *not* help us.
SI sections are not indexed - citations you put there will not count into any citation statistics
But we need these citations in order to attract the funding resources that allow us to do what we are doing

Therefore, if you are a happy ORCA user, please consider citing a few of the papers listed below in the main body of your paper

In addition to the list printed below, the program has created the file sp_solv.bibtex that contains the list in bibtex format
You can import this file easily into all common literature databanks and citation aid programs


List of essential papers. We consider these as the minimum necessary citations

  1. Neese,F.
     Software update: the ORCA program system, version 5.0
     WIRES Comput. Molec. Sci., 2022 12(1)e1606
     doi.org/10.1002/wcms.1606
  2. Grimme,S.; Hansen,A.; Ehlert,S.; Mewes,J.
     r2SCAN-3c: A 'Swiss army knife' composite electronic-structure method
     J. Chem. Phys., 2021 154 064103
     doi.org/10.1063/5.0040021

List of papers to cite with high priority. The work reported in these papers was absolutely
necessary for this run to complete.
Our perspective: the developers of density functionals and basis sets usually get cited in chemistry papers
Good! But without the algorithms to do something with them, the functionals or basis sets would not do anything.
Hence, in our opinion, the algorithm design and method developments papers are equally worthy of getting cited

  1. Neese,F.
     An improvement of the resolution of the identity approximation for the formation of the Coulomb matrix
     J. Comp. Chem., 2003 24(14)1740-1747
     doi.org/10.1002/jcc.10318
  2. Garcia-Rates,M.; Neese,F.
     Effect of the Solute Cavity on the Solvation Energy and its Derivatives within the Framework of the Gaussian Charge Scheme
     J. Comput. Chem., 2020 41 922-939
     doi.org/10.1002/jcc.26139
  3. Neese,F.
     The SHARK Integral Generation and Digestion System
     J. Comp. Chem., 2022  1-16
     doi.org/10.1002/jcc.26942
  4. Lehtola,S.; Steigemann,C.; Oliveira,M.; Marques,M.
     Recent developments in Libxc - A comprehensive library of functionals for density functional theory
     Software X, 2018 7 
     doi.org/10.1016/j.softx.2017.11.002
  5. Caldeweyher,E.; Bannwarth,C.; Grimme,S.
     Extension of the D3 dispersion coefficient model
     J. Chem. Phys., 2017 147 034112-XXXX
     doi.org/10.1063/1.4993215
  6. Caldeweyher,E.; Ehlert,S.; Hansen,A.; Neugebauer,H.; Spicher,S.; Bannwarth,C.; Grimme,S.
     A generally applicable atomic-charge dependent London dispersion correction
     J. Chem. Phys., 2019 150 154122-XXXX
     doi.org/10.1063/1.5090222
  7. Caldeweyher,E.; Mewes,J.; Ehlert,S.; Grimme,S.
     Extension and evaluation of the D4 London-dispersion model for periodic systems
     Phys. Chem. Chem. Phys., 2020 22(16)8499-8512
     doi.org/10.1039/D0CP00502A

List of suggested additional citations. These are papers that are important in the 'surrounding' of 
of this run, or papers that preceded the highly important papers. If you like your results we are grateful for a citation.

  1. Neese,F.
     The ORCA program system
     WIRES Comput. Molec. Sci., 2012 2(1)73-78
     doi.org/10.1002/wcms.81
  2. Neese,F.
     Software update: the ORCA program system, version 4.0
     WIRES Comput. Molec. Sci., 2018 8(1)1-6
     doi.org/10.1002/wcms.1327
  3. Neese,F.; Wennmohs,F.; Becker,U.; Riplinger,C.
     The ORCA quantum chemistry program package
     J. Chem. Phys., 2020 152 Art. No. L224108
     doi.org/10.1063/5.0004608

List of optional additional citations

  1. Neese,F.
     Approximate second-order SCF convergence for spin unrestricted wavefunctions
     Chem. Phys. Lett., 2000 325(1-3)93-98
     doi.org/10.1016/s0009-2614(00)00662-x

Timings for individual modules:

Sum of individual times          ...       32.464 sec (=   0.541 min)
Startup calculation              ...        1.213 sec (=   0.020 min)   3.7 %
SCF iterations                   ...       31.139 sec (=   0.519 min)  95.9 %
Property calculations            ...        0.113 sec (=   0.002 min)   0.3 %
                             ****ORCA TERMINATED NORMALLY****
TOTAL RUN TIME: 0 days 0 hours 0 minutes 33 seconds 199 msec
