20
 energy: -27.121093164371 gnorm: 0.034489165139 xtb: 6.7.1 (edcfbbe)
C           -3.69057555614553       -0.67612791203454        0.30134541277999
C           -2.49100762830962        0.15171036096522       -0.14858021712567
C           -1.17787992607502       -0.51242994009872        0.24615892804440
C            0.03941268770381        0.25462634826945       -0.18436797426996
O            0.03334376480222        1.27805216330877       -0.84895292890114
O            1.17157113312914       -0.32955899102544        0.25331170539342
C            2.42724954077252        0.32522458742758       -0.11724589954395
C            3.54598913777869       -0.47733907739888        0.49584796114707
H           -3.69355455702447       -0.80580085653440        1.38903435837116
H           -4.63033564535553       -0.19301840318002        0.01758616072635
H           -3.67310460499279       -1.67212301166577       -0.15435793698098
H           -2.53860618502635        1.15209729970013        0.29611439562097
H           -2.51709183836959        0.28708737711025       -1.23540297305380
H           -1.10144905667019       -1.51710936165054       -0.19002996888099
H           -1.11802817093074       -0.65369764465033        1.33241137750713
H            2.49179859519304        0.35071565438178       -1.20924006268720
H            2.40515303821911        1.35154232763022        0.26091876661360
H            3.46340534832237       -0.49829881849500        1.58618858746866
H            3.54704324796326       -1.50396412425220        0.11897828973315
H            4.50152721146703       -0.01416870716297        0.23296364772604
20
 energy: -27.122116175891 gnorm: 0.013252937892 xtb: 6.7.1 (edcfbbe)
C           -3.68433380274231       -0.67590507506662        0.30108708980999
C           -2.48561246820915        0.14911484044199       -0.14696528557668
C           -1.17442032965309       -0.51924963329504        0.25041097329614
C            0.03740895726165        0.25535257429110       -0.18444664891443
O            0.02838207232308        1.27296181664508       -0.84536907874539
O            1.16485242056007       -0.31951869578897        0.24602988327966
C            2.41736762004140        0.32009486923957       -0.11394007767079
C            3.54856840643046       -0.47650127248424        0.49548234404325
H           -3.68427047414759       -0.79948469826504        1.38339495423294
H           -4.61297384065546       -0.18645436722862        0.01383797814423
H           -3.66405216921875       -1.66448379950654       -0.15608537358639
H           -2.53136892184356        1.14594506259531        0.29844603546777
H           -2.50808914868098        0.28209167624419       -1.23126718409957
H           -1.10052556048682       -1.51787803829681       -0.19147946164543
H           -1.11561669257267       -0.65210878504717        1.33447663911571
H            2.47747139483469        0.34928504844603       -1.20537767767853
H            2.39027541896024        1.34706174270584        0.26044687274998
H            3.45513949709751       -0.50024271222022        1.57885338931563
H            3.53787320616849       -1.49778809179354        0.12162532008551
H            4.49878495098416       -0.01487319097173        0.23352093806464
20
 energy: -27.122306797978 gnorm: 0.004216847063 xtb: 6.7.1 (edcfbbe)
C           -3.68109645847806       -0.67500020398306        0.30053037578342
C           -2.47891980791629        0.14667787096238       -0.14504087665378
C           -1.16924781141067       -0.52631408842218        0.25491191671368
C            0.03941363840639        0.25405397883671       -0.18432941836795
O            0.02563312621456        1.27093844126750       -0.84383196319838
O            1.16340739046499       -0.31450417896495        0.24184459414455
C            2.40830205330665        0.32015144636037       -0.11404335116053
C            3.54275455794749       -0.47752818117527        0.49600390547430
H           -3.68019766552464       -0.79588637132429        1.38030381070187
H           -4.60355031179496       -0.18089432537396        0.01046673884342
H           -3.65976667878876       -1.66015764396430       -0.15722025876106
H           -2.52071745932092        1.14193285563787        0.30076884548082
H           -2.49617151635636        0.27863533917994       -1.22821848141212
H           -1.09774648044571       -1.52103397361805       -0.19051916142867
H           -1.11120737134418       -0.65332272139554        1.33754573849674
H            2.47232537614011        0.35245904065072       -1.20589300074089
H            2.38415655824741        1.34866770291302        0.25859443056415
H            3.44357232393862       -0.50126782046727        1.57659117078605
H            3.52617720346677       -1.49600306715212        0.12119805596458
H            4.48773986969892       -0.01418482932295        0.23301855845804
20
 energy: -27.122325689390 gnorm: 0.001628794450 xtb: 6.7.1 (edcfbbe)
C           -3.68110737618191       -0.67446084977819        0.30019983891371
C           -2.47681058902010        0.14558587731504       -0.14420195368437
C           -1.16770525968091       -0.52892289793078        0.25657702445399
C            0.04016509384132        0.25330450081531       -0.18399315371993
O            0.02258387626221        1.27071647925159       -0.84418926636488
O            1.16430915417559       -0.31323992788337        0.24036402054379
C            2.40617052413670        0.32136489391365       -0.11492033544967
C            3.54028125359334       -0.47779241364722        0.49603752316775
H           -3.68113937989540       -0.79514451244209        1.38015895702171
H           -4.60231047774442       -0.17846865174400        0.00887271544029
H           -3.66037403973554       -1.65970152952788       -0.15776969699531
H           -2.51674606793595        1.14081640709831        0.30184413756437
H           -2.49191473337214        0.27758674708691       -1.22741122362857
H           -1.09619542040682       -1.52318515578624       -0.18908309311155
H           -1.10907799772993       -0.65445618110196        1.33904439008432
H            2.47369891232343        0.35534332559717       -1.20703933235501
H            2.38494586040821        1.35059424056165        0.25745437535431
H            3.43879193431573       -0.50159829352135        1.57658897007913
H            3.52180878048227       -1.49606299217697        0.12025512693943
H            4.48548648861567       -0.01485979545502        0.23389260543475
20
 energy: -27.122329477701 gnorm: 0.000904459506 xtb: 6.7.1 (edcfbbe)
C           -3.68181180625936       -0.67377316339251        0.29982090721923
C           -2.47547905760384        0.14436112744481       -0.14314175604894
C           -1.16672457656092       -0.53080956269629        0.25782186626645
C            0.04067992773116        0.25221044294660       -0.18454977709534
O            0.01842565373710        1.27042990974061       -0.84488020096389
O            1.16604741454185       -0.31200479022110        0.23826550610676
C            2.40578969613456        0.32325662838327       -0.11610795243911
C            3.53861423970260       -0.47786646502869        0.49598819546474
H           -3.68380159975216       -0.79481806781654        1.38025286080409
H           -4.60227722874281       -0.17620929732120        0.00730368868093
H           -3.66251737186971       -1.65961144773847       -0.15814884902074
H           -2.51404877425910        1.13977410030118        0.30308419249355
H           -2.48919310364579        0.27674208673387       -1.22649124702320
H           -1.09497838272667       -1.52548178657676       -0.18703647688710
H           -1.10691996323216       -0.65561240485635        1.34040755848518
H            2.47666854610736        0.35894705437381       -1.20840829206211
H            2.38688603699088        1.35290306769061        0.25652135842737
H            3.43498239846963       -0.50233776261462        1.57675010787846
H            3.51897413347841       -1.49617076749631        0.11914137734963
H            4.48554435421034       -0.01650963121133        0.23608856205227
20
 energy: -27.122330212874 gnorm: 0.000140955629 xtb: 6.7.1 (edcfbbe)
C           -3.68171163457836       -0.67388249420399        0.29983141553599
C           -2.47579543263614        0.14441853579565       -0.14324718450193
C           -1.16699639094069       -0.53034782128247        0.25763293568820
C            0.04041688657856        0.25260524195902       -0.18440076786061
O            0.01869261259711        1.27028351363798       -0.84503241980917
O            1.16587028670554       -0.31207291763382        0.23821649269045
C            2.40638914931546        0.32312206789603       -0.11611602572292
C            3.53905009817744       -0.47782816374947        0.49591093718798
H           -3.68384208910815       -0.79490355742240        1.38017914175586
H           -4.60220096616975       -0.17651317049957        0.00737202882813
H           -3.66249121450313       -1.65967826679458       -0.15802147252041
H           -2.51483603862913        1.13980819064892        0.30296015201768
H           -2.48992840312903        0.27688330957261       -1.22657109833871
H           -1.09520425414824       -1.52531641642941       -0.18682106443682
H           -1.10732163965282       -0.65522519076271        1.34030634852316
H            2.47660776077652        0.35864718529276       -1.20831197822084
H            2.38675411299150        1.35249618773775        0.25681421716098
H            3.43552415524859       -0.50251093892555        1.57658201520992
H            3.51978770153933       -1.49604207456731        0.11907914515282
H            4.48609583601677       -0.01652394962486        0.23631881134848
20
 energy: -27.122330254803 gnorm: 0.000119493916 xtb: 6.7.1 (edcfbbe)
C           -3.68169506982011       -0.67388001160139        0.29982463516562
C           -2.47575400687646        0.14439095727720       -0.14311794346693
C           -1.16696074183331       -0.53034536055564        0.25773503247044
C            0.04040105920269        0.25235330203128       -0.18490950585778
O            0.01858236480462        1.27027206406789       -0.84508438443235
O            1.16584265530167       -0.31216873541242        0.23784401620361
C            2.40648446496804        0.32319704907187       -0.11613417189670
C            3.53904018113847       -0.47782778174995        0.49590270185080
H           -3.68395315738022       -0.79484866652972        1.38014492312796
H           -4.60209363000439       -0.17646730909947        0.00721614279693
H           -3.66244959410619       -1.65965608958249       -0.15799778339137
H           -2.51482236492809        1.13978207880028        0.30307517756959
H           -2.48986109849029        0.27687870505347       -1.22643606422253
H           -1.09532050917890       -1.52541903063475       -0.18648745225180
H           -1.10714055464032       -0.65500034717508        1.34043911580990
H            2.47675782174375        0.35884496454996       -1.20829553364813
H            2.38659743344713        1.35248065740279        0.25698189174493
H            3.43518448206624       -0.50284646335298        1.57650746954075
H            3.51990539084567       -1.49590699981512        0.11876623378411
H            4.48611541019134       -0.01641371210116        0.23670712879119
