      -----------------------------------------------------------      
     |                   =====================                   |     
     |                           x T B                           |     
     |                   =====================                   |     
     |                         S. Grimme                         |     
     |          Mulliken Center for Theoretical Chemistry        |     
     |                    University of Bonn                     |     
      -----------------------------------------------------------      

   * xtb version 6.7.1 (edcfbbe) compiled by 'albert@albert-system' on 2024-07-22

   xtb is free software: you can redistribute it and/or modify it under
   the terms of the GNU Lesser General Public License as published by
   the Free Software Foundation, either version 3 of the License, or
   (at your option) any later version.
   
   xtb is distributed in the hope that it will be useful,
   but WITHOUT ANY WARRANTY; without even the implied warranty of
   MERCHANTABILITY or FITNESS FOR A PARTICULAR PURPOSE.  See the
   GNU Lesser General Public License for more details.
   
   Cite this work as:
   * C. Bannwarth, E. Caldeweyher, S. Ehlert, A. Hansen, P. Pracht,
     J. Seibert, S. Spicher, S. Grimme, WIREs Comput. Mol. Sci., 2020, 11,
     e01493. DOI: 10.1002/wcms.1493
   
   for GFN2-xTB:
   * C. Bannwarth, S. Ehlert and S. Grimme., J. Chem. Theory Comput., 2019,
     15, 1652-1671. DOI: 10.1021/acs.jctc.8b01176
   for GFN1-xTB:
   * S. Grimme, C. Bannwarth, P. Shushkov, J. Chem. Theory Comput., 2017,
     13, 1989-2009. DOI: 10.1021/acs.jctc.7b00118
   for GFN0-xTB:
   * P. Pracht, E. Caldeweyher, S. Ehlert, S. Grimme, ChemRxiv, 2019, preprint.
     DOI: 10.26434/chemrxiv.8326202.v1
   for GFN-FF:
   * S. Spicher and S. Grimme, Angew. Chem. Int. Ed., 2020, 59, 15665-15673.
     DOI: 10.1002/anie.202004239
   
   for ALPB and GBSA implicit solvation:
   * S. Ehlert, M. Stahn, S. Spicher, S. Grimme, J. Chem. Theory Comput.,
     2021, 17, 4250-4261. DOI: 10.1021/acs.jctc.1c00471
   
   for ddCOSMO and CPCM-X implicit solvation:
   * M. Stahn, S. Ehlert, S. Grimme, J. Phys. Chem. A,
     2023, XX, XXXX-XXXX. DOI: 10.1021/acs.jpca.3c04382
   
   for DFT-D4:
   * E. Caldeweyher, C. Bannwarth and S. Grimme, J. Chem. Phys., 2017,
     147, 034112. DOI: 10.1063/1.4993215
   * E. Caldeweyher, S. Ehlert, A. Hansen, H. Neugebauer, S. Spicher,
     C. Bannwarth and S. Grimme, J. Chem. Phys., 2019, 150, 154122.
     DOI: 10.1063/1.5090222
   * E. Caldeweyher, J.-M. Mewes, S. Ehlert and S. Grimme, Phys. Chem. Chem. Phys.
     2020, 22, 8499-8512. DOI: 10.1039/D0CP00502A
   
   for sTDA-xTB:
   * S. Grimme and C. Bannwarth, J. Chem. Phys., 2016, 145, 054103.
     DOI: 10.1063/1.4959605
   
   in the mass-spec context:
   * V. Asgeirsson, C. Bauer and S. Grimme, Chem. Sci., 2017, 8, 4879.
     DOI: 10.1039/c7sc00601b
   * J. Koopman and S. Grimme, ACS Omega 2019, 4, 12, 15120-15133.
     DOI: 10.1021/acsomega.9b02011
   
   for metadynamics refer to:
   * S. Grimme, J. Chem. Theory Comput., 2019, 155, 2847-2862
     DOI: 10.1021/acs.jctc.9b00143
   
   for SPH calculations refer to:
   * S. Spicher and S. Grimme, J. Chem. Theory Comput., 2021, 17, 1701-1714
     DOI: 10.1021/acs.jctc.0c01306
   
   for ONIOM refer to:
   * C. Plett, A. Katbashev, S. Ehlert, S. Grimme, M. Bursch,
     Phys. Chem. Chem. Phys., 2023, 25, 17860-17868. DOI: 10.1039/D3CP02178E
   
   for DIPRO refer to:
   * J. Kohn, N. Gildemeister, S. Grimme, D. Fazzi, A. Hansen,
     J. Chem. Phys., 2023, just accepted.
   
   for PTB refer to:
   * S. Grimme, M. Mueller, A. Hansen, J. Chem. Phys., 2023, 158, 124111.
     DOI: 10.1063/5.0137838
   
   with help from (in alphabetical order)
   P. Atkinson, C. Bannwarth, F. Bohle, G. Brandenburg, E. Caldeweyher
   M. Checinski, S. Dohm, S. Ehlert, S. Ehrlich, I. Gerasimov, C. Hölzer
   A. Katbashev, J. Kohn, J. Koopman, C. Lavigne, S. Lehtola, F. März, M. Müller,
   F. Musil, H. Neugebauer, J. Pisarek, C. Plett, P. Pracht, F. Pultar,
   J. Seibert, P. Shushkov, S. Spicher, M. Stahn, M. Steiner, T. Strunk,
   J. Stückrath, T. Rose, and J. Unsleber
   
 * started run on 2025/04/11 at 15:53:54.534     
   ID    Z sym.   atoms
    1    6 C      1-4, 7, 8
    2    8 O      5, 6
    3    1 H      9-20

           -------------------------------------------------
          |                Calculation Setup                |
           -------------------------------------------------

          program call               : /srv/scratch/z5358697/.xtb/bin/xtb gas.coord --gfn2 --sp --chrg 0 --norestart --parallel 1
          hostname                   : k061
          coordinate file            : gas.coord
          omp threads                :                     1


           -------------------------------------------------
          |                 G F N 2 - x T B                 |
           -------------------------------------------------

        Reference                      10.1021/acs.jctc.8b01176
      * Hamiltonian:
        H0-scaling (s, p, d)           1.850000    2.230000    2.230000
        zeta-weighting                 0.500000
      * Dispersion:
        s8                             2.700000
        a1                             0.520000
        a2                             5.000000
        s9                             5.000000
      * Repulsion:
        kExp                           1.500000    1.000000
        rExp                           1.000000
      * Coulomb:
        alpha                          2.000000
        third order                    shell-resolved
        anisotropic                    true
        a3                             3.000000
        a5                             4.000000
        cn-shift                       1.200000
        cn-exp                         4.000000
        max-rad                        5.000000


          ...................................................
          :                      SETUP                      :
          :.................................................:
          :  # basis functions                  44          :
          :  # atomic orbitals                  44          :
          :  # shells                           28          :
          :  # electrons                        48          :
          :  max. iterations                   250          :
          :  Hamiltonian                  GFN2-xTB          :
          :  restarted?                      false          :
          :  GBSA solvation                  false          :
          :  PC potential                    false          :
          :  electronic temp.          300.0000000     K    :
          :  accuracy                    1.0000000          :
          :  -> integral cutoff          0.2500000E+02      :
          :  -> integral neglect         0.1000000E-07      :
          :  -> SCF convergence          0.1000000E-05 Eh   :
          :  -> wf. convergence          0.1000000E-03 e    :
          :  Broyden damping             0.4000000          :
          :  net charge                          0          :
          :  unpaired electrons                  0          :
          ...................................................

 iter      E             dE          RMSdq      gap      omega  full diag
   1    -27.3554129 -0.273554E+02  0.385E+00    5.98       0.0  T
   2    -27.4261408 -0.707279E-01  0.200E+00    4.73       1.0  T
   3    -27.4293919 -0.325112E-02  0.112E+00    5.22       1.0  T
   4    -27.4316327 -0.224081E-02  0.178E-01    4.93       1.0  T
   5    -27.4319210 -0.288275E-03  0.735E-02    5.00       1.0  T
   6    -27.4319260 -0.504927E-05  0.238E-02    5.00       1.0  T
   7    -27.4319274 -0.140376E-05  0.713E-03    4.99       3.1  T
   8    -27.4319276 -0.125529E-06  0.177E-03    5.00      12.6  T
   9    -27.4319276 -0.659621E-08  0.867E-04    5.00      25.8  T
  10    -27.4319276 -0.220830E-08  0.248E-04    5.00      90.1  T

   *** convergence criteria satisfied after 10 iterations ***

         #    Occupation            Energy/Eh            Energy/eV
      -------------------------------------------------------------
         1        2.0000           -0.7407656             -20.1573
       ...           ...                  ...                  ...
        18        2.0000           -0.4726302             -12.8609
        19        2.0000           -0.4675088             -12.7216
        20        2.0000           -0.4487064             -12.2099
        21        2.0000           -0.4463664             -12.1462
        22        2.0000           -0.4386073             -11.9351
        23        2.0000           -0.4369109             -11.8890
        24        2.0000           -0.4081837             -11.1072 (HOMO)
        25                         -0.2246129              -6.1120 (LUMO)
        26                         -0.0030732              -0.0836
        27                          0.0954805               2.5982
        28                          0.1022626               2.7827
        29                          0.1255297               3.4158
       ...                                ...                  ...
        44                          0.6280312              17.0896
      -------------------------------------------------------------
                  HL-Gap            0.1835709 Eh            4.9952 eV
             Fermi-level           -0.3163983 Eh           -8.6096 eV

 SCC (total)                   0 d,  0 h,  0 min,  0.022 sec
 SCC setup                      ...        0 min,  0.000 sec (  1.314%)
 Dispersion                     ...        0 min,  0.000 sec (  0.752%)
 classical contributions        ...        0 min,  0.000 sec (  0.173%)
 integral evaluation            ...        0 min,  0.003 sec ( 12.960%)
 iterations                     ...        0 min,  0.011 sec ( 51.687%)
 molecular gradient             ...        0 min,  0.007 sec ( 32.190%)
 printout                       ...        0 min,  0.000 sec (  0.827%)

         :::::::::::::::::::::::::::::::::::::::::::::::::::::
         ::                     SUMMARY                     ::
         :::::::::::::::::::::::::::::::::::::::::::::::::::::
         :: total energy             -27.115374682121 Eh    ::
         :: gradient norm              0.026976151088 Eh/a0 ::
         :: HOMO-LUMO gap              4.995217426417 eV    ::
         ::.................................................::
         :: SCC energy               -27.431891886940 Eh    ::
         :: -> isotropic ES            0.048397889838 Eh    ::
         :: -> anisotropic ES          0.002643777357 Eh    ::
         :: -> anisotropic XC          0.007636689997 Eh    ::
         :: -> dispersion             -0.011577398002 Eh    ::
         :: repulsion energy           0.316517204818 Eh    ::
         :: add. restraining           0.000000000000 Eh    ::
         :: total charge               0.000000000000 e     ::
         :::::::::::::::::::::::::::::::::::::::::::::::::::::

           -------------------------------------------------
          |                Property Printout                |
           -------------------------------------------------

    * Orbital Energies and Occupations

         #    Occupation            Energy/Eh            Energy/eV
      -------------------------------------------------------------
         1        2.0000           -0.7407656             -20.1573
       ...           ...                  ...                  ...
        12        2.0000           -0.5274767             -14.3534
        13        2.0000           -0.5089183             -13.8484
        14        2.0000           -0.5013530             -13.6425
        15        2.0000           -0.4913470             -13.3702
        16        2.0000           -0.4859813             -13.2242
        17        2.0000           -0.4788464             -13.0301
        18        2.0000           -0.4726302             -12.8609
        19        2.0000           -0.4675088             -12.7216
        20        2.0000           -0.4487064             -12.2099
        21        2.0000           -0.4463664             -12.1462
        22        2.0000           -0.4386073             -11.9351
        23        2.0000           -0.4369109             -11.8890
        24        2.0000           -0.4081837             -11.1072 (HOMO)
        25                         -0.2246129              -6.1120 (LUMO)
        26                         -0.0030732              -0.0836
        27                          0.0954805               2.5982
        28                          0.1022626               2.7827
        29                          0.1255297               3.4158
        30                          0.1302681               3.5448
        31                          0.1433680               3.9012
        32                          0.1485439               4.0421
        33                          0.1533790               4.1737
        34                          0.1601839               4.3588
        35                          0.1707327               4.6459
       ...                                ...                  ...
        44                          0.6280312              17.0896
      -------------------------------------------------------------
                  HL-Gap            0.1835709 Eh            4.9952 eV
             Fermi-level           -0.3163983 Eh           -8.6096 eV

     #   Z          covCN         q      C6AA      α(0)
     1   6 C        3.752    -0.103    22.535     6.770
     2   6 C        3.802    -0.051    21.483     6.599
     3   6 C        3.804    -0.090    22.211     6.709
     4   6 C        2.715     0.358    20.929     7.489
     5   8 O        0.856    -0.426    22.212     6.319
     6   8 O        1.704    -0.265    18.391     5.790
     7   6 C        3.696     0.083    19.362     6.295
     8   6 C        3.752    -0.116    22.782     6.807
     9   1 H        0.925     0.037     2.491     2.468
    10   1 H        0.925     0.037     2.483     2.464
    11   1 H        0.925     0.040     2.451     2.448
    12   1 H        0.925     0.040     2.451     2.448
    13   1 H        0.924     0.054     2.270     2.356
    14   1 H        0.925     0.060     2.199     2.319
    15   1 H        0.924     0.066     2.132     2.283
    16   1 H        0.924     0.052     2.299     2.371
    17   1 H        0.924     0.053     2.282     2.362
    18   1 H        0.925     0.059     2.206     2.322
    19   1 H        0.925     0.054     2.276     2.359
    20   1 H        0.925     0.059     2.213     2.326

 Mol. C6AA /au·bohr⁶  :       3019.350009
 Mol. C8AA /au·bohr⁸  :      64021.087747
 Mol. α(0) /au        :         81.305838


Wiberg/Mayer (AO) data.
largest (>0.10) Wiberg bond orders for each atom

 ---------------------------------------------------------------------------
     #   Z sym  total        # sym  WBO       # sym  WBO       # sym  WBO
 ---------------------------------------------------------------------------
     1   6 C    3.997 --     2 C    1.021    10 H    0.987     9 H    0.987
                            11 H    0.987
     2   6 C    3.994 --     1 C    1.021     3 C    0.992    12 H    0.978
                            13 H    0.976
     3   6 C    3.994 --     2 C    0.992    14 H    0.974     4 C    0.973
                            15 H    0.952
     4   6 C    3.914 --     5 O    1.736     6 O    1.150     3 C    0.973
     5   8 O    2.016 --     4 C    1.736     6 O    0.174
     6   8 O    2.313 --     4 C    1.150     7 C    0.931     5 O    0.174
     7   6 C    3.927 --     8 C    1.021    17 H    0.970    16 H    0.970
                             6 O    0.931
     8   6 C    3.991 --     7 C    1.021    20 H    0.985    18 H    0.985
                            19 H    0.983
     9   1 H    0.999 --     1 C    0.987
    10   1 H    0.999 --     1 C    0.987
    11   1 H    0.998 --     1 C    0.987
    12   1 H    0.998 --     2 C    0.978
    13   1 H    0.997 --     2 C    0.976
    14   1 H    0.996 --     3 C    0.974
    15   1 H    0.996 --     3 C    0.952
    16   1 H    0.997 --     7 C    0.970
    17   1 H    0.997 --     7 C    0.970
    18   1 H    0.996 --     8 C    0.985
    19   1 H    0.996 --     8 C    0.983
    20   1 H    0.997 --     8 C    0.985
 ---------------------------------------------------------------------------

Topologies differ in total number of bonds
Writing topology from bond orders to xtbtopo.mol

molecular dipole:
                 x           y           z       tot (Debye)
 q only:        0.277      -0.538       0.703
   full:        0.291      -0.524       0.767       2.475
molecular quadrupole (traceless):
                xx          xy          yy          xz          yz          zz
 q only:        7.919      -1.503      -3.328      -1.173       3.137      -4.591
  q+dip:        6.459      -0.623      -2.243      -1.863       4.134      -4.216
   full:        6.870      -0.594      -2.147      -1.693       4.555      -4.723


           -------------------------------------------------
          | TOTAL ENERGY              -27.115374682121 Eh   |
          | GRADIENT NORM               0.026976151088 Eh/α |
          | HOMO-LUMO GAP               4.995217426417 eV   |
           -------------------------------------------------

------------------------------------------------------------------------
 * finished run on 2025/04/11 at 15:53:54.594     
------------------------------------------------------------------------
 total:
 * wall-time:     0 d,  0 h,  0 min,  0.059 sec
 *  cpu-time:     0 d,  0 h,  0 min,  0.031 sec
 * ratio c/w:     0.522 speedup
 SCF:
 * wall-time:     0 d,  0 h,  0 min,  0.022 sec
 *  cpu-time:     0 d,  0 h,  0 min,  0.018 sec
 * ratio c/w:     0.807 speedup

