31
 energy: -829.594226526552 gnorm: 0.001188874071 xtb: 6.7.1 (edcfbbe)
C           -3.86699948616364        0.47329280040748        1.81916269149338
C           -3.35435552713266        0.42702382261117        0.38254200395711
H           -3.63261750181278        1.34641262796178       -0.14266993542863
C           -1.84323610766918        0.28965003562273        0.30769365122438
C           -1.20150090385047       -0.83259120001051        0.83952312594288
C            0.17947845181142       -0.94959127285530        0.77784795400888
C            0.98136867241086        0.04151316901696        0.19097276694551
C            0.30082224624569        1.13947320192348       -0.33502452795186
C           -1.07443889263408        1.28306215464177       -0.29407221933332
F            1.00734992647715        2.11707680391001       -0.96159831297366
C            2.45051523716118       -0.09741896666694        0.12886697087889
C            3.02016668851988       -1.33705033306659       -0.19323785871266
C            4.40149600006884       -1.49454515279660       -0.23002853686948
C            5.23758068188646       -0.41744046839865        0.05426944643201
C            4.68135176540229        0.81803729386661        0.37915941452279
C            3.30047603322899        0.97982386759714        0.41574750693688
C           -3.97530818921244       -0.71780502196588       -0.39078889726400
O           -4.57115743523747       -1.66064391724802        0.09595845317594
O           -3.77566227335708       -0.58805561636803       -1.72121307378017
H           -3.41547598294195        1.32090451124696        2.34133718053040
H           -4.95381220076088        0.59349984582004        1.83426809163409
H           -3.61329780905102       -0.44200696850487        2.36071606450807
H           -1.78473703353047       -1.61919101042958        1.30862550575543
H            0.66315440917939       -1.82053909228037        1.20858378786310
H           -1.53339070863667        2.16100308708239       -0.73681829468240
H            2.37482259350150       -2.17702699083830       -0.43096712355753
H            4.82542353379521       -2.46014168940776       -0.48787765793431
H            6.31553052329687       -0.54008663016297        0.02400675165119
H            5.32571957370085        1.66025720604896        0.61124045679781
H            2.87946420535589        1.94088849695238        0.69038317193455
H           -4.16227864605316       -1.36165085591206       -2.16700234303267
31
 energy: -829.594230015276 gnorm: 0.000316244681 xtb: 6.7.1 (edcfbbe)
C           -3.86727084537572        0.47427010546220        1.81919599828019
C           -3.35421168496664        0.42726864548189        0.38222670910980
H           -3.63225009285945        1.34685340315170       -0.14336463366906
C           -1.84312631525780        0.28975052243574        0.30769191802356
C           -1.20151373066713       -0.83277171517638        0.83928546568522
C            0.17952115425987       -0.94990659231160        0.77721286619820
C            0.98153508284486        0.04136241514785        0.19068782934462
C            0.30119068367579        1.13979921083202       -0.33482296307901
C           -1.07407722261183        1.28334760965628       -0.29404853563980
F            1.00779787246608        2.11747028720446       -0.96172886598058
C            2.45054977541175       -0.09777942266943        0.12864578979265
C            3.02037699908154       -1.33697112405756       -0.19460395546312
C            4.40176486703695       -1.49417788131433       -0.23132185874014
C            5.23773979127035       -0.41721846247284        0.05438849526599
C            4.68130437371166        0.81779095994975        0.38057928045927
C            3.30035529464379        0.97927182647295        0.41690018665040
C           -3.97610992855452       -0.71828513675742       -0.39007753110859
O           -4.57383066988009       -1.65877311822764        0.09782541153745
O           -3.77458058940904       -0.59130718494879       -1.72041684540881
H           -3.41678120266921        1.32300762209021        2.33992788812397
H           -4.95431399157072        0.59295242278535        1.83440963876112
H           -3.61232374524687       -0.43993689061905        2.36112582706397
H           -1.78464596027627       -1.61963891616090        1.30823391324543
H            0.66334321055128       -1.82106124775682        1.20745012792933
H           -1.53281052780573        2.16153616610430       -0.73682065734879
H            2.37509622608121       -2.17680034999697       -0.43324653331920
H            4.82559051600807       -2.45955850985026       -0.48987784221760
H            6.31575306142434       -0.53953988737245        0.02428049930926
H            5.32544791544323        1.65995931583942        0.61368572317966
H            2.87906974987064        1.93993467080370        0.69238078001512
H           -4.16213719417978       -1.36471429235037       -2.16619651175210
31
 energy: -829.594230015276 gnorm: 0.000316244681 xtb: 6.7.1 (edcfbbe)
C           -3.86727084537572        0.47427010546220        1.81919599828019
C           -3.35421168496664        0.42726864548189        0.38222670910980
H           -3.63225009285945        1.34685340315170       -0.14336463366906
C           -1.84312631525780        0.28975052243574        0.30769191802356
C           -1.20151373066713       -0.83277171517638        0.83928546568522
C            0.17952115425987       -0.94990659231160        0.77721286619820
C            0.98153508284486        0.04136241514785        0.19068782934462
C            0.30119068367579        1.13979921083202       -0.33482296307901
C           -1.07407722261183        1.28334760965628       -0.29404853563980
F            1.00779787246608        2.11747028720446       -0.96172886598058
C            2.45054977541175       -0.09777942266943        0.12864578979265
C            3.02037699908154       -1.33697112405756       -0.19460395546312
C            4.40176486703695       -1.49417788131433       -0.23132185874014
C            5.23773979127035       -0.41721846247284        0.05438849526599
C            4.68130437371166        0.81779095994975        0.38057928045927
C            3.30035529464379        0.97927182647295        0.41690018665040
C           -3.97610992855452       -0.71828513675742       -0.39007753110859
O           -4.57383066988009       -1.65877311822764        0.09782541153745
O           -3.77458058940904       -0.59130718494879       -1.72041684540881
H           -3.41678120266921        1.32300762209021        2.33992788812397
H           -4.95431399157072        0.59295242278535        1.83440963876112
H           -3.61232374524687       -0.43993689061905        2.36112582706397
H           -1.78464596027627       -1.61963891616090        1.30823391324543
H            0.66334321055128       -1.82106124775682        1.20745012792933
H           -1.53281052780573        2.16153616610430       -0.73682065734879
H            2.37509622608121       -2.17680034999697       -0.43324653331920
H            4.82559051600807       -2.45955850985026       -0.48987784221760
H            6.31575306142434       -0.53953988737245        0.02428049930926
H            5.32544791544323        1.65995931583942        0.61368572317966
H            2.87906974987064        1.93993467080370        0.69238078001512
H           -4.16213719417978       -1.36471429235037       -2.16619651175210
