 Entering Gaussian System
 *********************************************
 Gaussian 98:
 frequency output generated by the xtb code
 *********************************************
                         Standard orientation:
 --------------------------------------------------------------------
  Center     Atomic     Atomic              Coordinates (Angstroms)
  Number     Number      Type              X           Y           Z
 --------------------------------------------------------------------
    1          6             0       -4.324524   -0.937636   -0.061146
    2          6             0       -3.269229    0.033445    0.454673
    3          6             0       -1.867962   -0.373244   -0.005254
    4          6             0       -0.838411    0.604947    0.518028
    5         53             0        1.180327    0.081101   -0.103373
    6          1             0       -4.129168   -1.942909    0.304399
    7          1             0       -5.312686   -0.635041    0.274624
    8          1             0       -4.322242   -0.961481   -1.148245
    9          1             0       -3.299030    0.058101    1.546058
   10          1             0       -3.491418    1.039383    0.092262
   11          1             0       -1.645307   -1.378941    0.357992
   12          1             0       -1.838068   -0.397873   -1.096788
   13          1             0       -0.815403    0.621827    1.604460
   14          1             0       -1.009353    1.609407    0.139944
 --------------------------------------------------------------------
     1 basis functions        1 primitive gaussians
     1 alpha electrons        1 beta electrons
 
 Harmonic frequencies (cm**-1), IR intensities (km*mol⁻¹),
 Raman scattering activities (A**4/amu), Raman depolarization ratios,
 reduced masses (AMU), force constants (mDyne/A) and normal coordinates:
                      1                      2                      3
                        a                      a                      a 
 Frequencies --    89.0958               103.7917               129.5706
 Red. masses --    11.5824                 6.7286                23.2515
 Frc consts  --     0.0000                 0.0000                 0.0000
 IR Inten    --     1.4815                 1.3650                 2.2966
 Raman Activ --     0.0000                 0.0000                 0.0000
 Depolar     --     0.0000                 0.0000                 0.0000
 Atom AN      X      Y      Z        X      Y      Z        X      Y      Z
   1   6     0.03  -0.15   0.22     0.03  -0.17   0.26    -0.43   0.23   0.21
   2   6     0.02  -0.09   0.13    -0.04   0.23  -0.33    -0.03  -0.07  -0.04
   3   6    -0.06   0.33  -0.49    -0.03   0.16  -0.24    -0.15  -0.34  -0.21
   4   6    -0.04   0.20  -0.29     0.04  -0.23   0.34    -0.12  -0.35  -0.22
   5  53     0.02  -0.10   0.15    -0.00   0.01  -0.02     0.28   0.18   0.08
   6   1     0.12  -0.07  -0.06     0.02   0.02   0.27    -0.20   0.05   0.06
   7   1     0.03  -0.15   0.22    -0.00   0.00   0.00    -0.07   0.16   0.12
   8   1    -0.12   0.07   0.06     0.03  -0.26   0.08    -0.20   0.05   0.06
   9   1     0.12  -0.13   0.04     0.01   0.22  -0.10     0.05  -0.01  -0.01
  10   1    -0.09  -0.00   0.16    -0.05   0.01  -0.23     0.05  -0.01  -0.01
  11   1     0.04   0.05  -0.29    -0.08  -0.00  -0.16    -0.07  -0.10  -0.06
  12   1    -0.10   0.24  -0.15     0.04   0.16  -0.07    -0.07  -0.10  -0.06
  13   1    -0.06   0.03  -0.08     0.02  -0.26   0.10    -0.06  -0.10  -0.06
  14   1     0.04   0.07  -0.07     0.03   0.00   0.27    -0.06  -0.10  -0.06
                      4                      5                      6
                        a                      a                      a 
 Frequencies --   235.0369               250.1440               384.5854
 Red. masses --     2.2145                33.5758                 9.4105
 Frc consts  --     0.0000                 0.0000                 0.0000
 IR Inten    --     0.1004                 1.0621                 3.0722
 Raman Activ --     0.0000                 0.0000                 0.0000
 Depolar     --     0.0000                 0.0000                 0.0000
 Atom AN      X      Y      Z        X      Y      Z        X      Y      Z
   1   6     0.01  -0.03   0.04     0.22   0.21   0.11    -0.47  -0.05   0.02
   2   6    -0.03   0.15  -0.23     0.51  -0.05  -0.10     0.02  -0.35  -0.24
   3   6     0.02  -0.08   0.11     0.37  -0.22  -0.20     0.29   0.13   0.05
   4   6     0.01  -0.06   0.09     0.12  -0.07  -0.06     0.10   0.37   0.24
   5  53    -0.00   0.01  -0.01    -0.44   0.03   0.08     0.03  -0.05  -0.04
   6   1     0.34  -0.08  -0.36     0.01   0.05   0.03    -0.25  -0.04   0.01
   7   1     0.06  -0.31   0.46     0.10   0.14   0.08    -0.05   0.15   0.11
   8   1    -0.38   0.32   0.00     0.01   0.05   0.03    -0.25  -0.03   0.01
   9   1    -0.03   0.15  -0.07     0.20   0.00  -0.03    -0.00  -0.09  -0.07
  10   1     0.00   0.01  -0.17     0.20  -0.00  -0.03    -0.00  -0.10  -0.06
  11   1    -0.04  -0.00   0.12     0.12  -0.06  -0.05     0.17   0.06   0.02
  12   1     0.06  -0.11   0.04     0.12  -0.06  -0.06     0.17   0.06   0.02
  13   1     0.01  -0.02   0.02    -0.01  -0.02  -0.02     0.04   0.10   0.07
  14   1    -0.01  -0.02   0.03    -0.01  -0.03  -0.01     0.04   0.10   0.06
                      7                      8                      9
                        a                      a                      a 
 Frequencies --   616.7734               762.2183               804.2318
 Red. masses --    15.3351                 1.9602                 2.4714
 Frc consts  --     0.0000                 0.0000                 0.0000
 IR Inten    --     1.0111                 8.2720                 3.0793
 Raman Activ --     0.0000                 0.0000                 0.0000
 Depolar     --     0.0000                 0.0000                 0.0000
 Atom AN      X      Y      Z        X      Y      Z        X      Y      Z
   1   6     0.15   0.09   0.04    -0.00   0.00  -0.00    -0.01   0.03  -0.05
   2   6     0.13  -0.01  -0.03    -0.01   0.03  -0.05    -0.03   0.15  -0.22
   3   6    -0.04  -0.14  -0.09    -0.02   0.08  -0.12    -0.00   0.01  -0.02
   4   6    -0.77   0.27   0.28    -0.02   0.13  -0.19     0.03  -0.13   0.19
   5  53     0.17  -0.08  -0.08     0.00  -0.01   0.02    -0.00   0.01  -0.02
   6   1     0.05   0.03   0.01     0.04   0.03   0.06     0.19   0.12   0.21
   7   1     0.04   0.02   0.01     0.00  -0.01   0.01     0.01  -0.06   0.09
   8   1     0.05   0.03   0.01    -0.03  -0.07   0.00    -0.16  -0.26  -0.00
   9   1     0.07   0.00  -0.01     0.10  -0.21  -0.00     0.07  -0.45  -0.04
  10   1     0.07   0.00  -0.01    -0.07   0.07   0.21    -0.02   0.20   0.41
  11   1     0.04  -0.02  -0.01     0.01   0.18   0.41    -0.19  -0.02   0.06
  12   1     0.04  -0.01  -0.02     0.04  -0.45  -0.02     0.20  -0.03   0.00
  13   1    -0.22   0.04   0.08     0.04  -0.44  -0.04    -0.08   0.28   0.05
  14   1    -0.22   0.06   0.05     0.01   0.20   0.40     0.05  -0.14  -0.25
                     10                     11                     12
                        a                      a                      a 
 Frequencies --   922.9048               939.0431              1052.2974
 Red. masses --     2.8708                 5.9861                 2.0761
 Frc consts  --     0.0000                 0.0000                 0.0000
 IR Inten    --     1.2340                 4.9174                 0.0372
 Raman Activ --     0.0000                 0.0000                 0.0000
 Depolar     --     0.0000                 0.0000                 0.0000
 Atom AN      X      Y      Z        X      Y      Z        X      Y      Z
   1   6     0.02  -0.10   0.15     0.37  -0.00  -0.05     0.01  -0.06   0.09
   2   6     0.00  -0.01   0.02     0.15  -0.21  -0.16    -0.02   0.09  -0.14
   3   6    -0.03   0.15  -0.22    -0.29   0.25   0.21     0.02  -0.08   0.12
   4   6     0.03  -0.13   0.20    -0.08  -0.13  -0.08    -0.02   0.09  -0.13
   5  53    -0.00   0.01  -0.02     0.00   0.01   0.00     0.00  -0.02   0.03
   6   1    -0.24  -0.16  -0.22    -0.23  -0.05   0.02    -0.10  -0.07  -0.09
   7   1    -0.02   0.08  -0.12     0.32   0.43   0.25    -0.01   0.03  -0.05
   8   1     0.21   0.29   0.03    -0.23  -0.02  -0.01     0.09   0.12   0.02
   9   1     0.30   0.10   0.01    -0.10  -0.09  -0.05     0.22  -0.08  -0.03
  10   1    -0.30  -0.08  -0.03    -0.10  -0.09  -0.05    -0.21   0.03   0.10
  11   1    -0.21   0.10   0.24    -0.14   0.05   0.05    -0.26  -0.12  -0.10
  12   1     0.23  -0.23  -0.04    -0.14   0.05   0.05     0.25   0.17   0.03
  13   1    -0.18   0.18   0.05     0.02  -0.02  -0.02     0.53  -0.01  -0.05
  14   1     0.17  -0.09  -0.18     0.02  -0.03  -0.02    -0.53  -0.02   0.09
                     13                     14                     15
                        a                      a                      a 
 Frequencies --  1067.8499              1100.2506              1118.2046
 Red. masses --    10.0473                 8.5484                 7.4947
 Frc consts  --     0.0000                 0.0000                 0.0000
 IR Inten    --     8.7328                 0.9616                 3.6762
 Raman Activ --     0.0000                 0.0000                 0.0000
 Depolar     --     0.0000                 0.0000                 0.0000
 Atom AN      X      Y      Z        X      Y      Z        X      Y      Z
   1   6     0.19   0.27   0.15    -0.20  -0.32  -0.19    -0.18   0.13   0.11
   2   6    -0.18  -0.31  -0.18     0.47   0.24   0.10     0.28  -0.29  -0.23
   3   6    -0.42  -0.31  -0.15    -0.36  -0.13  -0.04    -0.24   0.33   0.26
   4   6     0.30   0.33   0.18     0.13   0.21   0.12    -0.16  -0.19  -0.11
   5  53    -0.00   0.00   0.00     0.00   0.00  -0.00     0.00   0.01   0.01
   6   1     0.14   0.09   0.03    -0.14  -0.10  -0.05     0.21   0.06  -0.02
   7   1     0.01  -0.02  -0.01    -0.02  -0.01  -0.00    -0.18  -0.24  -0.14
   8   1     0.14   0.08   0.04    -0.14  -0.10  -0.05     0.21   0.03   0.03
   9   1     0.01  -0.08  -0.05     0.24   0.09   0.03     0.26  -0.02  -0.06
  10   1     0.01  -0.07  -0.05     0.24   0.09   0.03     0.26  -0.03  -0.05
  11   1    -0.09  -0.08  -0.05    -0.22  -0.06  -0.01     0.03   0.11   0.07
  12   1    -0.09  -0.09  -0.04    -0.22  -0.05  -0.01     0.03   0.11   0.07
  13   1     0.13   0.11   0.05     0.05   0.07   0.03     0.12  -0.02  -0.03
  14   1     0.14   0.10   0.06     0.05   0.06   0.04     0.12  -0.02  -0.03
                     16                     17                     18
                        a                      a                      a 
 Frequencies --  1206.3232              1213.4144              1259.6837
 Red. masses --     5.2218                 3.0909                 2.9914
 Frc consts  --     0.0000                 0.0000                 0.0000
 IR Inten    --     0.2143                60.5309                 0.1439
 Raman Activ --     0.0000                 0.0000                 0.0000
 Depolar     --     0.0000                 0.0000                 0.0000
 Atom AN      X      Y      Z        X      Y      Z        X      Y      Z
   1   6    -0.03   0.16  -0.24    -0.06   0.07   0.05     0.02  -0.12   0.18
   2   6     0.04  -0.22   0.33     0.12  -0.10  -0.09    -0.02   0.10  -0.14
   3   6    -0.04   0.19  -0.28     0.01   0.13   0.09    -0.03   0.13  -0.20
   4   6     0.02  -0.08   0.12     0.33   0.05  -0.01     0.02  -0.12   0.18
   5  53     0.00  -0.00   0.01     0.02  -0.02  -0.01     0.00  -0.00   0.01
   6   1     0.17   0.15   0.17     0.07   0.02  -0.01    -0.11  -0.11  -0.11
   7   1     0.01  -0.07   0.10    -0.06  -0.08  -0.05    -0.01   0.05  -0.08
   8   1    -0.16  -0.23  -0.05     0.07   0.01   0.01     0.10   0.16   0.04
   9   1     0.02   0.24   0.07    -0.05  -0.04  -0.02    -0.29  -0.15  -0.04
  10   1    -0.04  -0.16  -0.19    -0.05  -0.04  -0.02     0.30   0.13   0.07
  11   1    -0.08   0.11   0.16    -0.20  -0.02   0.00     0.34   0.17   0.11
  12   1     0.10  -0.18  -0.06    -0.20  -0.03   0.02    -0.33  -0.20  -0.05
  13   1     0.30   0.14   0.02    -0.59  -0.05   0.02     0.28   0.17   0.03
  14   1    -0.31  -0.11  -0.07    -0.59  -0.07   0.05    -0.29  -0.13  -0.09
                     19                     20                     21
                        a                      a                      a 
 Frequencies --  1278.4553              1298.5077              1357.8046
 Red. masses --     1.7141                 3.6401                 4.7645
 Frc consts  --     0.0000                 0.0000                 0.0000
 IR Inten    --     2.0118                16.4697                10.8878
 Raman Activ --     0.0000                 0.0000                 0.0000
 Depolar     --     0.0000                 0.0000                 0.0000
 Atom AN      X      Y      Z        X      Y      Z        X      Y      Z
   1   6     0.01  -0.07   0.10    -0.08   0.11   0.09     0.07  -0.05  -0.04
   2   6     0.01  -0.07   0.11     0.29  -0.02  -0.05    -0.41  -0.14  -0.04
   3   6    -0.02   0.08  -0.12     0.30   0.01  -0.03     0.35   0.11   0.03
   4   6    -0.01   0.05  -0.08    -0.16   0.05   0.05    -0.06   0.03   0.03
   5  53    -0.00   0.00  -0.00    -0.01   0.00   0.00    -0.00   0.00   0.00
   6   1    -0.06  -0.06  -0.05     0.04   0.01  -0.05     0.01   0.02   0.07
   7   1    -0.00   0.01  -0.01    -0.11  -0.14  -0.08     0.07   0.10   0.05
   8   1     0.06   0.07   0.02     0.05  -0.04   0.02    -0.00   0.07  -0.01
   9   1    -0.49  -0.04   0.01    -0.35  -0.10  -0.03     0.39   0.13   0.00
  10   1     0.49   0.06  -0.05    -0.34  -0.10  -0.02     0.40   0.10   0.05
  11   1    -0.45  -0.05   0.05    -0.41  -0.09   0.02    -0.36  -0.07  -0.00
  12   1     0.46   0.03  -0.02    -0.41  -0.07  -0.02    -0.36  -0.07  -0.00
  13   1    -0.04  -0.05  -0.02     0.22  -0.04   0.00     0.04  -0.08   0.00
  14   1     0.04   0.04   0.04     0.21   0.01  -0.08     0.03  -0.02  -0.08
                     22                     23                     24
                        a                      a                      a 
 Frequencies --  1412.8860              1439.1760              1488.2156
 Red. masses --     3.1583                 2.0546                 1.9847
 Frc consts  --     0.0000                 0.0000                 0.0000
 IR Inten    --     0.5138                 1.2214                 0.4931
 Raman Activ --     0.0000                 0.0000                 0.0000
 Depolar     --     0.0000                 0.0000                 0.0000
 Atom AN      X      Y      Z        X      Y      Z        X      Y      Z
   1   6     0.32   0.26   0.13    -0.01  -0.01  -0.00     0.01  -0.04  -0.03
   2   6    -0.09  -0.01   0.00    -0.02  -0.00   0.00     0.00   0.10   0.07
   3   6     0.01   0.02   0.01     0.11  -0.01  -0.02    -0.02   0.22   0.15
   4   6     0.00  -0.01  -0.01    -0.05  -0.24  -0.15    -0.03  -0.01  -0.00
   5  53     0.00  -0.00  -0.00     0.01  -0.00  -0.00     0.00   0.00  -0.00
   6   1    -0.44  -0.15  -0.22     0.01   0.01   0.02    -0.03   0.04   0.14
   7   1    -0.18  -0.40  -0.25     0.00   0.01   0.00    -0.03  -0.05  -0.03
   8   1    -0.41  -0.31   0.02     0.01   0.02  -0.00    -0.05   0.14  -0.01
   9   1     0.10  -0.04   0.00     0.01  -0.01   0.00     0.05  -0.27   0.01
  10   1     0.09   0.00  -0.05     0.01  -0.00  -0.02     0.01  -0.09  -0.26
  11   1     0.00   0.01   0.00    -0.09  -0.01   0.04     0.02  -0.19  -0.57
  12   1     0.00   0.01   0.00    -0.09   0.03  -0.01     0.10  -0.59   0.03
  13   1    -0.01   0.02  -0.00    -0.05   0.66  -0.02     0.01   0.03   0.00
  14   1    -0.01   0.00   0.02     0.03   0.23   0.62     0.02   0.01   0.03
                     25                     26                     27
                        a                      a                      a 
 Frequencies --  1492.0594              1496.6536              1499.3305
 Red. masses --     1.8292                 1.5195                 1.6275
 Frc consts  --     0.0000                 0.0000                 0.0000
 IR Inten    --     1.1178                 2.7424                 0.5167
 Raman Activ --     0.0000                 0.0000                 0.0000
 Depolar     --     0.0000                 0.0000                 0.0000
 Atom AN      X      Y      Z        X      Y      Z        X      Y      Z
   1   6    -0.01  -0.03  -0.02     0.02  -0.12   0.17     0.14  -0.12  -0.10
   2   6    -0.06   0.19   0.14     0.01  -0.03   0.04     0.07  -0.06  -0.05
   3   6     0.03  -0.08  -0.06    -0.00   0.00  -0.00    -0.02  -0.04  -0.02
   4   6     0.01   0.01   0.01    -0.00   0.00  -0.00     0.01   0.00   0.00
   5  53    -0.00   0.00   0.00    -0.00   0.00  -0.00     0.00   0.00   0.00
   6   1     0.02   0.03   0.08     0.45   0.03  -0.13    -0.19   0.17   0.58
   7   1     0.00   0.01   0.00    -0.08   0.39  -0.59    -0.12  -0.26  -0.15
   8   1     0.00   0.08  -0.00    -0.47   0.07   0.01    -0.26   0.57  -0.02
   9   1     0.15  -0.59   0.02     0.01   0.02   0.01    -0.06   0.10  -0.01
  10   1     0.08  -0.18  -0.57    -0.02  -0.02  -0.01    -0.05   0.02   0.11
  11   1    -0.04   0.09   0.28    -0.02  -0.00   0.00     0.00   0.04   0.11
  12   1    -0.08   0.28  -0.01     0.02   0.00   0.00    -0.01   0.11  -0.00
  13   1    -0.01  -0.04  -0.00    -0.00  -0.00  -0.00    -0.00  -0.01   0.00
  14   1    -0.01  -0.02  -0.04     0.00   0.00   0.00    -0.00  -0.01  -0.01
                     28                     29                     30
                        a                      a                      a 
 Frequencies --  2962.9486              2974.4827              2981.2916
 Red. masses --     1.9359                 2.0172                 1.4575
 Frc consts  --     0.0000                 0.0000                 0.0000
 IR Inten    --    11.2903                78.2212                15.2144
 Raman Activ --     0.0000                 0.0000                 0.0000
 Depolar     --     0.0000                 0.0000                 0.0000
 Atom AN      X      Y      Z        X      Y      Z        X      Y      Z
   1   6     0.00  -0.01   0.01    -0.00   0.01  -0.01    -0.01   0.00   0.00
   2   6    -0.03   0.14  -0.20     0.02  -0.09   0.14     0.04  -0.14  -0.10
   3   6     0.02  -0.09   0.13     0.03  -0.14   0.21    -0.02   0.07   0.05
   4   6    -0.00   0.01  -0.01    -0.00   0.02  -0.03    -0.00   0.01   0.00
   5  53    -0.00   0.00  -0.00    -0.00   0.00  -0.00     0.00  -0.00  -0.00
   6   1    -0.01   0.05  -0.01     0.01  -0.04   0.01    -0.00  -0.02   0.01
   7   1     0.00  -0.00   0.00    -0.00   0.00  -0.00     0.04  -0.01  -0.01
   8   1    -0.00  -0.00  -0.05    -0.00   0.00   0.04    -0.00  -0.00  -0.02
   9   1    -0.02   0.03   0.56     0.01  -0.01  -0.36    -0.01  -0.02   0.62
  10   1     0.12  -0.53   0.18    -0.08   0.34  -0.12    -0.12   0.55  -0.23
  11   1    -0.08   0.34  -0.11    -0.11   0.52  -0.17     0.06  -0.29   0.12
  12   1     0.01  -0.02  -0.37     0.02  -0.02  -0.56     0.01   0.01  -0.31
  13   1     0.00   0.00   0.04     0.00   0.00   0.10     0.00   0.00  -0.02
  14   1     0.00  -0.03   0.01     0.01  -0.09   0.03     0.00  -0.01   0.01
                     31                     32                     33
                        a                      a                      a 
 Frequencies --  2986.2114              3015.9259              3016.1027
 Red. masses --     1.5010                 1.4855                 2.0620
 Frc consts  --     0.0000                 0.0000                 0.0000
 IR Inten    --    54.8453                24.1728                22.8177
 Raman Activ --     0.0000                 0.0000                 0.0000
 Depolar     --     0.0000                 0.0000                 0.0000
 Atom AN      X      Y      Z        X      Y      Z        X      Y      Z
   1   6     0.01  -0.01  -0.01     0.01  -0.00  -0.00     0.00  -0.00   0.01
   2   6    -0.02   0.08   0.05    -0.00   0.01   0.01    -0.00   0.00  -0.01
   3   6    -0.04   0.15   0.11    -0.00   0.02   0.01    -0.01   0.03  -0.04
   4   6     0.00  -0.02  -0.01    -0.02   0.17   0.11    -0.03   0.17  -0.25
   5  53     0.00  -0.00  -0.00    -0.00   0.00   0.00    -0.00   0.00  -0.00
   6   1    -0.01   0.04  -0.01    -0.00   0.01  -0.01    -0.00   0.02  -0.01
   7   1    -0.04   0.01   0.01    -0.02   0.00   0.01     0.00  -0.00   0.00
   8   1     0.00  -0.00   0.04     0.00  -0.00   0.01     0.00  -0.00  -0.02
   9   1     0.00   0.01  -0.30     0.00   0.00  -0.05    -0.00   0.00   0.02
  10   1     0.06  -0.27   0.12     0.01  -0.04   0.02     0.01  -0.02   0.01
  11   1     0.12  -0.56   0.23     0.01  -0.06   0.03     0.02  -0.09   0.03
  12   1     0.01   0.02  -0.61     0.00   0.00  -0.06    -0.00   0.00   0.10
  13   1     0.00  -0.00   0.08    -0.02   0.02  -0.67     0.02   0.02   0.68
  14   1    -0.01   0.08  -0.03     0.10  -0.64   0.28     0.10  -0.60   0.22
                     34                     35                     36
                        a                      a                      a 
 Frequencies --  3032.0647              3036.3674              3045.6776
 Red. masses --     1.9561                 1.8321                 1.3618
 Frc consts  --     0.0000                 0.0000                 0.0000
 IR Inten    --    72.3686                66.6059                38.9107
 Raman Activ --     0.0000                 0.0000                 0.0000
 Depolar     --     0.0000                 0.0000                 0.0000
 Atom AN      X      Y      Z        X      Y      Z        X      Y      Z
   1   6    -0.03   0.16  -0.24    -0.15   0.18   0.14    -0.18  -0.02   0.01
   2   6    -0.00   0.02  -0.03    -0.01   0.02   0.01    -0.01   0.00   0.00
   3   6    -0.00   0.00  -0.00    -0.00   0.01   0.00     0.00  -0.00  -0.00
   4   6    -0.00   0.00  -0.01    -0.00   0.00   0.00     0.00   0.00   0.00
   5  53     0.00   0.00  -0.00     0.00  -0.00  -0.00    -0.00  -0.00   0.00
   6   1     0.13  -0.63   0.21     0.09  -0.53   0.23    -0.09   0.33  -0.12
   7   1    -0.01   0.03  -0.04     0.44  -0.13  -0.14     0.75  -0.25  -0.27
   8   1    -0.02   0.03   0.67    -0.01   0.02  -0.59    -0.03   0.00   0.37
   9   1    -0.00  -0.00   0.06     0.00   0.00  -0.05    -0.00  -0.00  -0.02
  10   1     0.01  -0.06   0.02     0.01  -0.04   0.02     0.00  -0.02   0.01
  11   1     0.00  -0.01   0.00     0.01  -0.03   0.01    -0.00   0.00  -0.00
  12   1    -0.00   0.00   0.01     0.00   0.00  -0.03     0.00  -0.00   0.00
  13   1     0.00   0.00   0.01    -0.00   0.00  -0.01    -0.00   0.00  -0.00
  14   1     0.00  -0.01   0.00     0.00  -0.01   0.01     0.00  -0.00   0.00
