16
 energy: -213.725831247550 gnorm: 0.023356961462 xtb: 6.7.1 (edcfbbe)
C            1.77343865348586       -0.81960992146319        0.36845044226327
C            1.21548261833861        0.57753391505592        0.10987128874869
C            0.03678043441630        0.59307880106281       -0.87309563648689
C           -1.34442804319575        0.50968509432585       -0.20116591378914
N           -1.64346057682826       -0.71244158181570        0.52658990693335
H            2.60915927555619       -0.76754712544012        1.06287472967099
H            1.02196375395286       -1.48046868305603        0.79304426175142
H            2.12895574184340       -1.26148725075900       -0.56029396404828
H            0.90368316460045        1.02999041525642        1.05444443806725
H            2.02142670969575        1.19434018922924       -0.29350599803006
H            0.05757529522551        1.52220029617453       -1.44565955234061
H            0.14275243056326       -0.23176688440270       -1.58213136250108
H           -2.11272536343620        0.61981700247466       -0.97309009943120
H           -1.45429436114444        1.34201240069468        0.49980346702148
H           -1.00724233524634       -0.80997788325892        1.31020305498059
H           -1.50772093036811       -1.51306716587048       -0.08193431703631
16
 energy: -213.726657848933 gnorm: 0.009419220924 xtb: 6.7.1 (edcfbbe)
C            1.78128322359592       -0.82282292545013        0.37306680125282
C            1.21476689707882        0.57296693828828        0.10805590621999
C            0.02836122011767        0.60045878833101       -0.87038308343514
C           -1.35262993706479        0.50707932540853       -0.20718246414536
N           -1.65388247359033       -0.71877751574303        0.53602418727804
H            2.62305319709252       -0.77993041933660        1.07013495629791
H            1.02983900362738       -1.49356277839907        0.79573979806998
H            2.13870222615366       -1.26984449955381       -0.55907682206252
H            0.90737338800881        1.03203824774214        1.05600776121368
H            2.02264070623767        1.19732451668241       -0.28830418799253
H            0.04886552742128        1.53167887362313       -1.44856537191147
H            0.13091783008895       -0.22102782052989       -1.59109580896082
H           -2.11791900595722        0.63315439106305       -0.98212235379975
H           -1.46193027472344        1.35292969180658        0.48157698959178
H           -1.00464995477541       -0.81106413533515        1.30950643169104
H           -1.49344507481819       -1.51830923953153       -0.06897845039464
16
 energy: -213.726840779499 gnorm: 0.003457732683 xtb: 6.7.1 (edcfbbe)
C            1.78205386436044       -0.82655079898533        0.37219796149319
C            1.21228358321221        0.56938293152187        0.11002175362175
C            0.02420879890268        0.59800139176279       -0.86800337281445
C           -1.35644979174779        0.51052449770754       -0.20971361201399
N           -1.66014650163859       -0.71838250484926        0.54131875102044
H            2.62617581022548       -0.78435560528658        1.07042754279878
H            1.03446612258365       -1.50582691930835        0.79481586420464
H            2.14389760340402       -1.27611130318689       -0.56032689608707
H            0.90788175764935        1.03185393042597        1.06020280608766
H            2.01946649215518        1.19861032521887       -0.28462827153291
H            0.04591528211129        1.53301192820673       -1.44426977310169
H            0.12781384542217       -0.21701488149888       -1.60027226010640
H           -2.12043322043523        0.63555631501244       -0.98723207405404
H           -1.47468766074024        1.36211529683019        0.47311231053495
H           -1.00017616129630       -0.80259717370978        1.30798696230699
H           -1.47092311279062       -1.51592598131602       -0.06123439593729
16
 energy: -213.726878290558 gnorm: 0.002007427080 xtb: 6.7.1 (edcfbbe)
C            1.78091558249663       -0.82910855053771        0.37112155778461
C            1.21022361094209        0.56618303310828        0.11097997066248
C            0.02255448383401        0.59919726068842       -0.86720053349260
C           -1.35784667702874        0.51231065612651       -0.21212513169469
N           -1.66067023861073       -0.71678162066069        0.54380005753140
H            2.62466732614759       -0.78637016063428        1.06959459348181
H            1.03485266717292       -1.51053181244811        0.79276399560342
H            2.14440307836097       -1.27684898402461       -0.56154611338744
H            0.90625318218904        1.02708988371282        1.06200257189280
H            2.01727655290894        1.19586456687147       -0.28305412233935
H            0.04662779300864        1.53574966210559       -1.44105164866126
H            0.12644208073061       -0.21341363117786       -1.60186165599657
H           -2.12198242324433        0.63059589207174       -0.99052257671194
H           -1.48093959450699        1.36453839225395        0.46886643937514
H           -0.99660569457153       -0.79308195575614        1.30883345132459
H           -1.45482478628469       -1.51310118972791       -0.05619850378872
16
 energy: -213.726899337602 gnorm: 0.001472893456 xtb: 6.7.1 (edcfbbe)
C            1.77769291544008       -0.83195982615212        0.36877704049858
C            1.20768400206087        0.56375289180218        0.11270434989241
C            0.02175348520438        0.60085303794316       -0.86716599208356
C           -1.35865207184067        0.51373668040927       -0.21496072403624
N           -1.65697371733239       -0.71502166233732        0.54648763735741
H            2.62033031769549       -0.78927377974668        1.06771440544656
H            1.03246466676917       -1.51462584100070        0.78842475228723
H            2.14254134947920       -1.27632970464798       -0.56428400045287
H            0.90318673433318        1.02124159144798        1.06460884698369
H            2.01510495551164        1.19323730236686       -0.27974885311783
H            0.04865625821282        1.53891224643618       -1.43761779456019
H            0.12589690046349       -0.20972830997982       -1.60304762314001
H           -2.12264656578349        0.62279658051328       -0.99461138513566
H           -1.48690383764773        1.36655045362056        0.46361707371832
H           -0.99229597634503       -0.78100411509083        1.31264693626401
H           -1.43649216018731       -1.51084608541234       -0.04914367704962
16
 energy: -213.726914483572 gnorm: 0.001846718437 xtb: 6.7.1 (edcfbbe)
C            1.77323239553278       -0.83555707147448        0.36511897595635
C            1.20475360739118        0.56170905265775        0.11490738860056
C            0.02169148885037        0.60390579148611       -0.86820332258536
C           -1.35917711002297        0.51398678501004       -0.21853444578706
N           -1.64940900143248       -0.71289951847682        0.55058072001087
H            2.61428495449358       -0.79571141999642        1.06540885314021
H            1.02731703217284       -1.51930369775564        0.78037815206015
H            2.13920639116115       -1.27479608610331       -0.56927841934322
H            0.89803938466177        1.01382780175755        1.06809943298723
H            2.01334000923398        1.19180345229370       -0.27305608633501
H            0.05109504192729        1.54374917729437       -1.43468132214708
H            0.12697684544794       -0.20454218479629       -1.60536345343438
H           -2.12270588790889        0.61139317428163       -0.99997625185921
H           -1.49419878196050        1.36889717680302        0.45538820184307
H           -0.98837755771393       -0.76443703092552        1.32122198948575
H           -1.41472118003809       -1.50973389977502       -0.03761145544582
16
 energy: -213.726926760189 gnorm: 0.001125384493 xtb: 6.7.1 (edcfbbe)
C            1.77027699143490       -0.83825630844122        0.36130691971950
C            1.20323406330510        0.56105991878204        0.11678046941106
C            0.02247764716482        0.60633018189193       -0.86919254667665
C           -1.35962959354222        0.51236073344954       -0.22131903747632
N           -1.64299555936831       -0.71090240457985        0.55492073211583
H            2.61002470277442       -0.80345817985175        1.06366505073462
H            1.02220649929903       -1.52313764437541        0.77111483644884
H            2.13719538614298       -1.27300893650074       -0.57498035924407
H            0.89343723178281        1.00832879662218        1.07142772057461
H            2.01306448494172        1.19328907834050       -0.26529928272306
H            0.05220284428191        1.54774710171951       -1.43308170954011
H            0.12984021114819       -0.20022849548041       -1.60835084916523
H           -2.12205513855398        0.60164874412455       -1.00479809923117
H           -1.50019857689272        1.37104856605701        0.44673983842154
H           -0.98786933172879       -0.75018054054560        1.33097417006767
H           -1.39986402994487       -1.51034903520793       -0.02551077212694
16
 energy: -213.726931148044 gnorm: 0.000304359817 xtb: 6.7.1 (edcfbbe)
C            1.76990070168821       -0.83957693335259        0.35853537044627
C            1.20262482460635        0.56051227870315        0.11808529472032
C            0.02332531590424        0.60712543606815       -0.86950941554072
C           -1.35988026280329        0.51090066697639       -0.22294537003581
N           -1.64092202314621       -0.70862280460321        0.55817563003974
H            2.60855128038980       -0.80876299195705        1.06270730196718
H            1.02022310890011       -1.52586354643037        0.76370364856017
H            2.13814393104631       -1.27093954161674       -0.57915953613414
H            0.89082499966620        1.00441113660685        1.07400168560827
H            2.01262398922328        1.19527041250985       -0.25986824394168
H            0.05205911419417        1.54962335714540       -1.43209372508606
H            0.13266799226475       -0.19794930010195       -1.61042313080023
H           -2.12104889918246        0.59569863348545       -1.00829275487906
H           -1.50393305917704        1.37271568089929        0.44057975241470
H           -0.98972441575204       -0.74132750342970        1.33741939931765
H           -1.39408876498529       -1.51092331102724       -0.01652000704895
16
 energy: -213.726931148044 gnorm: 0.000304359817 xtb: 6.7.1 (edcfbbe)
C            1.76990070168821       -0.83957693335259        0.35853537044627
C            1.20262482460635        0.56051227870315        0.11808529472032
C            0.02332531590424        0.60712543606815       -0.86950941554072
C           -1.35988026280329        0.51090066697639       -0.22294537003581
N           -1.64092202314621       -0.70862280460321        0.55817563003974
H            2.60855128038980       -0.80876299195705        1.06270730196718
H            1.02022310890011       -1.52586354643037        0.76370364856017
H            2.13814393104631       -1.27093954161674       -0.57915953613414
H            0.89082499966620        1.00441113660685        1.07400168560827
H            2.01262398922328        1.19527041250985       -0.25986824394168
H            0.05205911419417        1.54962335714540       -1.43209372508606
H            0.13266799226475       -0.19794930010195       -1.61042313080023
H           -2.12104889918246        0.59569863348545       -1.00829275487906
H           -1.50393305917704        1.37271568089929        0.44057975241470
H           -0.98972441575204       -0.74132750342970        1.33741939931765
H           -1.39408876498529       -1.51092331102724       -0.01652000704895
