      -----------------------------------------------------------      
     |                   =====================                   |     
     |                           x T B                           |     
     |                   =====================                   |     
     |                         S. Grimme                         |     
     |          Mulliken Center for Theoretical Chemistry        |     
     |                    University of Bonn                     |     
      -----------------------------------------------------------      

   * xtb version 6.7.1 (edcfbbe) compiled by 'albert@albert-system' on 2024-07-22

   xtb is free software: you can redistribute it and/or modify it under
   the terms of the GNU Lesser General Public License as published by
   the Free Software Foundation, either version 3 of the License, or
   (at your option) any later version.
   
   xtb is distributed in the hope that it will be useful,
   but WITHOUT ANY WARRANTY; without even the implied warranty of
   MERCHANTABILITY or FITNESS FOR A PARTICULAR PURPOSE.  See the
   GNU Lesser General Public License for more details.
   
   Cite this work as:
   * C. Bannwarth, E. Caldeweyher, S. Ehlert, A. Hansen, P. Pracht,
     J. Seibert, S. Spicher, S. Grimme, WIREs Comput. Mol. Sci., 2020, 11,
     e01493. DOI: 10.1002/wcms.1493
   
   for GFN2-xTB:
   * C. Bannwarth, S. Ehlert and S. Grimme., J. Chem. Theory Comput., 2019,
     15, 1652-1671. DOI: 10.1021/acs.jctc.8b01176
   for GFN1-xTB:
   * S. Grimme, C. Bannwarth, P. Shushkov, J. Chem. Theory Comput., 2017,
     13, 1989-2009. DOI: 10.1021/acs.jctc.7b00118
   for GFN0-xTB:
   * P. Pracht, E. Caldeweyher, S. Ehlert, S. Grimme, ChemRxiv, 2019, preprint.
     DOI: 10.26434/chemrxiv.8326202.v1
   for GFN-FF:
   * S. Spicher and S. Grimme, Angew. Chem. Int. Ed., 2020, 59, 15665-15673.
     DOI: 10.1002/anie.202004239
   
   for ALPB and GBSA implicit solvation:
   * S. Ehlert, M. Stahn, S. Spicher, S. Grimme, J. Chem. Theory Comput.,
     2021, 17, 4250-4261. DOI: 10.1021/acs.jctc.1c00471
   
   for ddCOSMO and CPCM-X implicit solvation:
   * M. Stahn, S. Ehlert, S. Grimme, J. Phys. Chem. A,
     2023, XX, XXXX-XXXX. DOI: 10.1021/acs.jpca.3c04382
   
   for DFT-D4:
   * E. Caldeweyher, C. Bannwarth and S. Grimme, J. Chem. Phys., 2017,
     147, 034112. DOI: 10.1063/1.4993215
   * E. Caldeweyher, S. Ehlert, A. Hansen, H. Neugebauer, S. Spicher,
     C. Bannwarth and S. Grimme, J. Chem. Phys., 2019, 150, 154122.
     DOI: 10.1063/1.5090222
   * E. Caldeweyher, J.-M. Mewes, S. Ehlert and S. Grimme, Phys. Chem. Chem. Phys.
     2020, 22, 8499-8512. DOI: 10.1039/D0CP00502A
   
   for sTDA-xTB:
   * S. Grimme and C. Bannwarth, J. Chem. Phys., 2016, 145, 054103.
     DOI: 10.1063/1.4959605
   
   in the mass-spec context:
   * V. Asgeirsson, C. Bauer and S. Grimme, Chem. Sci., 2017, 8, 4879.
     DOI: 10.1039/c7sc00601b
   * J. Koopman and S. Grimme, ACS Omega 2019, 4, 12, 15120-15133.
     DOI: 10.1021/acsomega.9b02011
   
   for metadynamics refer to:
   * S. Grimme, J. Chem. Theory Comput., 2019, 155, 2847-2862
     DOI: 10.1021/acs.jctc.9b00143
   
   for SPH calculations refer to:
   * S. Spicher and S. Grimme, J. Chem. Theory Comput., 2021, 17, 1701-1714
     DOI: 10.1021/acs.jctc.0c01306
   
   for ONIOM refer to:
   * C. Plett, A. Katbashev, S. Ehlert, S. Grimme, M. Bursch,
     Phys. Chem. Chem. Phys., 2023, 25, 17860-17868. DOI: 10.1039/D3CP02178E
   
   for DIPRO refer to:
   * J. Kohn, N. Gildemeister, S. Grimme, D. Fazzi, A. Hansen,
     J. Chem. Phys., 2023, just accepted.
   
   for PTB refer to:
   * S. Grimme, M. Mueller, A. Hansen, J. Chem. Phys., 2023, 158, 124111.
     DOI: 10.1063/5.0137838
   
   with help from (in alphabetical order)
   P. Atkinson, C. Bannwarth, F. Bohle, G. Brandenburg, E. Caldeweyher
   M. Checinski, S. Dohm, S. Ehlert, S. Ehrlich, I. Gerasimov, C. Hölzer
   A. Katbashev, J. Kohn, J. Koopman, C. Lavigne, S. Lehtola, F. März, M. Müller,
   F. Musil, H. Neugebauer, J. Pisarek, C. Plett, P. Pracht, F. Pultar,
   J. Seibert, P. Shushkov, S. Spicher, M. Stahn, M. Steiner, T. Strunk,
   J. Stückrath, T. Rose, and J. Unsleber
   
 * started run on 2025/04/11 at 12:24:49.027     
   ID    Z sym.   atoms
    1    6 C      1-3, 5-7
    2    7 N      4
    3    1 H      8-22

           -------------------------------------------------
          |                Calculation Setup                |
           -------------------------------------------------

          program call               : /srv/scratch/z5358697/.xtb/bin/xtb solv.coord --gfn2 --sp --chrg 0 --norestart --parallel 1 --alpb water reference -I xtb_sp-xcontrol-inp
          hostname                   : k062
          coordinate file            : solv.coord
          omp threads                :                     1


           -------------------------------------------------
          |                 G F N 2 - x T B                 |
           -------------------------------------------------

        Reference                      10.1021/acs.jctc.8b01176
      * Hamiltonian:
        H0-scaling (s, p, d)           1.850000    2.230000    2.230000
        zeta-weighting                 0.500000
      * Dispersion:
        s8                             2.700000
        a1                             0.520000
        a2                             5.000000
        s9                             5.000000
      * Repulsion:
        kExp                           1.500000    1.000000
        rExp                           1.000000
      * Coulomb:
        alpha                          2.000000
        third order                    shell-resolved
        anisotropic                    true
        a3                             3.000000
        a5                             4.000000
        cn-shift                       1.200000
        cn-exp                         4.000000
        max-rad                        5.000000

      * Solvation model:               ALPB
        Solvent                        water
        Parameter file                 internal GFN2-xTB/ALPB
        Dielectric constant                8.0200E+01
        Reference state                gsolv=reference [X=1]
        Free energy shift                  2.8945E-03 Eh       1.8164E+00 kcal/mol
        Temperature                        2.9815E+02 K
        Density                            1.0000E+00 kg/L
        Solvent mass                       1.8000E+01 g/mol
        Interaction kernel             P16
        Born radius scaling (c1)           1.4744E+00
        Born radii integrator          GBOBC
        Born offset                        0.0000E+00 a0       0.0000E+00 AA
        H-bond correction              true
        Ion screening                  false
        Surface tension                    1.0000E-05 Eh       1.5569E+01 dyn/cm
        Grid points                               974 per atom

          ...................................................
          :                      SETUP                      :
          :.................................................:
          :  # basis functions                  43          :
          :  # atomic orbitals                  43          :
          :  # shells                           29          :
          :  # electrons                        44          :
          :  max. iterations                   250          :
          :  Hamiltonian                  GFN2-xTB          :
          :  restarted?                      false          :
          :  GBSA solvation                   true          :
          :  PC potential                    false          :
          :  electronic temp.          300.0000000     K    :
          :  accuracy                    1.0000000          :
          :  -> integral cutoff          0.2500000E+02      :
          :  -> integral neglect         0.1000000E-07      :
          :  -> SCF convergence          0.1000000E-05 Eh   :
          :  -> wf. convergence          0.1000000E-03 e    :
          :  Broyden damping             0.4000000          :
          :  net charge                          0          :
          :  unpaired electrons                  0          :
          ...................................................

 iter      E             dE          RMSdq      gap      omega  full diag
   1    -23.7279054 -0.237279E+02  0.244E+00   10.01       0.0  T
   2    -23.7511126 -0.232072E-01  0.137E+00    9.95       1.0  T
   3    -23.7523505 -0.123787E-02  0.517E-01    9.99       1.0  T
   4    -23.7524864 -0.135926E-03  0.102E-01    9.93       1.0  T
   5    -23.7525134 -0.270263E-04  0.490E-02    9.93       1.0  T
   6    -23.7525159 -0.250635E-05  0.170E-02    9.93       1.3  T
   7    -23.7525163 -0.351512E-06  0.269E-03    9.93       7.9  T
   8    -23.7525163 -0.887816E-08  0.131E-03    9.93      16.3  T
   9    -23.7525163 -0.303776E-08  0.228E-04    9.93      93.3  T
  10    -23.7525163 -0.351719E-10  0.392E-05    9.93     543.6  T

   *** convergence criteria satisfied after 10 iterations ***

         #    Occupation            Energy/Eh            Energy/eV
      -------------------------------------------------------------
         1        2.0000           -0.6299305             -17.1413
       ...           ...                  ...                  ...
        16        2.0000           -0.4583751             -12.4730
        17        2.0000           -0.4436284             -12.0717
        18        2.0000           -0.4395110             -11.9597
        19        2.0000           -0.4289678             -11.6728
        20        2.0000           -0.4265904             -11.6081
        21        2.0000           -0.4216449             -11.4735
        22        2.0000           -0.3425453              -9.3211 (HOMO)
        23                          0.0224165               0.6100 (LUMO)
        24                          0.0886185               2.4114
        25                          0.1025758               2.7912
        26                          0.1115269               3.0348
        27                          0.1121141               3.0508
       ...                                ...                  ...
        43                          0.3281153               8.9285
      -------------------------------------------------------------
                  HL-Gap            0.3649618 Eh            9.9311 eV
             Fermi-level           -0.1600644 Eh           -4.3556 eV

 SCC (total)                   0 d,  0 h,  0 min,  0.015 sec
 SCC setup                      ...        0 min,  0.002 sec ( 11.750%)
 Dispersion                     ...        0 min,  0.000 sec (  1.030%)
 classical contributions        ...        0 min,  0.000 sec (  0.214%)
 integral evaluation            ...        0 min,  0.002 sec ( 12.104%)
 iterations                     ...        0 min,  0.006 sec ( 39.842%)
 molecular gradient             ...        0 min,  0.005 sec ( 34.071%)
 printout                       ...        0 min,  0.000 sec (  0.882%)

         :::::::::::::::::::::::::::::::::::::::::::::::::::::
         ::                     SUMMARY                     ::
         :::::::::::::::::::::::::::::::::::::::::::::::::::::
         :: total energy             -23.419679215830 Eh    ::
         :: total w/o Gsasa/hb       -23.420497429456 Eh    ::
         :: gradient norm              0.000116618382 Eh/a0 ::
         :: HOMO-LUMO gap              9.931117407367 eV    ::
         ::.................................................::
         :: SCC energy               -23.752445526144 Eh    ::
         :: -> isotropic ES            0.014973401419 Eh    ::
         :: -> anisotropic ES          0.008495199117 Eh    ::
         :: -> anisotropic XC          0.017007942621 Eh    ::
         :: -> dispersion             -0.013619094121 Eh    ::
         :: -> Gsolv                   0.000086305493 Eh    ::
         ::    -> Gelec               -0.000731908134 Eh    ::
         ::    -> Gsasa               -0.001062164690 Eh    ::
         ::    -> Ghb                 -0.001014170844 Eh    ::
         ::    -> Gshift               0.002894549160 Eh    ::
         :: repulsion energy           0.332766310315 Eh    ::
         :: add. restraining           0.000000000000 Eh    ::
         :: total charge              -0.000000000000 e     ::
         :::::::::::::::::::::::::::::::::::::::::::::::::::::

           -------------------------------------------------
          |                Property Printout                |
           -------------------------------------------------

    * Orbital Energies and Occupations

         #    Occupation            Energy/Eh            Energy/eV
      -------------------------------------------------------------
         1        2.0000           -0.6299305             -17.1413
       ...           ...                  ...                  ...
        10        2.0000           -0.4902691             -13.3409
        11        2.0000           -0.4886402             -13.2966
        12        2.0000           -0.4772537             -12.9867
        13        2.0000           -0.4714953             -12.8300
        14        2.0000           -0.4658896             -12.6775
        15        2.0000           -0.4591316             -12.4936
        16        2.0000           -0.4583751             -12.4730
        17        2.0000           -0.4436284             -12.0717
        18        2.0000           -0.4395110             -11.9597
        19        2.0000           -0.4289678             -11.6728
        20        2.0000           -0.4265904             -11.6081
        21        2.0000           -0.4216449             -11.4735
        22        2.0000           -0.3425453              -9.3211 (HOMO)
        23                          0.0224165               0.6100 (LUMO)
        24                          0.0886185               2.4114
        25                          0.1025758               2.7912
        26                          0.1115269               3.0348
        27                          0.1121141               3.0508
        28                          0.1352218               3.6796
        29                          0.1443229               3.9272
        30                          0.1661887               4.5222
        31                          0.1762975               4.7973
        32                          0.1886019               5.1321
        33                          0.1973739               5.3708
       ...                                ...                  ...
        43                          0.3281153               8.9285
      -------------------------------------------------------------
                  HL-Gap            0.3649618 Eh            9.9311 eV
             Fermi-level           -0.1600644 Eh           -4.3556 eV

     #   Z          covCN         q      C6AA      α(0)
     1   6 C        3.758    -0.125    22.942     6.829
     2   6 C        3.783     0.052    19.722     6.326
     3   6 C        3.753    -0.117    22.805     6.810
     4   7 N        2.687    -0.286    27.370     7.770
     5   6 C        3.783     0.052    19.720     6.326
     6   6 C        3.753    -0.117    22.808     6.810
     7   6 C        3.758    -0.125    22.945     6.829
     8   1 H        0.925     0.042     2.417     2.431
     9   1 H        0.925     0.050     2.319     2.381
    10   1 H        0.925     0.042     2.421     2.433
    11   1 H        0.924     0.024     2.680     2.560
    12   1 H        0.925     0.038     2.481     2.463
    13   1 H        0.925     0.035     2.520     2.483
    14   1 H        0.925     0.030     2.592     2.518
    15   1 H        0.860     0.146     1.430     1.874
    16   1 H        0.924     0.023     2.686     2.563
    17   1 H        0.925     0.035     2.519     2.482
    18   1 H        0.925     0.031     2.577     2.510
    19   1 H        0.925     0.037     2.483     2.464
    20   1 H        0.925     0.050     2.324     2.384
    21   1 H        0.925     0.042     2.425     2.435
    22   1 H        0.925     0.043     2.415     2.430

 Mol. C6AA /au·bohr⁶  :       3185.202083
 Mol. C8AA /au·bohr⁸  :      65438.513573
 Mol. α(0) /au        :         84.111588


Wiberg/Mayer (AO) data.
largest (>0.10) Wiberg bond orders for each atom

 ---------------------------------------------------------------------------
     #   Z sym  total        # sym  WBO       # sym  WBO       # sym  WBO
 ---------------------------------------------------------------------------
     1   6 C    3.995 --     2 C    1.001     8 H    0.987     9 H    0.986
                            10 H    0.986
     2   6 C    3.985 --     4 N    1.008     1 C    1.001     3 C    0.994
                            11 H    0.965
     3   6 C    3.996 --     2 C    0.994    13 H    0.986    12 H    0.985
                            14 H    0.983
     4   7 N    3.083 --     2 C    1.008     5 C    1.008    15 H    0.950
     5   6 C    3.985 --     4 N    1.008     7 C    1.000     6 C    0.995
                            16 H    0.965
     6   6 C    3.996 --     5 C    0.995    17 H    0.986    19 H    0.985
                            18 H    0.982
     7   6 C    3.995 --     5 C    1.000    22 H    0.987    20 H    0.986
                            21 H    0.986
     8   1 H    0.998 --     1 C    0.987
     9   1 H    0.997 --     1 C    0.986
    10   1 H    0.998 --     1 C    0.986
    11   1 H    0.999 --     2 C    0.965
    12   1 H    0.998 --     3 C    0.985
    13   1 H    0.999 --     3 C    0.986
    14   1 H    0.999 --     3 C    0.983
    15   1 H    0.979 --     4 N    0.950
    16   1 H    0.999 --     5 C    0.965
    17   1 H    0.999 --     6 C    0.986
    18   1 H    0.999 --     6 C    0.982
    19   1 H    0.998 --     6 C    0.985
    20   1 H    0.998 --     7 C    0.986
    21   1 H    0.998 --     7 C    0.986
    22   1 H    0.998 --     7 C    0.987
 ---------------------------------------------------------------------------

Topologies differ in total number of bonds
Writing topology from bond orders to xtbtopo.mol

molecular dipole:
                 x           y           z       tot (Debye)
 q only:        0.005      -0.014      -0.090
   full:        0.014      -0.347      -0.153       0.966
molecular quadrupole (traceless):
                xx          xy          yy          xz          yz          zz
 q only:        1.230       0.084      -0.993      -0.018       0.010      -0.237
  q+dip:        0.562       0.095      -2.545      -0.004       0.325       1.983
   full:        0.996       0.110      -2.386      -0.010       0.229       1.390


           -------------------------------------------------
          | TOTAL ENERGY              -23.419679215830 Eh   |
          | GRADIENT NORM               0.000116618382 Eh/α |
          | HOMO-LUMO GAP               9.931117407367 eV   |
           -------------------------------------------------

------------------------------------------------------------------------
 * finished run on 2025/04/11 at 12:24:49.080     
------------------------------------------------------------------------
 total:
 * wall-time:     0 d,  0 h,  0 min,  0.052 sec
 *  cpu-time:     0 d,  0 h,  0 min,  0.026 sec
 * ratio c/w:     0.493 speedup
 SCF:
 * wall-time:     0 d,  0 h,  0 min,  0.015 sec
 *  cpu-time:     0 d,  0 h,  0 min,  0.015 sec
 * ratio c/w:     0.991 speedup

