
                                 *****************
                                 * O   R   C   A *
                                 *****************

                                            #,                                       
                                            ###                                      
                                            ####                                     
                                            #####                                    
                                            ######                                   
                                           ########,                                 
                                     ,,################,,,,,                         
                               ,,#################################,,                 
                          ,,##########################################,,             
                       ,#########################################, ''#####,          
                    ,#############################################,,   '####,        
                  ,##################################################,,,,####,       
                ,###########''''           ''''###############################       
              ,#####''   ,,,,##########,,,,          '''####'''          '####       
            ,##' ,,,,###########################,,,                        '##       
           ' ,,###''''                  '''############,,,                           
         ,,##''                                '''############,,,,        ,,,,,,###''
      ,#''                                            '''#######################'''  
     '                                                          ''''####''''         
             ,#######,   #######,   ,#######,      ##                                
            ,#'     '#,  ##    ##  ,#'     '#,    #''#        ,####,   ,####,        
            ##       ##  ##   ,#'  ##            #'  '#       #'       #'  '#        
            ##       ##  #######   ##           ,######,      #####,   #    #        
            '#,     ,#'  ##    ##  '#,     ,#' ,#      #,     #,   #   #,  ,#        
             '#######'   ##     ##  '#######'  #'      '#     '####' # '####'        



                #########################################################
                #                        -***-                          #
                #          Department of theory and spectroscopy        #
                #                                                       #
                #                      Frank Neese                      #
                #                                                       #
                #     Directorship, Architecture, Infrastructure        #
                #                    SHARK, DRIVERS                     #
                #        Core code/Algorithms in most modules           #
                #                                                       #
                #        Max Planck Institute fuer Kohlenforschung      #
                #                Kaiser Wilhelm Platz 1                 #
                #                 D-45470 Muelheim/Ruhr                 #
                #                      Germany                          #
                #                                                       #
                #                  All rights reserved                  #
                #                        -***-                          #
                #########################################################


                         Program Version 6.0.0  -   RELEASE  -


 With contributions from (in alphabetic order):
   Daniel Aravena         : Magnetic Suceptibility
   Michael Atanasov       : Ab Initio Ligand Field Theory (pilot matlab implementation)
   Alexander A. Auer      : GIAO ZORA, VPT2 properties, NMR spectrum
   Ute Becker             : All parallelization in ORCA, NUMFREQ, NUMCALC
   Giovanni Bistoni       : ED, misc. LED, open-shell LED, HFLD
   Martin Brehm           : Molecular dynamics
   Dmytro Bykov           : pre 5.0 version of the SCF Hessian
   Marcos Casanova-Páez   : Triplet and SCS-CIS(D). UHF-(DLPNO)-IP/EA/STEOM-CCSD. UHF-CVS-IP/STEOM-CCSD
   Vijay G. Chilkuri      : MRCI spin determinant printing, contributions to CSF-ICE
   Pauline Colinet        : FMM embedding
   Dipayan Datta          : RHF DLPNO-CCSD density
   Achintya Kumar Dutta   : EOM-CC, STEOM-CC
   Nicolas Foglia         : Exact transition moments, OPA infrastructure, MCD improvements
   Dmitry Ganyushin       : Spin-Orbit,Spin-Spin,Magnetic field MRCI
   Miquel Garcia          : C-PCM and meta-GGA Hessian, CCSD/C-PCM, Gaussian charge scheme
   Tiago L. C. Gouveia    : GS-ROHF, GS-ROCIS
   Yang Guo               : DLPNO-NEVPT2, F12-NEVPT2, CIM, IAO-localization
   Andreas Hansen         : Spin unrestricted coupled pair/coupled cluster methods
   Ingolf Harden          : AUTO-CI MPn and infrastructure 
   Benjamin Helmich-Paris : MC-RPA, TRAH-(SCF,CASSCF), AVAS, COSX integrals, SCF dyn. polar.
   Lee Huntington         : MR-EOM, pCC
   Robert Izsak           : Overlap fitted RIJCOSX, COSX-SCS-MP3, EOM
   Riya Kayal             : Wick's Theorem for AUTO-CI, AUTO-CI UHF-CCSDT
   Emily Kempfer          : AUTO-CI, RHF CISDT and CCSDT
   Christian Kollmar      : KDIIS, OOCD, Brueckner-CCSD(T), CCSD density, CASPT2, CASPT2-K, improved NEVPT2
   Axel Koslowski         : Symmetry handling
   Simone Kossmann        : Meta GGA functionals, TD-DFT gradient, OOMP2, (MP2 Hessian; deprecated post 5.0)
   Lucas Lang             : DCDCAS
   Marvin Lechner         : AUTO-CI (C++ implementation), FIC-MRCC
   Spencer Leger          : CASSCF response
   Dagmar Lenk            : GEPOL surface, SMD, ORCA-2-JSON
   Dimitrios Liakos       : Extrapolation schemes; Compound Job, initial MDCI parallelization
   Dimitrios Manganas     : Further ROCIS development; embedding schemes. LFT, Crystal Embedding
   Dimitrios Pantazis     : SARC Basis sets
   Anastasios Papadopoulos: AUTO-CI, single reference methods and gradients
   Taras Petrenko         : pre 6.0 DFT Hessian and TD-DFT gradient, (ASA, deprecated), ECA, 1-Electron XAS/XES, NRVS
   Peter Pinski           : DLPNO-MP2, DLPNO-MP2 Gradient
   Christoph Reimann      : Effective Core Potentials
   Marius Retegan         : Local ZFS, SOC
   Christoph Riplinger    : Optimizer, TS searches, QM/MM, DLPNO-CCSD(T), (RO)-DLPNO pert. Triples
   Michael Roemelt        : Original ROCIS implementation
   Masaaki Saitow         : Open-shell DLPNO-CCSD energy and density
   Barbara Sandhoefer     : DKH picture change effects
   Kantharuban Sivalingam : CASSCF convergence/infrastructure, NEVPT2 and variants, FIC-MRCI
   Bernardo de Souza      : ESD, SOC TD-DFT
   Georgi Stoychev        : AutoAux, RI-MP2 NMR, DLPNO-MP2 response, X2C
   Van Anh Tran           : RI-MP2 g-tensors
   Willem Van den Heuvel  : Paramagnetic NMR
   Zikuan Wang            : NOTCH, Electric field optimization 
   Frank Wennmohs         : Technical directorship and infrastructure
   Hang Xu                : AUTO-CI-Response properties 


 We gratefully acknowledge several colleagues who have allowed us to
 interface, adapt or use parts of their codes:
   Stefan Grimme, W. Hujo, H. Kruse, P. Pracht,  : VdW corrections, initial TS optimization,
                  C. Bannwarth, S. Ehlert,         DFT functionals, gCP, sTDA/sTD-DF
                  L. Wittmann, M. Mueller
   Ed Valeev, F. Pavosevic, A. Kumar             : LibInt (2-el integral package), F12 methods
   Garnet Chan, S. Sharma, J. Yang, R. Olivares  : DMRG
   Ulf Ekstrom                                   : XCFun DFT Library
   Mihaly Kallay                                 : mrcc  (arbitrary order and MRCC methods)
   Frank Weinhold                                : gennbo (NPA and NBO analysis)
   Simon Mueller                                 : openCOSMO-RS
   Christopher J. Cramer and Donald G. Truhlar   : smd solvation model
   Lars Goerigk                                  : TD-DFT with DH, B97 family of functionals
   V. Asgeirsson, H. Jonsson                     : NEB implementation
   FAccTs GmbH                                   : IRC, NEB, NEB-TS, DLPNO-Multilevel, CI-OPT
                                                   MM, QMMM, 2- and 3-layer-ONIOM, Crystal-QMMM,
                                                   LR-CPCM, SF, NACMEs, symmetry and pop. for TD-DFT,
                                                   nearIR, NL-DFT gradient (VV10), updates on ESD,
                                                   ML-optimized integration grids, MBIS, APM,
                                                   GOAT, DOCKER, SOLVATOR, interface openCOSMO-RS
   S Lehtola, MJT Oliveira, MAL Marques          : LibXC Library
   Liviu Ungur et al                             : ANISO software


 Your calculation uses the libint2 library for the computation of 2-el integrals
 For citations please refer to: http://libint.valeyev.net

 Your ORCA version has been built with support for libXC version: 6.2.2
 For citations please refer to: https://libxc.gitlab.io

 This ORCA versions uses:
   CBLAS   interface :  Fast vector & matrix operations
   LAPACKE interface :  Fast linear algebra routines
   SCALAPACK package :  Parallel linear algebra routines
   Shared memory     :  Shared parallel matrices
   BLAS/LAPACK       :  OpenBLAS 0.3.27  USE64BITINT DYNAMIC_ARCH NO_AFFINITY SkylakeX SINGLE_THREADED
        Core in use  :  SkylakeX
   Copyright (c) 2011-2014, The OpenBLAS Project


Your calculation utilizes the geometrical counterpoise correction gCP
Please cite in your paper:
H.Kruse, S. Grimme J.Chem.Phys., 136, (2012), 154101 
   

Your calculation utilizes the atom-pairwise dispersion correction
based on EEQ partial charges (D4)


Your calculation utilizes the SMD solvation module
Please cite in your paper:
A.V. Marenich, C.J. Cramer, D.G. Truhlar J. Phys. Chem. B, 113, (2009), 6378 

================================================================================

----- Orbital basis set information -----
Your calculation utilizes the basis: def2-mTZVPP
   Stefan Grimme, Andreas Hansen, Sebastian Ehlert, and Jan-Michael Mewes 
   J. Chem. Phys. 154, 064103 (2021). DOI: 10.1063/5.0040021

----- AuxJ basis set information -----
Your calculation utilizes the auxiliary basis: def2/J
   F. Weigend, Phys. Chem. Chem. Phys. 8, 1057 (2006).

================================================================================
                                        WARNINGS
                       Please study these warnings very carefully!
================================================================================

Using LibXC functional ID 497 : Re-regularized SCAN exchange by Furness et al
[ 1]  J. W. Furness, A. D. Kaplan, J. Ning, J. P. Perdew, and J. Sun.,  J. Phys. Chem. Lett. 11, 8208-8215 (2020)
[ 2]  J. W. Furness, A. D. Kaplan, J. Ning, J. P. Perdew, and J. Sun.,  J. Phys. Chem. Lett. 11, 9248-9248 (2020)
Using LibXC functional ID 498 : Re-regularized SCAN correlation by Furness et al
[ 1]  J. W. Furness, A. D. Kaplan, J. Ning, J. P. Perdew, and J. Sun.,  J. Phys. Chem. Lett. 11, 8208-8215 (2020)
[ 2]  J. W. Furness, A. D. Kaplan, J. Ning, J. P. Perdew, and J. Sun.,  J. Phys. Chem. Lett. 11, 9248-9248 (2020)
Using LibXC functional ID 497 : Re-regularized SCAN exchange by Furness et al
[ 1]  J. W. Furness, A. D. Kaplan, J. Ning, J. P. Perdew, and J. Sun.,  J. Phys. Chem. Lett. 11, 8208-8215 (2020)
[ 2]  J. W. Furness, A. D. Kaplan, J. Ning, J. P. Perdew, and J. Sun.,  J. Phys. Chem. Lett. 11, 9248-9248 (2020)
Using LibXC functional ID 498 : Re-regularized SCAN correlation by Furness et al
[ 1]  J. W. Furness, A. D. Kaplan, J. Ning, J. P. Perdew, and J. Sun.,  J. Phys. Chem. Lett. 11, 8208-8215 (2020)
[ 2]  J. W. Furness, A. D. Kaplan, J. Ning, J. P. Perdew, and J. Sun.,  J. Phys. Chem. Lett. 11, 9248-9248 (2020)

================================================================================
                                       INPUT FILE
================================================================================
NAME = sp_solv.inp
|  1> ! r2scan-3c def2/J RI DEFGRID2 scfconv6 printgap
|  2> %output
|  3>     printlevel normal
|  4> end
|  5> %cpcm
|  6>     smd true
|  7>     smdsolvent "water"
|  8> end
|  9> * xyz 0 1
| 10> C -0.0421918327 0.9038657197 0.2836350228
| 11> C -0.8640066021 -0.3757684519 0.257816835
| 12> Cl -2.4950487907 -0.0541342449 -0.4202141064
| 13> C 1.3379926766 0.6683905644 0.8740577923
| 14> Cl 2.3130096326 -0.4317635067 -0.1683743347
| 15> H 0.0498180911 1.2989838017 -0.7287098088
| 16> H -0.5486649936 1.6494808434 0.8984241826
| 17> H -0.4065048652 -1.1301090988 -0.3800499265
| 18> H -1.0186073859 -0.7736047678 1.2592702913
| 19> H 1.282847898 0.1904641237 1.8499389053
| 20> H 1.898780725 1.5980898305 0.9365469301
| 21> *
| 22> 
| 23>                          ****END OF INPUT****
================================================================================

                       ****************************
                       * Single Point Calculation *
                       ****************************

---------------------------------
CARTESIAN COORDINATES (ANGSTROEM)
---------------------------------
  C     -0.042192    0.903866    0.283635
  C     -0.864007   -0.375768    0.257817
  Cl    -2.495049   -0.054134   -0.420214
  C      1.337993    0.668391    0.874058
  Cl     2.313010   -0.431764   -0.168374
  H      0.049818    1.298984   -0.728710
  H     -0.548665    1.649481    0.898424
  H     -0.406505   -1.130109   -0.380050
  H     -1.018607   -0.773605    1.259270
  H      1.282848    0.190464    1.849939
  H      1.898781    1.598090    0.936547

----------------------------
CARTESIAN COORDINATES (A.U.)
----------------------------
  NO LB      ZA    FRAG     MASS         X           Y           Z
   0 C     6.0000    0    12.011   -0.079731    1.708059    0.535993
   1 C     6.0000    0    12.011   -1.632736   -0.710099    0.487203
   2 Cl   17.0000    0    35.453   -4.714959   -0.102299   -0.794090
   3 C     6.0000    0    12.011    2.528440    1.263075    1.651730
   4 Cl   17.0000    0    35.453    4.370955   -0.815915   -0.318181
   5 H     1.0000    0     1.008    0.094143    2.454724   -1.377062
   6 H     1.0000    0     1.008   -1.036827    3.117067    1.697776
   7 H     1.0000    0     1.008   -0.768183   -2.135597   -0.718190
   8 H     1.0000    0     1.008   -1.924889   -1.461901    2.379676
   9 H     1.0000    0     1.008    2.424231    0.359925    3.495878
  10 H     1.0000    0     1.008    3.588176    3.019952    1.769817

--------------------------------
INTERNAL COORDINATES (ANGSTROEM)
--------------------------------
 C      0   0   0     0.000000000000     0.00000000     0.00000000
 C      1   0   0     1.521022586010     0.00000000     0.00000000
 Cl     2   1   0     1.795403336747   110.27577660     0.00000000
 C      1   2   3     1.519525213749   111.52952945   179.08046196
 Cl     4   1   2     1.802127016624   111.17805379    65.21233386
 H      1   2   3     1.090608171099   109.54957413   300.96175286
 H      1   2   3     1.091064932261   109.49253732    59.63786235
 H      2   1   3     1.088674265452   111.45828940   118.11473856
 H      2   1   3     1.088615708933   111.62748545   241.83539629
 H      4   1   2     1.088025080610   111.74912283   306.81064798
 H      4   1   2     1.087533380158   110.99069891   182.97599069

---------------------------
INTERNAL COORDINATES (A.U.)
---------------------------
 C      0   0   0     0.000000000000     0.00000000     0.00000000
 C      1   0   0     2.874316131067     0.00000000     0.00000000
 Cl     2   1   0     3.392820606380   110.27577660     0.00000000
 C      1   2   3     2.871486507574   111.52952945   179.08046196
 Cl     4   1   2     3.405526519960   111.17805379    65.21233386
 H      1   2   3     2.060950762794   109.54957413   300.96175286
 H      1   2   3     2.061813916299   109.49253732    59.63786235
 H      2   1   3     2.057296210753   111.45828940   118.11473856
 H      2   1   3     2.057185554968   111.62748545   241.83539629
 H      4   1   2     2.056069429191   111.74912283   306.81064798
 H      4   1   2     2.055140249997   110.99069891   182.97599069

---------------------
BASIS SET INFORMATION
---------------------
There are 3 groups of distinct atoms

 Group   1 Type C   : 11s6p1d contracted to 5s3p1d pattern {62111/411/1}
 Group   2 Type Cl  : 14s9p2d contracted to 5s4p2d pattern {73211/6111/11}
 Group   3 Type H   : 4s1p contracted to 2s1p pattern {31/1}

Atom   0C    basis set group =>   1
Atom   1C    basis set group =>   1
Atom   2Cl   basis set group =>   2
Atom   3C    basis set group =>   1
Atom   4Cl   basis set group =>   2
Atom   5H    basis set group =>   3
Atom   6H    basis set group =>   3
Atom   7H    basis set group =>   3
Atom   8H    basis set group =>   3
Atom   9H    basis set group =>   3
Atom  10H    basis set group =>   3
---------------------------------
AUXILIARY/J BASIS SET INFORMATION
---------------------------------
There are 3 groups of distinct atoms

 Group   1 Type C   : 12s5p4d2f1g contracted to 6s4p3d1f1g pattern {711111/2111/211/2/1}
 Group   2 Type Cl  : 14s5p5d2f1g contracted to 8s4p3d1f1g pattern {71111111/2111/311/2/1}
 Group   3 Type H   : 5s2p1d contracted to 3s1p1d pattern {311/2/1}

Atom   0C    basis set group =>   1
Atom   1C    basis set group =>   1
Atom   2Cl   basis set group =>   2
Atom   3C    basis set group =>   1
Atom   4Cl   basis set group =>   2
Atom   5H    basis set group =>   3
Atom   6H    basis set group =>   3
Atom   7H    basis set group =>   3
Atom   8H    basis set group =>   3
Atom   9H    basis set group =>   3
Atom  10H    basis set group =>   3

Checking for AutoStart:
The File: sp_solv.gbw exists
Trying to determine its content:
     ... Fine, the file contains calculation information
     ... Fine, the calculation information was read
     ... Fine, the file contains a basis set
     ... Fine, the basis set was read
     ... Fine, the file contains a geometry
     ... Fine, the geometry was read
     ... Fine, the file contains a set of orbitals
     ... Fine, the orbitals can be read
     => possible old guess file was deleted
     => GBW file was renamed to GES file
     => GES file is set as startup file
     => Guess is set to MORead
     ... now leaving AutoStart

------------------------------------------------------------------------------
                             ORCA STARTUP CALCULATIONS
                           -- RI-GTO INTEGRALS CHOSEN --
------------------------------------------------------------------------------
------------------------------------------------------------------------------
                   ___                                                        
                  /   \      - P O W E R E D   B Y -                         
                 /     \                                                     
                 |  |  |   _    _      __       _____    __    __             
                 |  |  |  | |  | |    /  \     |  _  \  |  |  /  |          
                  \  \/   | |  | |   /    \    | | | |  |  | /  /          
                 / \  \   | |__| |  /  /\  \   | |_| |  |  |/  /          
                |  |  |   |  __  | /  /__\  \  |    /   |      \           
                |  |  |   | |  | | |   __   |  |    \   |  |\   \          
                \     /   | |  | | |  |  |  |  | |\  \  |  | \   \       
                 \___/    |_|  |_| |__|  |__|  |_| \__\ |__|  \__/        
                                                                              
                      - O R C A' S   B I G   F R I E N D -                    
                                      &                                       
                       - I N T E G R A L  F E E D E R -                       
                                                                              
 v1 FN, 2020, v2 2021, v3 2022-2024                                           
------------------------------------------------------------------------------


----------------------
SHARK INTEGRAL PACKAGE
----------------------

Number of atoms                             ...     11
Number of basis functions                   ...    141
Number of shells                            ...     67
Maximum angular momentum                    ...      2
Integral batch strategy                     ... SHARK/LIBINT Hybrid
RI-J (if used) integral strategy            ... SPLIT-RIJ (Revised 2003 algorithm where possible)
Printlevel                                  ...      1
Contraction scheme used                     ... SEGMENTED contraction
Prescreening option                         ... SCHWARTZ
   Thresh                                   ... 1.000e-10
   Tcut                                     ... 1.000e-11
   Tpresel                                  ... 1.000e-11 
Coulomb Range Separation                    ... NOT USED
Exchange Range Separation                   ... NOT USED
Multipole approximations                    ... NOT USED
Finite Nucleus Model                        ... NOT USED
CABS basis                                  ... NOT available
Auxiliary Coulomb fitting basis             ... AVAILABLE
   # of basis functions in Aux-J            ...    315
   # of shells in Aux-J                     ...    109
   Maximum angular momentum in Aux-J        ...      4
Auxiliary J/K fitting basis                 ... NOT available
Auxiliary Correlation fitting basis         ... NOT available
Auxiliary 'external' fitting basis          ... NOT available

Checking pre-screening integrals            ... done (  0.0 sec) Dimension = 67
Check shell pair data                       ... done (  0.0 sec)
Shell pair information
Shell pair cut-off parameter TPreSel        ...   1.0e-11
Total number of shell pairs                 ...      2278
Shell pairs after pre-screening             ...      2111
Total number of primitive shell pairs       ...      9209
Primitive shell pairs kept                  ...      6202
          la=0 lb=0:    636 shell pairs
          la=1 lb=0:    785 shell pairs
          la=1 lb=1:    263 shell pairs
          la=2 lb=0:    246 shell pairs
          la=2 lb=1:    154 shell pairs
          la=2 lb=2:     27 shell pairs

Calculating one electron integrals          ... done (  0.0 sec)
Calculating RI/J V-Matrix + Cholesky decomp.... done (  0.0 sec)
Calculating Nuclear repulsion               ... done (  0.0 sec) ENN=    267.104617779452 Eh

Diagonalization of the overlap matrix:
Smallest eigenvalue                        ... 3.981e-04
Time for diagonalization                   ...    0.002 sec
Threshold for overlap eigenvalues          ... 1.000e-07
Number of eigenvalues below threshold      ... 0
Time for construction of square roots      ...    0.014 sec
Total time needed                          ...    0.024 sec

-------------------
DFT GRID GENERATION
-------------------

General Integration Accuracy     IntAcc      ... 4.388
Radial Grid Type                 RadialGrid  ... OptM3 with GC (2021)
Angular Grid (max. ang.)         AngularGrid ... 4 (Lebedev-302)
Angular grid pruning method      GridPruning ... 4 (adaptive)
Weight generation scheme         WeightScheme... mBecke (2022)
Basis function cutoff            BFCut       ... 1.0000e-10
Integration weight cutoff        WCut        ... 1.0000e-14
Partially contracted basis set               ... off
Rotationally invariant grid construction     ... off
Angular grids for H and He will be reduced by one unit

Total number of grid points                  ...    52146
Total number of batches                      ...      819
Average number of points per batch           ...       63
Average number of grid points per atom       ...     4741
Initializing property integral containers    ... done (  0.0 sec)

SHARK setup successfully completed in   1.0 seconds

Maximum memory used throughout the entire STARTUP-calculation: 23.6 MB
-------------------------------------------------------------------------------
                                 ORCA GUESS
                   Start orbitals & Density for SCF / CASSCF
-------------------------------------------------------------------------------

------------
SCF SETTINGS
------------
Hamiltonian:
 Density Functional     Method          .... DFT(GTOs)
  Functional kind                       .... Exchange
  Functional name                       .... Re-regularized SCAN exchange by Furness et al
  Functional family                     .... MGGA
  Functional refs                              
    [ 0] J. W. Furness, A. D. Kaplan, J. Ning, J. P. Perdew, and J. Sun.,  J. Phys. Chem. Lett. 11, 8208-8215 (2020), doi: 10.1021/acs.jpclett.0c02405
    [ 1] J. W. Furness, A. D. Kaplan, J. Ning, J. P. Perdew, and J. Sun.,  J. Phys. Chem. Lett. 11, 9248-9248 (2020), doi: 10.1021/acs.jpclett.0c03077
  Functional external parameters        .... 6
    Parameter  0 _c1        =  6.670000e-01 : c1 parameter        
    Parameter  1 _c2        =  8.000000e-01 : c2 parameter        
    Parameter  2 _d         =  1.240000e+00 : d parameter         
    Parameter  3 _k1        =  6.500000e-02 : k1 parameter        
    Parameter  4 _eta       =  1.000000e-03 : eta parameter       
    Parameter  5 _dp2       =  3.610000e-01 : dp2 parameter       
  Functional kind                       .... Correlation
  Functional name                       .... Re-regularized SCAN correlation by Furness et al
  Functional family                     .... MGGA
  Functional refs                              
    [ 0] J. W. Furness, A. D. Kaplan, J. Ning, J. P. Perdew, and J. Sun.,  J. Phys. Chem. Lett. 11, 8208-8215 (2020), doi: 10.1021/acs.jpclett.0c02405
    [ 1] J. W. Furness, A. D. Kaplan, J. Ning, J. P. Perdew, and J. Sun.,  J. Phys. Chem. Lett. 11, 9248-9248 (2020), doi: 10.1021/acs.jpclett.0c03077
  Functional external parameters        .... 1
    Parameter  0 _eta       =  1.000000e-03 : Regularization parameter
 Gradients option       PostSCFGGA      .... off
 RI-approximation to the Coulomb term is turned on
   Number of AuxJ basis functions       .... 315


General Settings:
 Integral files         IntName         .... sp_solv
 Hartree-Fock type      HFTyp           .... RHF
 Total Charge           Charge          ....    0
 Multiplicity           Mult            ....    1
 Number of Electrons    NEL             ....   58
 Basis Dimension        Dim             ....  141
 Nuclear Repulsion      ENuc            ....    267.1046177795 Eh

Convergence Acceleration:
 AO-DIIS                CNVDIIS         .... on
   Start iteration      DIISMaxIt       ....    12
   Startup error        DIISStart       ....  0.200000
   # of expansion vecs  DIISMaxEq       ....     5
   Bias factor          DIISBfac        ....   1.050
   Max. coefficient     DIISMaxC        ....  10.000
 MO-DIIS                CNVKDIIS        .... off
 Trust-Rad. Augm. Hess. CNVTRAH         .... auto
   Auto Start mean grad. ratio tolernc. ....  1.125000
   Auto Start start iteration           ....     1
   Auto Start num. interpolation iter.  ....    10
   Max. Number of Micro iterations      ....    24
   Max. Number of Macro iterations      .... Maxiter - #DIIS iter
   Number of Davidson start vectors     ....     2
   Converg. threshold    (grad. norm)   ....   3.330e-04
   Grad. Scal. Fac. for Micro threshold ....   0.100
   Minimum threshold for Micro iter.    ....   1.000e-02
   NR start threshold (gradient norm)   ....   1.000e-04
   Initial trust radius                 ....   0.400
   Minimum AH scaling param. (alpha)    ....   1.000
   Maximum AH scaling param. (alpha)    .... 1000.000
   Quad. conv. algorithm                .... NR
   White noise on init. David. guess    .... on
   Maximum white noise                  ....   0.010
   Pseudo random numbers                .... off
   Inactive MOs                         .... canonical
   Orbital update algorithm             .... Taylor
   Preconditioner                       .... Diag
   Full preconditioner red. dimension   ....   250
   COSX micro iterations for RIJONX calc.... off
 SOSCF                  CNVSOSCF        .... on
   Start iteration      SOSCFMaxIt      ....   150
   Startup grad/error   SOSCFStart      ....  0.003300
   Hessian update       SOSCFHessUp     .... L-BFGS
 Level Shifting         CNVShift        .... on
   Level shift para.    LevelShift      ....    0.2500
   Turn off err/grad.   ShiftErr        ....    0.0010
 Zerner damping         CNVZerner       .... off
 Static damping         CNVDamp         .... on
   Fraction old density DampFac         ....    0.7000
   Max. Damping (<1)    DampMax         ....    0.9800
   Min. Damping (>=0)   DampMin         ....    0.0000
   Turn off err/grad.   DampErr         ....    0.1000

SCF Procedure:
 Maximum # iterations   MaxIter         ....   125
 SCF integral mode      SCFMode         .... Direct
   Integral package                     .... SHARK and LIBINT hybrid scheme
 Reset frequency        DirectResetFreq ....    20
 Integral Threshold     Thresh          ....  1.000e-10 Eh
 Primitive CutOff       TCut            ....  1.000e-11 Eh

Convergence Tolerance:
 Convergence Check Mode ConvCheckMode   .... Total+1el-Energy
 Convergence forced     ConvForced      .... 0
 Energy Change          TolE            ....  1.000e-06 Eh
 1-El. energy change                    ....  1.000e-03 Eh
 Orbital Gradient       TolG            ....  3.330e-04
 Orbital Rotation angle TolX            ....  3.330e-04
 DIIS Error             TolErr          ....  1.000e-06

---------------------
INITIAL GUESS: MOREAD
---------------------
Guess MOs are being read from file: sp_solv.ges
Input Geometry matches current geometry (good)
Atom 0: N(Shells)= 9 and 6 - projection required
Input basis set needs projection
NBasis(read)= 90
NBasis(calc)= 141
Basis set overlap was calculated
Using GuessMode=FMatrix for the initial guess
C*T matrix was formed
Effective Fockian was calculated
Effective Fockian was diagonalized
Initial density was built
                      ------------------
                      INITIAL GUESS DONE (   0.1 sec)
                      ------------------
             **** ENERGY FILE WAS UPDATED (sp_solv.en.tmp) ****
Finished Guess after   0.3 sec
Maximum memory used throughout the entire GUESS-calculation: 9.8 MB

-------------------------------------------------------------------------------------------
                                      ORCA LEAN-SCF
                              memory conserving SCF solver
-------------------------------------------------------------------------------------------

--------------------
CPCM SOLVATION MODEL
--------------------
CPCM parameters:
  Epsilon                                         ...      78.3550
  Refrac                                          ...       1.3328
  Rsolv                                           ...       1.3000
  Surface type                                    ... GAUSSIAN VDW
  Discretization scheme                           ... Constant charge density
    Threshold for H atoms                         ...       5.0000 (charges/Ang^2)
    Threshold for non-H atoms                     ...       5.0000 (charges/Ang^2)
  Epsilon function type                           ...         CPCM
Solvent:                                          ... WATER
SMD-CDS solvent descriptors:
  Soln                                            ...       1.3328
  Soln25                                          ...       1.3323
  Sola                                            ...       0.0000
  Solb                                            ...       0.0000
  Solg                                            ...       0.0000
  Solc                                            ...       0.0000
  Solh                                            ...       0.0000
Radii:
  Scheme                                          ... Element-dependent radii
  Radius for C  used is    3.4960 Bohr (=   1.8500 Ang.)
  Radius for Cl used is    4.4975 Bohr (=   2.3800 Ang.)
  Radius for H  used is    2.2677 Bohr (=   1.2000 Ang.)
Calculating surface                               ...        done! (  0.0s)
Cavity surface points                             ...         1043
Cavity Volume                                     ...     967.3559
Cavity Surface-area                               ...     561.3492
Calculating surface distance matrix               ...        done! (  0.0s)
Performing Cholesky decomposition & store         ...        done! (  0.1s)
Overall time for CPCM initialization              ...                 0.1s

----------------------------------------D-I-I-S--------------------------------------------
Iteration    Energy (Eh)           Delta-E    RMSDP     MaxDP     DIISErr   Damp  Time(sec)
-------------------------------------------------------------------------------------------
               ***  Starting incremental Fock matrix formation  ***
    1    -1038.1514919398409802     0.00e+00  3.41e-03  8.33e-02  5.39e-01  0.700   1.5
    2    -1038.1850110105872318    -3.35e-02  2.85e-03  6.88e-02  3.77e-01  0.700   1.7
    3    -1038.2088841837528435    -2.39e-02  2.11e-03  5.03e-02  2.64e-01  0.700   1.6
                               ***Turning on AO-DIIS***
    4    -1038.2256904300841143    -1.68e-02  1.56e-03  3.60e-02  1.85e-01  0.700   1.6
    5    -1038.2374964742380143    -1.18e-02  1.12e-03  2.55e-02  1.29e-01  0.700   1.5
    6    -1038.2457874478329813    -8.29e-03  7.93e-04  1.80e-02  9.06e-02  0.700   1.7
    7    -1038.2516048299512477    -5.82e-03  1.86e-03  4.20e-02  6.34e-02  0.000   1.7
                              *** Initializing SOSCF ***
---------------------------------------S-O-S-C-F--------------------------------------
Iteration    Energy (Eh)           Delta-E    RMSDP     MaxDP     MaxGrad    Time(sec)
--------------------------------------------------------------------------------------
    8    -1038.2652185919694148    -1.36e-02  2.42e-05  3.20e-04  3.97e-04     1.5
               *** Restarting incremental Fock matrix formation ***
    9    -1038.2652189180143978    -3.26e-07  2.57e-05  4.14e-04  1.26e-04     1.4
   10    -1038.2652178178145732     1.10e-06  1.63e-05  2.58e-04  2.15e-04     2.0
   11    -1038.2652195635391763    -1.75e-06  7.10e-07  1.28e-05  2.73e-06     1.6
                  *** Gradient check signals convergence ***

               *****************************************************
               *                     SUCCESS                       *
               *           SCF CONVERGED AFTER  11 CYCLES          *
               *****************************************************


SMD CDS free energy correction energy :                 2.18037     Kcal/mol
Total Energy after SMD CDS correction =             -1038.261744926 Eh
             **** ENERGY FILE WAS UPDATED (sp_solv.en.tmp) ****

----------------
TOTAL SCF ENERGY
----------------

Total Energy       :      -1038.26174492577161 Eh          -28252.53841 eV

Components:
Nuclear Repulsion  :        267.10461777945244 Eh            7268.28616 eV
Electronic Energy  :      -1305.35875808202991 Eh          -35520.61764 eV
One Electron Energy:      -1959.72305487726226 Eh          -53326.77540 eV
Two Electron Energy:        654.36429679523235 Eh           17806.15776 eV
CPCM Dielectric    :         -0.01107926096158 Eh              -0.30148 eV
SMD CDS (Gcds)     :          0.00347463776748 Eh               0.09455 eV

Virial components:
Potential Energy   :      -2073.84331877368231 Eh          -56432.14566 eV
Kinetic Energy     :       1035.58157384791070 Eh           28179.60725 eV
Virial Ratio       :          2.00258808301108

DFT components:
N(Alpha)           :       29.000009223494 electrons
N(Beta)            :       29.000009223494 electrons
N(Total)           :       58.000018446988 electrons
E(X)               :      -72.839035010740 Eh       
E(C)               :       -2.066187071906 Eh       
E(XC)              :      -74.905222082646 Eh       

CPCM Solvation Model Properties:
Surface-charge          :         -0.01561070503515
Corrected charge        :          0.00000000000000
Outlying charge corr.   :          0.00001841702855 Eh               0.00050 eV
Free-energy (cav+disp)  :          0.00347463776748 Eh               0.09455 eV

---------------
SCF CONVERGENCE
---------------

  Last Energy change         ...    1.7457e-06  Tolerance :   1.0000e-06
  Last MAX-Density change    ...    1.2837e-05  Tolerance :   1.0000e-05
  Last RMS-Density change    ...    7.0987e-07  Tolerance :   1.0000e-06
  Last DIIS Error            ...    3.9714e-04  Tolerance :   1.0000e-06
  Last Orbital Gradient      ...    2.7332e-06  Tolerance :   3.3300e-04
  Last Orbital Rotation      ...    4.2725e-06  Tolerance :   3.3300e-04


----------------
ORBITAL ENERGIES
----------------

  NO   OCC          E(Eh)            E(eV) 
   0   2.0000    -101.203025     -2753.8743 
   1   2.0000    -101.203004     -2753.8738 
   2   2.0000     -10.088241      -274.5150 
   3   2.0000     -10.084931      -274.4249 
   4   2.0000     -10.042463      -273.2693 
   5   2.0000      -9.359287      -254.6792 
   6   2.0000      -9.359222      -254.6774 
   7   2.0000      -7.105156      -193.3411 
   8   2.0000      -7.105147      -193.3409 
   9   2.0000      -7.095525      -193.0791 
  10   2.0000      -7.095442      -193.0768 
  11   2.0000      -7.095409      -193.0759 
  12   2.0000      -7.095377      -193.0750 
  13   2.0000      -0.832416       -22.6512 
  14   2.0000      -0.809009       -22.0143 
  15   2.0000      -0.719746       -19.5853 
  16   2.0000      -0.626014       -17.0347 
  17   2.0000      -0.559084       -15.2135 
  18   2.0000      -0.453809       -12.3488 
  19   2.0000      -0.435226       -11.8431 
  20   2.0000      -0.410088       -11.1591 
  21   2.0000      -0.392042       -10.6680 
  22   2.0000      -0.358056        -9.7432 
  23   2.0000      -0.346471        -9.4280 
  24   2.0000      -0.327429        -8.9098 
  25   2.0000      -0.280840        -7.6420 
  26   2.0000      -0.269837        -7.3426 
  27   2.0000      -0.267804        -7.2873 
  28   2.0000      -0.259420        -7.0592 
  29   0.0000       0.007818         0.2127 
  30   0.0000       0.008698         0.2367 
  31   0.0000       0.113425         3.0865 
  32   0.0000       0.117426         3.1953 
  33   0.0000       0.137281         3.7356 
  34   0.0000       0.148616         4.0441 
  35   0.0000       0.152435         4.1480 
  36   0.0000       0.160702         4.3729 
  37   0.0000       0.201740         5.4896 
  38   0.0000       0.208668         5.6781 
  39   0.0000       0.217000         5.9049 
*Only the first 10 virtual orbitals were printed.

                    ********************************
                    * MULLIKEN POPULATION ANALYSIS *
                    ********************************

-----------------------
MULLIKEN ATOMIC CHARGES
-----------------------
   0 C :   -0.278923
   1 C :   -0.176036
   2 Cl:   -0.239263
   3 C :   -0.177216
   4 Cl:   -0.250173
   5 H :    0.178864
   6 H :    0.179688
   7 H :    0.187765
   8 H :    0.189852
   9 H :    0.186508
  10 H :    0.198935
Sum of atomic charges:    0.0000000

--------------------------------
MULLIKEN REDUCED ORBITAL CHARGES
--------------------------------
  0 C s       :     3.234480  s :     3.234480
      pz      :     1.103919  p :     3.008678
      px      :     0.934434
      py      :     0.970325
      dz2     :     0.006698  d :     0.035765
      dxz     :     0.005700
      dyz     :     0.007236
      dx2y2   :     0.006933
      dxy     :     0.009198

  1 C s       :     3.254505  s :     3.254505
      pz      :     1.083972  p :     2.881076
      px      :     0.795249
      py      :     1.001855
      dz2     :     0.006961  d :     0.040455
      dxz     :     0.007048
      dyz     :     0.007997
      dx2y2   :     0.008705
      dxy     :     0.009744

  2 Cls       :     5.944802  s :     5.944802
      pz      :     3.877021  p :    11.247918
      px      :     3.424125
      py      :     3.946772
      dz2     :     0.006743  d :     0.046542
      dxz     :     0.012734
      dyz     :     0.002905
      dx2y2   :     0.012437
      dxy     :     0.011723

  3 C s       :     3.254377  s :     3.254377
      pz      :     0.952767  p :     2.882585
      px      :     0.929469
      py      :     1.000349
      dz2     :     0.008507  d :     0.040254
      dxz     :     0.007469
      dyz     :     0.006996
      dx2y2   :     0.007381
      dxy     :     0.009901

  4 Cls       :     5.949222  s :     5.949222
      pz      :     3.744903  p :    11.254918
      px      :     3.782473
      py      :     3.727542
      dz2     :     0.009316  d :     0.046033
      dxz     :     0.008711
      dyz     :     0.009795
      dx2y2   :     0.008430
      dxy     :     0.009781

  5 H s       :     0.803203  s :     0.803203
      pz      :     0.010386  p :     0.017934
      px      :     0.003184
      py      :     0.004363

  6 H s       :     0.802257  s :     0.802257
      pz      :     0.005816  p :     0.018054
      px      :     0.005025
      py      :     0.007213

  7 H s       :     0.793873  s :     0.793873
      pz      :     0.006048  p :     0.018362
      px      :     0.004687
      py      :     0.007627

  8 H s       :     0.792083  s :     0.792083
      pz      :     0.010686  p :     0.018065
      px      :     0.002798
      py      :     0.004581

  9 H s       :     0.795342  s :     0.795342
      pz      :     0.010403  p :     0.018151
      px      :     0.003150
      py      :     0.004597

 10 H s       :     0.782917  s :     0.782917
      pz      :     0.003162  p :     0.018149
      px      :     0.005361
      py      :     0.009625


------------------------
MULLIKEN OVERLAP CHARGES
------------------------
B(  0-C ,  1-C ) :   0.4765 B(  0-C ,  2-Cl) :  -0.0764 B(  0-C ,  3-C ) :   0.5236 
B(  0-C ,  4-Cl) :  -0.1140 B(  0-C ,  5-H ) :   0.8544 B(  0-C ,  6-H ) :   0.7993 
B(  0-C ,  7-H ) :  -0.0837 B(  0-C ,  8-H ) :  -0.0860 B(  0-C ,  9-H ) :  -0.0654 
B(  0-C , 10-H ) :  -0.0830 B(  1-C ,  2-Cl) :   0.3890 B(  1-C ,  3-C ) :  -0.1014 
B(  1-C ,  5-H ) :  -0.0861 B(  1-C ,  6-H ) :  -0.0564 B(  1-C ,  7-H ) :   0.8411 
B(  1-C ,  8-H ) :   0.8405 B(  2-Cl,  7-H ) :  -0.0786 B(  2-Cl,  8-H ) :  -0.0802 
B(  3-C ,  4-Cl) :   0.4019 B(  3-C ,  5-H ) :  -0.0527 B(  3-C ,  9-H ) :   0.8488 
B(  3-C , 10-H ) :   0.8333 B(  4-Cl,  9-H ) :  -0.0850 B(  4-Cl, 10-H ) :  -0.0771 
B(  7-H ,  8-H ) :  -0.0527 


                     *******************************
                     * LOEWDIN POPULATION ANALYSIS *
                     *******************************

----------------------
LOEWDIN ATOMIC CHARGES
----------------------
   0 C :   -0.344185
   1 C :   -0.324970
   2 Cl:   -0.024679
   3 C :   -0.306144
   4 Cl:   -0.032220
   5 H :    0.171257
   6 H :    0.178302
   7 H :    0.167956
   8 H :    0.170036
   9 H :    0.171454
  10 H :    0.173193

-------------------------------
LOEWDIN REDUCED ORBITAL CHARGES
-------------------------------
  0 C s       :     2.956162  s :     2.956162
      pz      :     1.151103  p :     3.309245
      px      :     1.067502
      py      :     1.090639
      dz2     :     0.015563  d :     0.078778
      dxz     :     0.012093
      dyz     :     0.015748
      dx2y2   :     0.014958
      dxy     :     0.020416

  1 C s       :     2.997045  s :     2.997045
      pz      :     1.146249  p :     3.239457
      px      :     0.971054
      py      :     1.122154
      dz2     :     0.016199  d :     0.088468
      dxz     :     0.014986
      dyz     :     0.016962
      dx2y2   :     0.018036
      dxy     :     0.022286

  2 Cls       :     5.694402  s :     5.694402
      pz      :     3.868083  p :    11.229201
      px      :     3.441510
      py      :     3.919609
      dz2     :     0.014381  d :     0.101075
      dxz     :     0.028691
      dyz     :     0.005648
      dx2y2   :     0.028300
      dxy     :     0.024054

  3 C s       :     2.995200  s :     2.995200
      pz      :     1.074188  p :     3.222926
      px      :     1.062156
      py      :     1.086582
      dz2     :     0.019006  d :     0.088019
      dxz     :     0.015781
      dyz     :     0.015628
      dx2y2   :     0.016209
      dxy     :     0.021394

  4 Cls       :     5.699783  s :     5.699783
      pz      :     3.745510  p :    11.232129
      px      :     3.757201
      py      :     3.729418
      dz2     :     0.017856  d :     0.100307
      dxz     :     0.019847
      dyz     :     0.023177
      dx2y2   :     0.016660
      dxy     :     0.022767

  5 H s       :     0.784401  s :     0.784401
      pz      :     0.026336  p :     0.044342
      px      :     0.007407
      py      :     0.010598

  6 H s       :     0.777164  s :     0.777164
      pz      :     0.014456  p :     0.044534
      px      :     0.012220
      py      :     0.017858

  7 H s       :     0.785993  s :     0.785993
      pz      :     0.015377  p :     0.046051
      px      :     0.011344
      py      :     0.019330

  8 H s       :     0.784572  s :     0.784572
      pz      :     0.027685  p :     0.045393
      px      :     0.006411
      py      :     0.011296

  9 H s       :     0.783040  s :     0.783040
      pz      :     0.026642  p :     0.045506
      px      :     0.007543
      py      :     0.011320

 10 H s       :     0.781237  s :     0.781237
      pz      :     0.007397  p :     0.045570
      px      :     0.013273
      py      :     0.024899


---------------------------------
LOEWDIN BOND ORDERS (THRESH 0.050000)
---------------------------------
B(  0-C ,  1-C ) :   1.1151 B(  0-C ,  2-Cl) :   0.1268 B(  0-C ,  3-C ) :   1.1224 
B(  0-C ,  4-Cl) :   0.1163 B(  0-C ,  5-H ) :   0.8892 B(  0-C ,  6-H ) :   0.8753 
B(  1-C ,  2-Cl) :   1.3553 B(  1-C ,  3-C ) :   0.0755 B(  1-C ,  7-H ) :   0.8916 
B(  1-C ,  8-H ) :   0.8925 B(  3-C ,  4-Cl) :   1.3353 B(  3-C ,  9-H ) :   0.8909 
B(  3-C , 10-H ) :   0.8903 

------------------------------------------
LOEWDIN REDUCED ORBITAL POPULATIONS PER MO
-------------------------------------------
THRESHOLD FOR PRINTING IS 0.1%%
                      0         1         2         3         4         5   
                 -101.20303 -101.20300 -10.08824 -10.08493 -10.04246  -9.35929
                   2.00000   2.00000   2.00000   2.00000   2.00000   2.00000
                  --------  --------  --------  --------  --------  --------
 0 C  s               0.0       0.0       0.0       0.0      99.7       0.0
 1 C  s               0.0       0.0       0.0      99.7       0.0       0.0
 2 Cl s               0.1      99.9       0.0       0.0       0.0       0.0
 3 C  s               0.0       0.0      99.7       0.0       0.0       0.0
 4 Cl s              99.9       0.1       0.0       0.0       0.0      99.8

                      6         7         8         9        10        11   
                  -9.35922  -7.10516  -7.10515  -7.09553  -7.09544  -7.09541
                   2.00000   2.00000   2.00000   2.00000   2.00000   2.00000
                  --------  --------  --------  --------  --------  --------
 1 C  px              0.1       0.0       0.0       0.0       0.0       0.0
 2 Cl s              99.8       0.0       0.0       0.0       0.0       0.0
 2 Cl pz              0.0       0.0      14.3       0.0       0.0      34.3
 2 Cl px              0.0       0.0      81.9       0.0       0.0      15.7
 2 Cl py              0.0       0.0       3.8       0.0       0.0      50.0
 4 Cl pz              0.0      34.7       0.0      50.6      14.7       0.0
 4 Cl px              0.0      28.6       0.0      48.8      22.5       0.0
 4 Cl py              0.0      36.7       0.0       0.6      62.8       0.0

                     12        13        14        15        16        17   
                  -7.09538  -0.83242  -0.80901  -0.71975  -0.62601  -0.55908
                   2.00000   2.00000   2.00000   2.00000   2.00000   2.00000
                  --------  --------  --------  --------  --------  --------
 0 C  s               0.0      11.8       0.0      22.1       0.0      11.8
 0 C  pz              0.0       0.1       0.2       0.2       0.9       2.1
 0 C  px              0.0       0.1       5.1       0.1       6.6       1.1
 0 C  py              0.0       1.7       0.3       0.2       3.5       6.1
 0 C  dx2y2           0.0       0.0       0.0       0.0       0.2       0.0
 0 C  dxy             0.0       0.0       0.0       0.0       0.1       0.0
 1 C  s               0.0      14.4       8.3       3.4      15.2       6.6
 1 C  pz              0.0       0.3       0.7       0.7       0.2       0.8
 1 C  px              0.0       0.5       6.2       7.0       1.7       0.1
 1 C  py              0.0       1.1       0.1       1.7       0.7       9.9
 1 C  dx2y2           0.0       0.0       0.1       0.1       0.1       0.0
 1 C  dxy             0.0       0.0       0.0       0.2       0.0       0.1
 2 Cl s               0.0      18.5      31.6      16.1      12.3       1.7
 2 Cl pz             51.4       0.2       0.1       0.1       0.7       0.5
 2 Cl px              2.4       1.1       0.8       0.6       3.8       1.4
 2 Cl py             46.2       0.0       0.0       0.0       0.2       1.1
 2 Cl dxz             0.0       0.1       0.1       0.0       0.2       0.1
 2 Cl dx2y2           0.0       0.2       0.1       0.0       0.3       0.1
 2 Cl dxy             0.0       0.0       0.0       0.0       0.1       0.2
 3 C  s               0.0      14.6       8.1       3.6      15.3       6.7
 3 C  pz              0.0       1.8       1.2       0.2       1.6       5.0
 3 C  px              0.0       0.0       2.1       8.8       0.0       2.7
 3 C  py              0.0       1.1       1.3       2.2       2.2       0.3
 3 C  dxz             0.0       0.0       0.0       0.2       0.0       0.0
 4 Cl s               0.0      20.4      27.8      20.4       8.1       3.9
 4 Cl pz              0.0       0.4       0.3       0.2       1.4       2.5
 4 Cl px              0.0       0.5       0.2       0.4       0.6       0.7
 4 Cl py              0.0       0.5       0.4       0.3       1.7       1.0
 4 Cl dxz             0.0       0.1       0.1       0.0       0.2       0.2
 4 Cl dyz             0.0       0.1       0.1       0.0       0.3       0.2
 4 Cl dxy             0.0       0.1       0.1       0.1       0.2       0.0
 5 H  s               0.0       1.2       0.0       3.5       0.0       7.2
 5 H  pz              0.0       0.1       0.0       0.3       0.0       0.5
 6 H  s               0.0       1.2       0.0       3.9       0.0       5.9
 6 H  pz              0.0       0.0       0.0       0.1       0.0       0.2
 6 H  py              0.0       0.0       0.0       0.2       0.0       0.1
 7 H  s               0.0       1.7       0.9       0.5       5.0       4.0
 7 H  pz              0.0       0.0       0.0       0.0       0.2       0.2
 7 H  py              0.0       0.1       0.0       0.0       0.2       0.1
 8 H  s               0.0       1.5       1.0       0.6       4.4       4.9
 8 H  pz              0.0       0.1       0.1       0.0       0.3       0.3
 9 H  s               0.0       1.6       0.9       0.7       4.3       5.3
 9 H  pz              0.0       0.1       0.1       0.0       0.3       0.3
 9 H  py              0.0       0.0       0.0       0.0       0.1       0.1
10 H  s               0.0       1.6       1.0       0.6       5.6       2.9
10 H  px              0.0       0.0       0.0       0.0       0.1       0.0
10 H  py              0.0       0.1       0.1       0.0       0.3       0.2

                     18        19        20        21        22        23   
                  -0.45381  -0.43523  -0.41009  -0.39204  -0.35806  -0.34647
                   2.00000   2.00000   2.00000   2.00000   2.00000   2.00000
                  --------  --------  --------  --------  --------  --------
 0 C  s               0.0       0.2       0.0       0.1       0.0       0.5
 0 C  pz             19.8       0.4       2.7       1.0       0.3       3.0
 0 C  px              5.4       1.4      12.6       0.1       7.5       2.5
 0 C  py              0.6      11.5       0.8       1.7       4.1      18.5
 0 C  dz2             0.0       0.0       0.0       0.0       0.0       0.2
 0 C  dxz             0.0       0.0       0.0       0.1       0.0       0.2
 0 C  dx2y2           0.0       0.0       0.0       0.0       0.2       0.2
 0 C  dxy             0.0       0.1       0.0       0.0       0.2       0.2
 1 C  s               0.0       0.4       0.2       0.0       0.8       0.5
 1 C  pz             20.8       0.0       8.2      13.4       1.0       0.8
 1 C  px              2.2      10.2       0.4       1.6      16.3       0.0
 1 C  py              2.8       0.2      14.7       4.3       1.6      13.2
 1 C  dz2             0.0       0.0       0.1       0.0       0.0       0.1
 1 C  dxz             0.0       0.0       0.0       0.0       0.1       0.1
 1 C  dyz             0.0       0.0       0.0       0.2       0.0       0.0
 1 C  dx2y2           0.0       0.0       0.0       0.0       0.3       0.1
 2 Cl s               0.0       2.4       1.1       0.0       1.1       0.1
 2 Cl pz              2.4       3.1       0.0       4.9       6.2       0.5
 2 Cl px              0.5       9.9      11.9       0.2      18.4       7.3
 2 Cl py              0.5       0.5       2.3       1.2       8.5       2.4
 2 Cl dz2             0.1       0.0       0.1       0.1       0.0       0.0
 2 Cl dxz             0.2       0.2       0.0       0.2       0.1       0.0
 2 Cl dx2y2           0.0       0.1       0.3       0.0       0.0       0.1
 2 Cl dxy             0.1       0.0       0.2       0.1       0.2       0.1
 3 C  s               0.1       0.1       0.0       0.3       0.2       0.6
 3 C  pz              9.4       0.2       7.9      15.7       0.6       1.2
 3 C  px              0.9      10.6       5.9       2.5      10.3       4.6
 3 C  py              0.6      22.2       7.3       2.4       5.0       5.7
 3 C  dyz             0.0       0.0       0.0       0.2       0.0       0.0
 3 C  dxy             0.0       0.0       0.0       0.0       0.2       0.2
 4 Cl s               1.5       0.2       0.3       2.1       0.0       0.3
 4 Cl pz              0.0       0.5       7.3       4.8       0.0      14.7
 4 Cl px              3.1       4.8       0.0       8.2       5.8       0.6
 4 Cl py              3.2       1.6       0.1      16.2       1.5       0.1
 4 Cl dz2             0.1       0.0       0.3       0.1       0.0       0.2
 4 Cl dxz             0.0       0.2       0.1       0.1       0.1       0.0
 4 Cl dyz             0.0       0.0       0.1       0.1       0.1       0.0
 4 Cl dx2y2           0.0       0.5       0.0       0.0       0.2       0.0
 4 Cl dxy             0.1       0.0       0.0       0.3       0.1       0.0
 5 H  s               4.2       0.7       0.2       0.0       0.1       6.9
 5 H  pz              0.1       0.0       0.0       0.0       0.0       0.2
 5 H  px              0.0       0.0       0.1       0.0       0.1       0.0
 5 H  py              0.1       0.0       0.0       0.0       0.0       0.0
 6 H  s               5.7       1.8       0.0       1.0       0.1       5.7
 6 H  pz              0.0       0.1       0.0       0.0       0.0       0.2
 6 H  px              0.0       0.0       0.1       0.1       0.1       0.0
 6 H  py              0.2       0.0       0.0       0.0       0.0       0.0
 7 H  s               6.6       0.1       0.8       7.7       0.6       2.3
 7 H  pz              0.0       0.0       0.1       0.0       0.0       0.1
 7 H  py              0.2       0.0       0.0       0.1       0.1       0.0
 8 H  s               4.1       0.5       6.5       3.4       0.3       2.5
 8 H  pz              0.1       0.0       0.2       0.0       0.0       0.1
 8 H  px              0.0       0.1       0.0       0.0       0.2       0.0
 8 H  py              0.1       0.0       0.0       0.1       0.0       0.1
 9 H  s               2.7       2.1       5.6       4.3       0.3       1.2
 9 H  pz              0.1       0.2       0.2       0.0       0.0       0.0
 9 H  py              0.0       0.0       0.0       0.2       0.0       0.0
10 H  s               0.5      12.0       0.3       0.4       6.7       1.4
10 H  pz              0.1       0.0       0.1       0.1       0.0       0.0
10 H  px              0.0       0.1       0.1       0.1       0.0       0.1
10 H  py              0.0       0.3       0.0       0.0       0.1       0.0

                     24        25        26        27        28        29   
                  -0.32743  -0.28084  -0.26984  -0.26780  -0.25942   0.00782
                   2.00000   2.00000   2.00000   2.00000   2.00000   0.00000
                  --------  --------  --------  --------  --------  --------
 0 C  s               0.0       1.3       0.4       0.0       0.0       0.5
 0 C  pz             26.1       0.0       0.4       0.0       0.2       0.1
 0 C  px              3.0       0.5       0.5       3.0       3.7       0.6
 0 C  py              0.7       2.7       0.8       0.2       1.0       0.2
 0 C  dz2             0.2       0.0       0.1       0.0       0.0       0.3
 0 C  dyz             0.5       0.0       0.0       0.1       0.0       0.0
 0 C  dx2y2           0.0       0.0       0.0       0.1       0.0       0.5
 0 C  dxy             0.1       0.0       0.0       0.0       0.1       0.0
 1 C  s               0.0       0.1       0.1       0.0       0.0       3.2
 1 C  pz              4.7       0.0       1.3       3.0       1.3       1.9
 1 C  px              0.6       0.3       0.4       0.7       0.0      13.5
 1 C  py              0.1       1.2       0.3       0.3       3.9       0.2
 1 C  dz2             0.0       0.0       0.1       0.3       0.0       0.0
 1 C  dxz             0.1       0.1       0.0       0.1       0.0       0.2
 1 C  dyz             0.4       0.0       0.1       0.2       0.0       0.0
 1 C  dx2y2           0.0       0.0       0.0       0.0       0.0       0.4
 1 C  dxy             0.0       0.4       0.0       0.0       0.3       0.1
 2 Cl s               0.0       0.0       0.0       0.0       0.0       2.9
 2 Cl pz              5.6       2.4      18.5      39.0       9.1       2.1
 2 Cl px              0.9       0.0       2.4      12.6       0.1      10.8
 2 Cl py              0.3      38.0       0.1       9.6      31.3       0.5
 2 Cl dz2             0.1       0.0       0.0       0.1       0.0       0.6
 2 Cl dxz             0.0       0.0       0.0       0.0       0.0       3.1
 2 Cl dx2y2           0.0       0.0       0.0       0.0       0.0       3.0
 2 Cl dxy             0.0       0.0       0.0       0.0       0.2       0.8
 3 C  s               0.2       0.0       0.0       0.0       0.0       9.4
 3 C  pz              5.2       0.1       2.1       1.4       0.0       6.4
 3 C  px              0.2       0.8       0.1       0.7       2.7       2.0
 3 C  py              0.2       0.4       1.9       0.2       1.3       4.7
 3 C  dz2             0.2       0.0       0.5       0.1       0.0       0.0
 3 C  dxz             0.2       0.0       0.1       0.0       0.0       0.1
 3 C  dyz             0.2       0.0       0.0       0.0       0.1       0.2
 3 C  dx2y2           0.0       0.3       0.0       0.0       0.2       0.0
 3 C  dxy             0.1       0.0       0.0       0.0       0.2       0.0
 4 Cl s               0.1       0.0       0.0       0.0       0.0       1.7
 4 Cl pz              2.1       4.1      35.5      13.0       0.5       4.4
 4 Cl px              3.0      34.6       1.0       1.9      22.4       3.4
 4 Cl py              7.3       8.9      23.8       5.8      14.0       5.5
 4 Cl dz2             0.0       0.0       0.1       0.0       0.0       0.0
 4 Cl dxz             0.0       0.0       0.0       0.0       0.0       2.9
 4 Cl dyz             0.0       0.0       0.0       0.0       0.0       3.7
 4 Cl dx2y2           0.0       0.0       0.0       0.0       0.1       0.2
 4 Cl dxy             0.0       0.0       0.0       0.0       0.0       4.2
 5 H  s              14.1       0.0       0.8       0.1       0.0       1.0
 5 H  pz              0.1       0.0       0.0       0.0       0.0       0.1
 5 H  py              0.1       0.0       0.0       0.0       0.0       0.0
 6 H  s              12.0       0.8       0.1       0.7       0.0       0.2
 6 H  py              0.2       0.0       0.0       0.0       0.0       0.0
 7 H  s               2.8       1.7       0.5       1.3       2.8       0.0
 7 H  px              0.0       0.0       0.0       0.0       0.0       0.6
 8 H  s               3.2       0.0       2.0       4.0       0.2       0.1
 8 H  pz              0.0       0.0       0.0       0.0       0.0       0.2
 8 H  px              0.0       0.0       0.0       0.0       0.0       0.5
 9 H  s               4.3       0.0       4.4       1.0       0.3       0.2
 9 H  pz              0.0       0.0       0.0       0.0       0.0       0.4
 9 H  px              0.0       0.0       0.0       0.0       0.0       0.1
10 H  s               0.1       1.1       1.3       0.0       3.6       0.8
10 H  pz              0.1       0.0       0.0       0.0       0.0       0.2
10 H  py              0.0       0.0       0.0       0.0       0.0       0.5

                     30        31        32        33        34        35   
                   0.00870   0.11343   0.11743   0.13728   0.14862   0.15244
                   0.00000   0.00000   0.00000   0.00000   0.00000   0.00000
                  --------  --------  --------  --------  --------  --------
 0 C  s               0.1       6.2       8.8       9.3       0.2       8.8
 0 C  pz              0.0       0.1       0.3       0.9       7.9       5.5
 0 C  px              0.6       6.3       5.7       6.0       3.5       3.0
 0 C  py              0.1       3.8       5.0      13.0       1.1       1.1
 0 C  dz2             0.1       0.2       0.3       0.2       0.0       0.8
 0 C  dxz             0.3       0.0       0.5       0.9       0.1       0.4
 0 C  dyz             0.0       0.0       0.1       0.1       2.1       0.2
 0 C  dx2y2           0.1       0.8       0.2       0.0       0.2       0.3
 0 C  dxy             0.7       0.3       0.1       0.0       0.0       0.0
 1 C  s               4.5      27.1       2.5       1.5       0.4       0.5
 1 C  pz              2.7       1.3       2.4       1.4       7.2      11.8
 1 C  px             11.1       9.2       4.9       1.9       4.8       0.1
 1 C  py              1.6       3.2       5.3       0.5       7.9      19.4
 1 C  dz2             0.1       0.4       0.2       0.0       1.0       0.3
 1 C  dxz             0.2       0.5       0.0       0.1       0.1       0.1
 1 C  dyz             0.0       0.0       0.0       0.2       1.0       0.8
 1 C  dx2y2           0.2       0.4       0.4       0.0       0.2       0.3
 1 C  dxy             0.0       0.0       0.4       0.2       0.1       0.2
 2 Cl s               2.4       5.1       0.1       0.3       0.3       0.2
 2 Cl pz              1.7       0.1       0.1       0.1       0.6       0.2
 2 Cl px             11.3       0.9       1.0       0.0       0.1       0.0
 2 Cl py              0.5       0.0       0.2       1.2       0.1       0.3
 2 Cl dz2             0.5       0.3       0.0       0.8       0.2       1.7
 2 Cl dxz             2.5       1.3       0.8       0.1       1.8       0.1
 2 Cl dyz             0.2       0.2       0.3       0.1       0.0       0.3
 2 Cl dx2y2           4.8       0.9       3.1       0.1       0.3       0.1
 2 Cl dxy             0.9       0.6       0.0       1.8       0.1       0.1
 3 C  s               1.5       1.3      18.2       4.3       1.0       1.6
 3 C  pz              6.0       0.7       5.4       3.1      11.5       3.7
 3 C  px              6.1       1.7       2.0      27.5       6.0       1.7
 3 C  py              8.2       0.1       1.8       0.4       1.3       2.9
 3 C  dz2             0.1       0.0       0.1       0.0       0.5       0.1
 3 C  dxz             0.2       0.1       0.0       1.2       0.1       0.0
 3 C  dyz             0.2       0.0       0.7       0.1       0.1       0.2
 3 C  dx2y2           0.0       0.0       0.4       1.5       0.0       0.2
 3 C  dxy             0.7       0.1       0.3       0.1       0.3       0.1
 4 Cl s               4.0       0.3       2.3       1.7       1.1       0.0
 4 Cl pz              4.9       0.6       0.1       0.3       0.1       1.7
 4 Cl px              4.7       0.3       0.5       0.4       0.2       0.1
 4 Cl py              4.4       0.0       0.3       0.1       0.3       0.4
 4 Cl dz2             0.0       0.7       0.2       0.9       0.0       0.5
 4 Cl dxz             2.6       0.1       0.0       5.5       0.2       0.7
 4 Cl dyz             2.6       0.1       1.7       0.5       0.8       1.4
 4 Cl dx2y2           0.0       0.1       0.0       0.1       0.1       0.2
 4 Cl dxy             1.2       0.1       0.1       0.4       3.4       0.5
 5 H  s               0.0       1.6       0.5       0.1       2.2       8.5
 5 H  pz              0.0       0.9       0.1       0.3       0.3       3.3
 5 H  px              0.0       0.1       0.7       0.6       0.1       0.4
 5 H  py              0.0       0.2       0.2       0.7       0.9       0.2
 6 H  s               1.6       1.5       2.5       0.6       6.0       1.1
 6 H  pz              0.0       0.5       0.4       0.1       0.8       1.3
 6 H  px              0.2       0.8       0.0       0.2       0.0       0.0
 6 H  py              0.0       0.0       1.0       0.6       1.0       0.1
 7 H  s               0.1       5.6       0.0       2.2       3.5       1.9
 7 H  pz              0.1       2.1       0.0       0.4       0.0       0.4
 7 H  px              0.4       0.0       0.1       0.0       0.1       0.1
 7 H  py              0.1       0.8       0.3       0.4       2.2       0.1
 8 H  s               0.0       6.3       0.2       0.0       7.6       1.1
 8 H  pz              0.1       2.3       0.1       0.0       1.5       0.3
 8 H  px              0.4       0.7       0.0       0.3       0.0       0.0
 8 H  py              0.1       0.1       0.3       0.0       0.1       1.7
 9 H  s               0.1       0.2       7.8       0.4       0.2       4.1
 9 H  pz              0.2       0.0       1.4       0.6       0.6       0.9
 9 H  px              0.1       0.2       0.0       1.1       0.1       0.1
 9 H  py              0.4       0.0       1.7       0.0       0.1       0.6
10 H  s               0.6       0.2       3.5       0.9       3.6       1.2
10 H  pz              0.2       0.0       0.5       0.1       0.1       0.1
10 H  px              0.4       0.0       0.3       1.0       0.3       0.0
10 H  py              0.1       0.0       1.7       0.2       0.5       0.2

                     36        37        38        39        40        41   
                   0.16070   0.20174   0.20867   0.21700   0.23301   0.23738
                   0.00000   0.00000   0.00000   0.00000   0.00000   0.00000
                  --------  --------  --------  --------  --------  --------
 0 C  s               2.0       2.7       0.3       0.7       1.3       0.2
 0 C  pz              0.5       2.4      28.9       3.6       2.8       2.7
 0 C  px              1.4       1.5       1.6       8.1       6.3       2.5
 0 C  py             12.1       7.6       0.8      19.2       4.0       2.7
 0 C  dz2             0.2       0.1       0.0       2.4       0.0       0.0
 0 C  dxz             0.0       0.2       0.3       0.3       0.5       0.0
 0 C  dyz             0.1       0.0       0.0       0.2       0.1       0.4
 0 C  dx2y2           0.2       0.1       0.2       0.2       0.9       0.1
 0 C  dxy             1.7       0.1       0.1       0.3       1.1       0.7
 1 C  s               0.5       2.5       0.7       3.3       2.8       0.0
 1 C  pz              0.4       1.5       5.6       5.9       3.9       0.7
 1 C  px              1.8       7.4       1.5       0.8      18.1       1.0
 1 C  py              8.7       2.1       0.0       5.8       2.4      10.4
 1 C  dz2             0.5       1.0       0.8       0.0       0.0       0.0
 1 C  dxz             0.1       0.1       0.3       0.1       0.0       0.1
 1 C  dyz             0.3       0.3       0.9       0.2       0.3       0.0
 1 C  dx2y2           0.0       0.0       0.0       0.1       0.0       0.1
 1 C  dxy             1.9       0.2       0.3       0.2       0.2       0.0
 2 Cl s               0.3       0.5       0.4       1.2       0.7       0.3
 2 Cl pz              0.0       0.1       0.7       0.1       0.4       1.1
 2 Cl px              0.2       0.2       0.5       1.7       2.2       0.8
 2 Cl py              0.5       0.4       0.0       0.1       2.6       1.0
 2 Cl dz2             1.2       0.3       0.9       0.1       2.8       0.6
 2 Cl dxz             0.0       0.6       5.8       0.0       0.2       0.3
 2 Cl dyz             2.2       0.5       1.8       0.5       0.1       0.3
 2 Cl dx2y2           1.1       5.8       1.3       0.0       1.2       0.3
 2 Cl dxy             1.4       0.0       0.0       1.5       3.0       0.0
 3 C  s               1.4       0.9       0.1       0.8       3.2       0.2
 3 C  pz              3.5       3.0       0.8       2.4      11.6      31.0
 3 C  px              3.9       0.7       1.2       2.8       3.1       3.9
 3 C  py             13.4       9.7       6.1       1.4       7.3      10.5
 3 C  dz2             0.5       1.5       0.6       0.1       0.0       0.0
 3 C  dxz             0.2       0.0       0.0       1.1       0.0       0.1
 3 C  dyz             1.0       0.5       0.0       0.0       0.6       0.3
 3 C  dx2y2           0.0       0.2       0.1       0.0       0.0       0.0
 3 C  dxy             0.7       0.2       0.1       0.5       0.1       0.4
 4 Cl s               0.2       0.0       0.9       0.0       1.4       1.1
 4 Cl pz              0.1       0.2       0.1       0.5       0.2       0.4
 4 Cl px              0.3       0.2       2.2       0.8       0.8       0.3
 4 Cl py              1.0       0.0       0.0       1.3       1.6       1.2
 4 Cl dz2             0.1       0.0       3.4       3.6       1.1       0.0
 4 Cl dxz             0.1       2.1       0.1       0.0       0.5       1.3
 4 Cl dyz             0.0       0.8       0.2       0.6       0.0       5.4
 4 Cl dx2y2           1.4       3.5       0.1       1.5       3.1       0.0
 4 Cl dxy             0.0       2.6       0.0       2.5       0.0       2.0
 5 H  s               0.2       1.8       2.7       9.6       0.1       2.8
 5 H  pz              0.2       0.4       1.0       2.2       0.3       0.4
 5 H  px              0.1       0.0       0.0       0.1       1.2       0.0
 5 H  py              0.2       0.1       0.4       0.0       0.2       0.7
 6 H  s               4.3       0.5       2.2       1.5       1.0       4.4
 6 H  pz              0.4       0.0       0.5       0.4       0.0       0.0
 6 H  px              0.3       0.3       0.9       0.0       0.5       1.7
 6 H  py              0.4       0.0       0.3       2.4       0.1       0.2
 7 H  s               7.3       0.4       8.4       1.4       0.1       0.7
 7 H  pz              1.0       0.7       0.1       0.2       0.0       0.1
 7 H  px              0.9       0.2       0.3       0.3       0.3       0.0
 7 H  py              0.2       0.0       2.2       0.0       0.0       0.5
 8 H  s               0.5       7.1       8.5       0.3       0.9       0.1
 8 H  pz              0.7       2.0       1.1       0.0       0.1       0.0
 8 H  px              0.1       0.0       0.0       0.0       0.3       0.1
 8 H  py              0.6       0.0       0.9       0.0       0.0       0.0
 9 H  s               4.0       9.2       0.4       1.7       1.2       1.0
 9 H  pz              0.5       2.7       0.2       0.4       0.1       0.7
 9 H  px              0.0       0.1       0.2       0.9       0.1       0.0
 9 H  py              0.1       0.1       0.1       0.1       0.1       0.0
10 H  s               7.2       7.4       0.0       0.8       0.4       0.9
10 H  pz              0.7       0.3       0.0       0.4       0.3       0.2
10 H  px              1.2       0.7       0.0       0.2       0.1       0.0
10 H  py              1.7       1.5       0.1       0.2       0.4       0.1

                     42        43        44        45        46        47   
                   0.24734   0.25932   0.26885   0.28487   0.29816   0.32237
                   0.00000   0.00000   0.00000   0.00000   0.00000   0.00000
                  --------  --------  --------  --------  --------  --------
 0 C  s               2.0       0.3       1.0       0.1       0.4       0.8
 0 C  pz              0.9       2.4       7.9      13.2       0.9       3.2
 0 C  px              3.0       7.5       1.3       5.6       3.7       3.1
 0 C  py              4.3       1.0       1.5       0.6       4.1       7.7
 0 C  dz2             0.2       0.5       0.8       0.1       0.0       0.0
 0 C  dxz             0.2       0.0       0.2       0.6       0.0       0.1
 0 C  dyz             0.6       0.9       0.1       0.5       0.0       0.2
 0 C  dx2y2           0.2       0.0       0.5       0.1       0.0       0.0
 0 C  dxy             0.0       0.0       0.0       0.3       0.2       0.0
 1 C  s               0.6       0.1       3.6       0.4       1.3       2.3
 1 C  pz              0.8      36.3       6.4       1.7       3.8       0.2
 1 C  px              9.1       0.5       1.1       0.9       3.8       1.4
 1 C  py             21.3       0.5       0.6       0.7       0.2       1.4
 1 C  dz2             0.0       0.1       0.0       0.8       0.4       0.0
 1 C  dxz             0.1       0.1       1.0       0.3       0.0       0.2
 1 C  dyz             0.5       0.6       0.0       0.2       0.0       0.5
 1 C  dx2y2           0.0       0.0       0.5       0.3       0.1       0.2
 1 C  dxy             0.2       0.3       0.2       0.0       0.4       1.0
 2 Cl s               2.7       0.2       1.9       0.1       0.9       1.1
 2 Cl pz              0.6       1.1       5.2       0.6       0.1       2.3
 2 Cl px              1.2       0.3       9.1       0.0       6.0      16.6
 2 Cl py              0.4       1.5       0.5       0.1       0.3       0.0
 2 Cl dz2             3.1       0.0       0.2       7.6       2.6       0.3
 2 Cl dxz             0.8       4.5       1.3       5.4       1.6       0.2
 2 Cl dyz             0.6       0.1       0.3       4.0       0.3       0.0
 2 Cl dx2y2           0.6       0.3       0.4       0.0       0.3       2.9
 2 Cl dxy             1.3       0.2       7.7       0.2       1.3       8.9
 3 C  s               0.5       0.4       1.0       3.5      11.5       0.0
 3 C  pz             10.3       2.8       0.7       1.1       1.9       0.3
 3 C  px              3.0       1.7      11.1       5.2       0.3       0.7
 3 C  py              0.7       3.9      10.5       3.5       0.6       7.2
 3 C  dz2             0.1       0.8       0.7       0.1       0.0       0.4
 3 C  dxz             0.0       0.1       0.0       0.4       0.1       0.0
 3 C  dyz             0.0       0.1       0.0       0.1       1.2       0.1
 3 C  dx2y2           0.2       0.8       0.0       0.5       0.3       0.5
 3 C  dxy             0.1       0.0       0.1       0.5       0.4       0.0
 4 Cl s               0.9       0.1       0.0       0.6       4.3       0.5
 4 Cl pz              1.3       1.5       0.1       1.6       7.3       1.7
 4 Cl px              0.1       0.8       0.1       8.0      10.2       8.3
 4 Cl py              0.7       0.1       0.7       0.8       8.0       1.3
 4 Cl dz2             0.4       1.6       1.1       0.1       0.0       8.6
 4 Cl dxz             1.4       0.2       4.0       0.0       1.9       1.4
 4 Cl dyz             0.0       1.9       0.0       2.1       1.6       1.6
 4 Cl dx2y2           0.4       0.1       0.1      14.9       1.2       2.9
 4 Cl dxy             0.1       3.2       3.1       1.8       1.2       0.1
 5 H  s               0.6       6.9       2.2       0.4       0.1       0.1
 5 H  pz              0.3       0.6       0.1       0.1       0.1       0.2
 5 H  px              0.6       0.0       0.0       0.3       0.1       0.1
 5 H  py              0.1       1.1       0.0       0.1       0.0       0.1
 6 H  s               8.1       1.4       0.3       2.9       0.0       1.3
 6 H  pz              1.5       0.1       0.7       0.0       0.0       0.0
 6 H  py              1.2       0.2       0.0       0.2       0.0       0.0
 7 H  s               1.6       1.4       3.2       0.4       0.2       2.1
 7 H  pz              0.0       0.3       0.0       0.0       0.6       1.0
 7 H  px              0.1       0.0       0.3       0.6       0.0       0.4
 7 H  py              0.1       0.1       0.0       0.1       0.0       0.2
 8 H  s               0.7       1.9       2.1       1.3       2.3       0.6
 8 H  pz              0.2       0.8       0.6       0.1       0.2       0.2
 8 H  px              0.0       0.0       0.6       0.3       0.0       0.4
 8 H  py              0.8       0.0       0.1       0.0       0.0       0.1
 9 H  s               1.2       4.2       0.7       0.0       5.6       0.5
 9 H  pz              0.4       0.3       0.0       0.0       0.9       0.0
 9 H  px              0.0       0.0       0.1       0.1       0.0       0.1
 9 H  py              0.4       0.0       0.7       0.3       1.1       0.4
10 H  s               4.9       0.3       1.6       2.9       2.2       1.4
10 H  pz              0.0       0.3       0.0       0.3       0.6       0.0
10 H  px              0.3       0.1       0.0       0.0       0.8       0.2
10 H  py              1.2       0.6       0.1       0.1       0.2       0.2

                     48        49        50        51        52        53   
                   0.35669   0.36939   0.37416   0.38333   0.39591   0.42158
                   0.00000   0.00000   0.00000   0.00000   0.00000   0.00000
                  --------  --------  --------  --------  --------  --------
 0 C  s               5.1       0.2       5.2       2.0       0.1       0.3
 0 C  pz              2.7       0.2       0.1       0.9       0.1       0.3
 0 C  px              0.3       2.9       0.1       0.5       0.6       2.6
 0 C  py              3.2       0.8       0.3       0.2       0.3       1.3
 0 C  dz2             0.0       0.0       0.0       0.0       0.2       0.0
 0 C  dxz             0.0       0.1       0.1       0.0       0.0       0.0
 0 C  dyz             0.1       0.1       0.1       0.0       0.0       0.0
 0 C  dx2y2           0.0       0.0       0.1       0.2       0.1       0.2
 0 C  dxy             0.2       0.0       0.0       0.0       0.1       0.0
 1 C  s               0.6       2.4       1.7       0.5       1.1       0.2
 1 C  pz              0.2       0.1       0.4       1.0       0.2       0.0
 1 C  px              1.4       0.1       0.2       0.3       0.5       0.5
 1 C  py              3.6       0.0       0.9       0.3       1.2       0.7
 1 C  dz2             0.1       0.0       0.0       0.0       0.0       0.0
 1 C  dxz             0.2       0.1       0.1       0.0       0.0       0.1
 1 C  dx2y2           0.0       0.0       0.1       0.1       0.0       0.0
[...]
 4 Cl dxy             0.0       0.1       0.2       0.1       0.1       0.0
 5 H  s               0.1       0.0       0.6       0.0       2.1       0.4
 5 H  pz              0.1       0.4       3.4       0.2       9.1       0.9
 5 H  px              1.5       0.3       0.3       0.3       0.5       0.5
 5 H  py             11.6       0.8       1.1       0.7       0.9       0.1
 6 H  s               0.1       0.3       0.3       0.1       1.1       1.0
 6 H  pz              2.3       0.1       0.3       0.2       3.1       1.3
 6 H  px              3.2       0.7       0.7       0.5       1.4       0.0
 6 H  py              7.6       0.3       2.6       0.1       2.1       2.0
 7 H  s               0.0       0.2       0.1       0.8       1.6       1.8
 7 H  pz              0.3       0.5       0.6       2.7       5.4       2.5
 7 H  px              0.5       2.8       1.5       0.2       1.0       1.6
 7 H  py              0.6       5.4       0.6       3.3       3.6       1.6
 8 H  s               0.1       0.2       0.0       0.7       2.4       0.1
 8 H  pz              0.6       2.0       0.3       4.3      10.6       1.1
 8 H  px              0.6       3.0       1.4       1.1       0.7       0.1
 8 H  py              2.6       4.0       0.3       0.9       1.0       0.1
 9 H  s               0.0       0.2       0.4       1.0       2.1       2.4
 9 H  pz              1.8       1.8       0.5       6.7       6.8       5.8
 9 H  px              0.5       0.3       0.0       0.1       0.0       0.5
 9 H  py              1.5       0.0       3.5       1.9       3.3       2.0
10 H  s               0.2       0.1       0.0       1.6       0.8       0.8
10 H  pz              4.0       0.3       1.9       0.0       0.1       0.3
10 H  px              5.3       0.3       0.5       3.7       2.4       0.5
10 H  py              0.9       0.8       0.5       7.0       2.9       3.3

                    132       133       134       135       136       137   
                   3.54978   3.56662   3.58678   3.62397  21.77670  21.88217
                   0.00000   0.00000   0.00000   0.00000   0.00000   0.00000
                  --------  --------  --------  --------  --------  --------
 0 C  s               2.0       0.3       1.2       0.4      11.5       0.3
 0 C  pz              1.6       4.1       0.1       7.5       0.0       0.0
 0 C  px              0.4       0.2       0.5       0.2       0.0       0.0
 0 C  py              5.0       3.3       2.6       0.0       0.0       0.0
 0 C  dz2             5.2       0.0       0.7       8.4       0.0       0.0
 0 C  dxz             2.0       0.6       3.3       0.0       0.0       0.0
 0 C  dyz             0.1       5.3       0.8       8.5       0.0       0.0
 0 C  dx2y2           1.9       0.1       0.1       0.0       0.0       0.0
 0 C  dxy             1.6       5.9       2.4       1.1       0.0       0.0
 1 C  s               0.9       0.5       0.2       0.0      42.2      53.8
 1 C  pz              0.9       4.3       5.6       0.6       0.0       0.0
 1 C  px              0.1       2.1       0.4       0.4       0.0       0.0
 1 C  py              2.6       0.7       2.5       0.0       0.0       0.0
 1 C  dz2             3.8       5.6       0.7       1.4       0.0       0.0
 1 C  dxz             0.5       0.0       1.1       0.0       0.0       0.0
 1 C  dyz             0.6       4.6      10.6       1.3       0.0       0.0
 1 C  dx2y2           0.0       0.2       0.2       0.0       0.0       0.0
 1 C  dxy             1.2       0.1       6.3       0.1       0.0       0.0
 2 Cl s               0.2       0.0       0.0       0.0       0.0       0.0
 2 Cl pz              0.0       0.1       0.1       0.0       0.0       0.0
 2 Cl px              0.8       0.0       0.0       0.0       0.0       0.0
 3 C  s               0.4       0.3       0.1       0.2      45.8      45.5
 3 C  pz              0.1       0.2       1.1       1.8       0.0       0.0
 3 C  px              4.1       0.8       0.2       0.1       0.0       0.0
 3 C  py              3.4       1.7       1.4       2.6       0.0       0.0
 3 C  dz2             2.8       1.4       4.0       5.9       0.0       0.0
 3 C  dxz             0.4       0.1       0.3       0.5       0.0       0.0
 3 C  dyz             1.9       0.1       0.8       3.2       0.0       0.0
 3 C  dx2y2           3.0       0.5       0.3       0.0       0.0       0.0
 3 C  dxy             4.8       3.3       0.3       0.5       0.0       0.0
 4 Cl s               0.0       0.1       0.0       0.0       0.1       0.1
 4 Cl px              0.1       0.2       0.0       0.0       0.0       0.0
 5 H  s               2.6       1.1       0.2       6.6       0.0       0.0
 5 H  pz              7.8       1.3       0.8      13.7       0.0       0.0
 5 H  px              0.5       0.0       0.0       0.1       0.0       0.0
 5 H  py              0.2       0.8       0.0       3.5       0.0       0.0
 6 H  s               0.8       5.2       2.0       2.7       0.0       0.0
 6 H  pz              2.7       2.8       2.8       1.2       0.0       0.0
 6 H  px              0.7       4.3       0.5       1.7       0.0       0.0
 6 H  py              0.3       6.5       3.4       2.9       0.0       0.0
 7 H  s               0.2       1.3       6.8       0.4       0.0       0.0
 7 H  pz              0.8       0.6       5.3       0.6       0.0       0.0
 7 H  px              0.1       0.4       3.6       0.0       0.0       0.0
 7 H  py              0.2       2.3       8.8       0.8       0.0       0.0
 8 H  s               1.9       4.2       2.7       0.7       0.0       0.0
 8 H  pz              5.3       9.3       4.4       1.6       0.0       0.0
 8 H  px              0.5       0.0       0.2       0.0       0.0       0.0
 8 H  py              0.4       1.4       1.6       0.4       0.0       0.0
 9 H  s               1.5       0.5       1.8       3.6       0.0       0.0
 9 H  pz              3.4       0.8       3.5       8.4       0.0       0.0
 9 H  py              0.1       0.1       0.7       1.1       0.0       0.0
10 H  s               5.0       2.6       0.7       1.6       0.0       0.0
10 H  pz              0.0       0.3       0.1       0.0       0.0       0.0
10 H  px              2.3       1.6       0.9       1.6       0.0       0.0
10 H  py              9.5       5.7       0.9       2.0       0.0       0.0

                    138       139       140   
                  21.97579  25.08411  25.15804
                   0.00000   0.00000   0.00000
                  --------  --------  --------
 0 C  s              87.8       0.1       0.0
 1 C  s               3.7       0.3       0.1
 2 Cl s               0.1      55.1      44.2
 3 C  s               8.2       0.1       0.6
 4 Cl s               0.0      44.2      54.9


                      *****************************
                      * MAYER POPULATION ANALYSIS *
                      *****************************

  NA   - Mulliken gross atomic population
  ZA   - Total nuclear charge
  QA   - Mulliken gross atomic charge
  VA   - Mayer's total valence
  BVA  - Mayer's bonded valence
  FA   - Mayer's free valence

  ATOM       NA         ZA         QA         VA         BVA        FA
  0 C      6.2789     6.0000    -0.2789     3.7209     3.7209     0.0000
  1 C      6.1760     6.0000    -0.1760     3.7629     3.7629    -0.0000
  2 Cl    17.2393    17.0000    -0.2393     0.9945     0.9945     0.0000
  3 C      6.1772     6.0000    -0.1772     3.7550     3.7550    -0.0000
  4 Cl    17.2502    17.0000    -0.2502     0.9881     0.9881     0.0000
  5 H      0.8211     1.0000     0.1789     0.9545     0.9545     0.0000
  6 H      0.8203     1.0000     0.1797     0.9540     0.9540     0.0000
  7 H      0.8122     1.0000     0.1878     0.9466     0.9466     0.0000
  8 H      0.8101     1.0000     0.1899     0.9441     0.9441    -0.0000
  9 H      0.8135     1.0000     0.1865     0.9497     0.9497     0.0000
 10 H      0.8011     1.0000     0.1989     0.9418     0.9418     0.0000

  Mayer bond orders larger than 0.100000
B(  0-C ,  1-C ) :   0.9348 B(  0-C ,  3-C ) :   0.9203 B(  0-C ,  5-H ) :   0.9623 
B(  0-C ,  6-H ) :   0.9415 B(  1-C ,  2-Cl) :   0.9442 B(  1-C ,  7-H ) :   0.9489 
B(  1-C ,  8-H ) :   0.9501 B(  3-C ,  4-Cl) :   0.9310 B(  3-C ,  9-H ) :   0.9555 
B(  3-C , 10-H ) :   0.9458 

-------
TIMINGS
-------

Total SCF time: 0 days 0 hours 0 min 18 sec 

Total time                  ....      18.538 sec
Sum of individual times     ....      16.288 sec  ( 87.9%)

SCF preparation             ....       0.323 sec  (  1.7%)
Fock matrix formation       ....      14.638 sec  ( 79.0%)
  Startup                   ....       0.073 sec  (  0.5% of F)
  Split-RI-J                ....       1.601 sec  ( 10.9% of F)
  XC integration            ....      10.249 sec  ( 70.0% of F)
    XC Preparation          ....       0.000 sec  (  0.0% of XC)
    Basis function eval.    ....       1.689 sec  ( 16.5% of XC)
    Density eval.           ....       2.108 sec  ( 20.6% of XC)
    XC-Functional eval.     ....       1.557 sec  ( 15.2% of XC)
    XC-Potential eval.      ....       2.618 sec  ( 25.5% of XC)
  CPCM terms                ....       2.072 sec  ( 14.2% of F)
Diagonalization             ....       0.000 sec  (  0.0%)
Density matrix formation    ....       0.272 sec  (  1.5%)
Total Energy calculation    ....       0.049 sec  (  0.3%)
Population analysis         ....       0.065 sec  (  0.4%)
Orbital Transformation      ....       0.048 sec  (  0.3%)
Orbital Orthonormalization  ....       0.000 sec  (  0.0%)
DIIS solution               ....       0.775 sec  (  4.2%)
  MO trafo                  ....       0.000 sec  (  0.0 % of DIIS)
  Orb grad                  ....       0.000 sec  (  0.0 % of DIIS)
  Energy W gradient         ....       0.000 sec  (  0.0 % of DIIS)
  DIIS error                ....       0.004 sec  (  0.5 % of DIIS)
  DIIS work                 ....       0.724 sec  ( 93.4 % of DIIS)
  Form Q                    ....       0.000 sec  (  0.0 % of DIIS)
  Form QpQm                 ....       0.000 sec  (  0.0 % of DIIS)
  Exp/Cayley                ....       0.000 sec  (  0.0 % of DIIS)
  Orb update                ....       0.000 sec  (  0.0 % of DIIS)
  Wake-sleep                ....       0.023 sec  (  3.0 % of DIIS)
SOSCF solution              ....       0.117 sec  (  0.6%)
  MO trafo                  ....       0.048 sec  ( 41.0 % of SOSCF)
  Orb grad                  ....       0.002 sec  (  1.6 % of SOSCF)
  Rot update                ....       0.041 sec  ( 34.9 % of SOSCF)
  Step                      ....       0.026 sec  ( 22.4 % of SOSCF)
Finished LeanSCF after  18.8 sec

Maximum memory used throughout the entire LEANSCF-calculation: 16.3 MB


-------------------------------------------------------------------------------
                          DFT DISPERSION CORRECTION                            
                                                                               
                                DFTD4 V3.4.0                                   
-------------------------------------------------------------------------------
The R2SCAN3C composite method is recognized
Using three-body term ABC
Active option DFTDOPT                   ...         5   

-------------------------   ----------------
Dispersion correction           -0.002853935
-------------------------   ----------------

------------------   -----------------
gCP correction             0.009871964
------------------   -----------------

-------------------------   --------------------
FINAL SINGLE POINT ENERGY     -1038.254726896665
-------------------------   --------------------


------------------------------------------------------------------------------
                              ORCA PROPERTY CALCULATIONS
------------------------------------------------------------------------------

GBWName                                 ... sp_solv.gbw
Number of atoms                         ...     11
Number of basis functions               ...    141
Max core memory                         ...   1024 MB

Electric properties:
Dipole moment                           ... YES
Quadrupole moment                       ...  NO
Static polarizability (Dipole/Dipole)   ...  NO
Static polarizability (Dipole/Quad.)    ...  NO
Static polarizability (Quad./Quad.)     ...  NO
Static polarizability (Velocity)        ...  NO

Atomic electric properties:
Dipole moment                           ...  NO
Quadrupole moment                       ...  NO
Static polarizability                   ...  NO

Choice of electric origin               ... Center of mass
Position of electric origin             ...     0.000003     0.000008     0.000009

General magnetic properties:
Magnetizability                         ...  NO

EPR properties:
g-Tensor (aka g-matrix)                 ...  NO
Zero-Field splitting spin-orbit         ...  NO
Zero-field splitting spin-spin          ...  NO
Hyperfine couplings                     ...  NO (   0 nuclei)
Quadrupole couplings                    ...  NO (   0 nuclei)
Contact density                         ...  NO (   0 nuclei)

NMR properties:
Chemical shifts                         ...  NO (   0 nuclei)
Spin-rotation constants                 ...  NO (   0 nuclei)
Spin-spin couplings                     ...  NO (   0 nuclei,    0 pairs)

Choice of magnetic origin               ... GIAO
Position of magnetic origin             ...     0.000000     0.000000     0.000000

Properties with geometric perturbations:
SCF Hessian                             ...  NO
IR spectrum                             ...  NO
VCD spectrum                            ...  NO
X-ray spectroscopy properties:
SCF XES/XAS/RIXS spectra                ...  NO


-------------
DIPOLE MOMENT
-------------

Method             : SCF
Type of density    : Electron Density
Multiplicity       :   1
Irrep              :   0
Energy             : -1038.2617449257716089 Eh
Relativity type    : 
Basis              : AO
                                X                 Y                 Z
Electronic contribution:     -1.059844077      -2.747666569      -3.386329982
Nuclear contribution   :      1.424245531       3.310303441       4.388294210
                        -----------------------------------------
Total Dipole Moment    :      0.364401455       0.562636873       1.001964228
                        -----------------------------------------
Magnitude (a.u.)       :      1.205521043
Magnitude (Debye)      :      3.064190976



--------------------
Rotational spectrum 
--------------------
 
Rotational constants in cm-1:             0.308663             0.036445             0.034088 
Rotational constants in MHz :          9253.482664          1092.600258          1021.942910 

Dipole components along the rotational axes: 
x,y,z [a.u.] :     0.433618    -1.033734     0.443453 
x,y,z [Debye]:     1.102169    -2.627543     1.127169 

 

Dipole moment calculation done in   0.0 sec 

Maximum memory used throughout the entire PROP-calculation: 8.1 MB

--------------------------------
SUGGESTED CITATIONS FOR THIS RUN
--------------------------------

Below you find a list of papers that are relevant to this ORCA run
We neither can nor want to force you to cite these papers, but we appreciate if you do
You receive ORCA, which is the product of decades of hard work by many enthusiastic individuals, for free
The only thing we kindly ask in return is that you cite our papers,
We deeply appreciate it, if you show your appreciation for ORCA by not just citing the generic ORCA reference.

Please note that relegating all ORCA citations to the supporting information does *not* help us.
SI sections are not indexed - citations you put there will not count into any citation statistics
But we need these citations in order to attract the funding resources that allow us to do what we are doing

Therefore, if you are a happy ORCA user, please consider citing a few of the papers listed below in the main body of your paper

In addition to the list printed below, the program has created the file sp_solv.bibtex that contains the list in bibtex format
You can import this file easily into all common literature databanks and citation aid programs


List of essential papers. We consider these as the minimum necessary citations

  1. Neese,F.
     Software update: the ORCA program system, version 5.0
     WIRES Comput. Molec. Sci., 2022 12(1)e1606
     doi.org/10.1002/wcms.1606
  2. Grimme,S.; Hansen,A.; Ehlert,S.; Mewes,J.
     r2SCAN-3c: A 'Swiss army knife' composite electronic-structure method
     J. Chem. Phys., 2021 154 064103
     doi.org/10.1063/5.0040021

List of papers to cite with high priority. The work reported in these papers was absolutely
necessary for this run to complete.
Our perspective: the developers of density functionals and basis sets usually get cited in chemistry papers
Good! But without the algorithms to do something with them, the functionals or basis sets would not do anything.
Hence, in our opinion, the algorithm design and method developments papers are equally worthy of getting cited

  1. Neese,F.
     An improvement of the resolution of the identity approximation for the formation of the Coulomb matrix
     J. Comp. Chem., 2003 24(14)1740-1747
     doi.org/10.1002/jcc.10318
  2. Garcia-Rates,M.; Neese,F.
     Effect of the Solute Cavity on the Solvation Energy and its Derivatives within the Framework of the Gaussian Charge Scheme
     J. Comput. Chem., 2020 41 922-939
     doi.org/10.1002/jcc.26139
  3. Neese,F.
     The SHARK Integral Generation and Digestion System
     J. Comp. Chem., 2022  1-16
     doi.org/10.1002/jcc.26942
  4. Lehtola,S.; Steigemann,C.; Oliveira,M.; Marques,M.
     Recent developments in Libxc - A comprehensive library of functionals for density functional theory
     Software X, 2018 7 
     doi.org/10.1016/j.softx.2017.11.002
  5. Caldeweyher,E.; Bannwarth,C.; Grimme,S.
     Extension of the D3 dispersion coefficient model
     J. Chem. Phys., 2017 147 034112-XXXX
     doi.org/10.1063/1.4993215
  6. Caldeweyher,E.; Ehlert,S.; Hansen,A.; Neugebauer,H.; Spicher,S.; Bannwarth,C.; Grimme,S.
     A generally applicable atomic-charge dependent London dispersion correction
     J. Chem. Phys., 2019 150 154122-XXXX
     doi.org/10.1063/1.5090222
  7. Caldeweyher,E.; Mewes,J.; Ehlert,S.; Grimme,S.
     Extension and evaluation of the D4 London-dispersion model for periodic systems
     Phys. Chem. Chem. Phys., 2020 22(16)8499-8512
     doi.org/10.1039/D0CP00502A

List of suggested additional citations. These are papers that are important in the 'surrounding' of 
of this run, or papers that preceded the highly important papers. If you like your results we are grateful for a citation.

  1. Neese,F.
     The ORCA program system
     WIRES Comput. Molec. Sci., 2012 2(1)73-78
     doi.org/10.1002/wcms.81
  2. Neese,F.
     Software update: the ORCA program system, version 4.0
     WIRES Comput. Molec. Sci., 2018 8(1)1-6
     doi.org/10.1002/wcms.1327
  3. Neese,F.; Wennmohs,F.; Becker,U.; Riplinger,C.
     The ORCA quantum chemistry program package
     J. Chem. Phys., 2020 152 Art. No. L224108
     doi.org/10.1063/5.0004608

List of optional additional citations

  1. Neese,F.
     Approximate second-order SCF convergence for spin unrestricted wavefunctions
     Chem. Phys. Lett., 2000 325(1-3)93-98
     doi.org/10.1016/s0009-2614(00)00662-x

Timings for individual modules:

Sum of individual times          ...       20.299 sec (=   0.338 min)
Startup calculation              ...        1.050 sec (=   0.018 min)   5.2 %
SCF iterations                   ...       19.142 sec (=   0.319 min)  94.3 %
Property calculations            ...        0.107 sec (=   0.002 min)   0.5 %
                             ****ORCA TERMINATED NORMALLY****
TOTAL RUN TIME: 0 days 0 hours 0 minutes 21 seconds 238 msec
