 Entering Gaussian System
 *********************************************
 Gaussian 98:
 frequency output generated by the xtb code
 *********************************************
                         Standard orientation:
 --------------------------------------------------------------------
  Center     Atomic     Atomic              Coordinates (Angstroms)
  Number     Number      Type              X           Y           Z
 --------------------------------------------------------------------
    1          6             0       -2.146835   -1.401967    0.459892
    2          6             0       -2.060553   -0.411007   -0.694449
    3          6             0       -1.475729    0.933933   -0.245745
    4          6             0       -0.047230    0.784040    0.211191
    5          8             0        0.353767    1.043681    1.327280
    6          8             0        0.734874    0.343769   -0.766212
    7          6             0        2.123826    0.114502   -0.481697
    8          6             0        2.344138   -1.275919    0.094786
    9          1             0       -2.560169   -2.347457    0.119171
   10          1             0       -1.160680   -1.588421    0.881063
   11          1             0       -2.781978   -1.011316    1.251521
   12          1             0       -3.057864   -0.237250   -1.099737
   13          1             0       -1.434756   -0.820318   -1.488529
   14          1             0       -2.053742    1.349152    0.579792
   15          1             0       -1.485911    1.631129   -1.084322
   16          1             0        2.623582    0.228702   -1.444029
   17          1             0        2.468208    0.880679    0.219718
   18          1             0        1.946683   -2.029190   -0.580205
   19          1             0        3.407040   -1.443885    0.233840
   20          1             0        1.845439   -1.363142    1.057858
 --------------------------------------------------------------------
     1 basis functions        1 primitive gaussians
     1 alpha electrons        1 beta electrons
 
 Harmonic frequencies (cm**-1), IR intensities (km*mol⁻¹),
 Raman scattering activities (A**4/amu), Raman depolarization ratios,
 reduced masses (AMU), force constants (mDyne/A) and normal coordinates:
                      1                      2                      3
                        a                      a                      a 
 Frequencies --    24.8957                53.7983                70.9520
 Red. masses --     9.7108                10.4094                10.5300
 Frc consts  --     0.0000                 0.0000                 0.0000
 IR Inten    --     1.2193                 3.2116                 0.2757
 Raman Activ --     0.0000                 0.0000                 0.0000
 Depolar     --     0.0000                 0.0000                 0.0000
 Atom AN      X      Y      Z        X      Y      Z        X      Y      Z
   1   6    -0.22   0.21   0.34    -0.30   0.07  -0.00    -0.46   0.01  -0.09
   2   6     0.04  -0.15   0.05    -0.11   0.07   0.01    -0.06   0.01  -0.06
   3   6     0.06  -0.04  -0.26     0.05  -0.01   0.05    -0.01  -0.07   0.10
   4   6    -0.01  -0.05  -0.06     0.06  -0.17  -0.03     0.01  -0.04   0.08
   5   8    -0.23  -0.33   0.08     0.12  -0.49   0.01     0.08   0.33  -0.02
   6   8     0.19   0.22  -0.03     0.02   0.03  -0.17    -0.05  -0.34   0.18
   7   6     0.12   0.15   0.14     0.05   0.09  -0.24     0.03   0.04   0.03
   8   6     0.06  -0.03  -0.27     0.13   0.34   0.34     0.46   0.02  -0.17
   9   1    -0.06   0.04   0.16    -0.11   0.04  -0.01    -0.12   0.01  -0.06
  10   1    -0.09   0.09   0.17    -0.10  -0.02   0.02    -0.17  -0.01   0.06
  11   1    -0.10   0.14   0.03    -0.09   0.04  -0.01    -0.19   0.01  -0.08
  12   1     0.04  -0.06  -0.05    -0.02   0.06  -0.01     0.02   0.04  -0.08
  13   1     0.04  -0.12   0.08    -0.04  -0.00   0.01     0.02  -0.02   0.02
  14   1    -0.01   0.06  -0.13     0.04  -0.00   0.03    -0.00  -0.04   0.04
  15   1     0.06  -0.08  -0.14     0.02   0.01   0.02     0.00   0.01   0.05
  16   1     0.08   0.14   0.08    -0.03  -0.09  -0.10    -0.02   0.09   0.00
  17   1    -0.01  -0.02   0.13     0.05   0.11  -0.18    -0.04   0.01   0.03
  18   1     0.06   0.05  -0.17     0.01   0.01   0.21     0.19  -0.00  -0.08
  19   1     0.01  -0.01  -0.04     0.05   0.12   0.07     0.15   0.09  -0.07
  20   1    -0.03  -0.11  -0.11     0.08   0.22   0.13     0.15  -0.08  -0.05
                      4                      5                      6
                        a                      a                      a 
 Frequencies --   110.2207               176.5772               201.7515
 Red. masses --     7.7653                 6.9466                 2.8257
 Frc consts  --     0.0000                 0.0000                 0.0000
 IR Inten    --     1.9042                 2.9000                 2.3356
 Raman Activ --     0.0000                 0.0000                 0.0000
 Depolar     --     0.0000                 0.0000                 0.0000
 Atom AN      X      Y      Z        X      Y      Z        X      Y      Z
   1   6    -0.28  -0.12  -0.01    -0.23  -0.23  -0.04    -0.08  -0.05  -0.02
   2   6     0.31  -0.20  -0.03    -0.21  -0.06   0.11     0.02  -0.08  -0.04
   3   6     0.03  -0.13   0.17     0.04  -0.15   0.08     0.04  -0.07  -0.10
   4   6     0.09   0.11   0.05     0.12   0.01  -0.10     0.00   0.04   0.08
   5   8     0.20   0.16   0.01     0.17   0.15  -0.15    -0.13   0.13   0.12
   6   8     0.04   0.27  -0.06     0.22   0.19  -0.13     0.07   0.10   0.13
   7   6     0.00  -0.01  -0.11     0.13   0.10   0.15     0.08  -0.01  -0.05
   8   6    -0.32  -0.02  -0.00    -0.16   0.01   0.04     0.01  -0.03  -0.06
   9   1     0.08  -0.08  -0.07    -0.35   0.05   0.00    -0.27   0.08   0.05
  10   1    -0.16   0.07   0.23    -0.03  -0.32  -0.21     0.00  -0.22  -0.15
  11   1    -0.30  -0.07  -0.16     0.17   0.03   0.13     0.18   0.11   0.09
  12   1     0.15  -0.08  -0.17    -0.07   0.06   0.09     0.01  -0.01  -0.02
  13   1     0.22  -0.06   0.09    -0.13  -0.02  -0.02    -0.00  -0.05  -0.01
  14   1    -0.01  -0.11   0.07     0.05  -0.04   0.05    -0.02   0.01  -0.07
  15   1    -0.04  -0.00   0.08    -0.03  -0.04   0.03     0.04  -0.05  -0.05
  16   1    -0.01  -0.06  -0.04     0.11   0.06   0.08    -0.03  -0.04  -0.05
  17   1     0.06  -0.01  -0.05    -0.00  -0.00   0.10     0.09  -0.00  -0.05
  18   1    -0.17   0.01   0.03     0.09   0.03  -0.10    -0.41   0.03   0.18
  19   1    -0.10  -0.09  -0.02    -0.07   0.01   0.20     0.03  -0.20  -0.45
  20   1    -0.08   0.06   0.01    -0.22  -0.05  -0.08     0.37   0.13   0.19
                      7                      8                      9
                        a                      a                      a 
 Frequencies --   240.1826               300.0838               367.5516
 Red. masses --     5.4033                 8.8093                 9.7203
 Frc consts  --     0.0000                 0.0000                 0.0000
 IR Inten    --     0.8680                14.5974                 4.0377
 Raman Activ --     0.0000                 0.0000                 0.0000
 Depolar     --     0.0000                 0.0000                 0.0000
 Atom AN      X      Y      Z        X      Y      Z        X      Y      Z
   1   6     0.03   0.12   0.02     0.06   0.16   0.03     0.02   0.01  -0.03
   2   6     0.37  -0.09  -0.13     0.19  -0.00  -0.09    -0.10  -0.03  -0.07
   3   6     0.02   0.02  -0.01    -0.09   0.01   0.15     0.24  -0.12  -0.21
   4   6    -0.04   0.03   0.15    -0.04  -0.08  -0.13     0.08  -0.21   0.22
   5   8    -0.02  -0.02   0.17     0.28  -0.18  -0.26     0.28   0.07   0.12
   6   8    -0.21  -0.06   0.09    -0.14  -0.22  -0.17    -0.09  -0.31   0.19
   7   6    -0.15  -0.06  -0.22    -0.18   0.19   0.35    -0.04   0.26  -0.03
   8   6    -0.03   0.04  -0.03    -0.08   0.08   0.03    -0.31   0.24  -0.11
   9   1    -0.31   0.14   0.11    -0.09   0.07   0.07     0.07  -0.03   0.00
  10   1     0.02  -0.23  -0.13     0.02  -0.03  -0.03     0.01   0.07   0.01
  11   1     0.24   0.25   0.09     0.09   0.14   0.02    -0.03  -0.02  -0.02
  12   1     0.15  -0.07  -0.16     0.08  -0.05  -0.11    -0.05   0.05   0.05
  13   1     0.21  -0.04   0.05     0.14   0.01   0.03    -0.11  -0.05  -0.06
  14   1    -0.06  -0.02  -0.04    -0.01  -0.10   0.11    -0.00   0.11  -0.19
  15   1     0.03   0.01  -0.00    -0.09   0.09   0.11     0.25  -0.13  -0.14
  16   1    -0.10  -0.06  -0.10     0.07   0.18   0.18    -0.02   0.10  -0.01
  17   1     0.01   0.01  -0.12    -0.22   0.02   0.22    -0.05   0.08   0.00
  18   1     0.21  -0.05  -0.07    -0.16   0.08   0.02    -0.15   0.13  -0.06
  19   1    -0.02   0.13   0.21    -0.01  -0.04  -0.17    -0.12  -0.05   0.01
  20   1    -0.19  -0.02  -0.11     0.12  -0.01   0.08    -0.15   0.10  -0.06
                     10                     11                     12
                        a                      a                      a 
 Frequencies --   381.9978               460.0738               604.4933
 Red. masses --     8.1054                11.5258                11.2468
 Frc consts  --     0.0000                 0.0000                 0.0000
 IR Inten    --     2.7690                12.3613                12.2910
 Raman Activ --     0.0000                 0.0000                 0.0000
 Depolar     --     0.0000                 0.0000                 0.0000
 Atom AN      X      Y      Z        X      Y      Z        X      Y      Z
   1   6    -0.10  -0.36  -0.01    -0.01  -0.06   0.02     0.02   0.04  -0.01
   2   6     0.21   0.07   0.34     0.18   0.14   0.19     0.12   0.09   0.06
   3   6     0.10   0.35  -0.19     0.05   0.15   0.14     0.43  -0.19   0.12
   4   6    -0.01   0.21  -0.05     0.05  -0.08  -0.18     0.15  -0.31   0.03
   5   8     0.10  -0.12  -0.03    -0.48   0.01  -0.04    -0.34   0.21   0.09
   6   8    -0.16  -0.04  -0.06     0.17  -0.44   0.04    -0.08   0.12  -0.37
   7   6    -0.19  -0.02   0.08     0.28   0.14  -0.11    -0.31  -0.05  -0.01
   8   6     0.05  -0.01   0.02    -0.15   0.14  -0.08    -0.01  -0.01   0.02
   9   1    -0.06  -0.02  -0.20    -0.03   0.03  -0.08     0.01   0.02  -0.03
  10   1    -0.07  -0.23   0.03    -0.03  -0.09   0.03    -0.01  -0.01   0.03
  11   1    -0.07  -0.21   0.01    -0.02  -0.05   0.01    -0.02   0.01  -0.02
  12   1     0.07  -0.00   0.05     0.07   0.01   0.00     0.02   0.13   0.09
  13   1     0.09   0.02   0.12     0.10   0.06   0.08    -0.05   0.00  -0.04
  14   1    -0.00   0.28  -0.17     0.11  -0.01   0.14     0.15  -0.02   0.04
  15   1     0.09  -0.09  -0.21    -0.10   0.09   0.08     0.19  -0.03   0.05
  16   1    -0.02   0.03   0.05     0.06   0.04  -0.04     0.04   0.05   0.07
  17   1    -0.10  -0.01   0.05     0.05   0.06  -0.05    -0.18  -0.04   0.08
  18   1     0.02  -0.02   0.02    -0.13   0.10  -0.05     0.05  -0.07   0.05
  19   1     0.03   0.05  -0.05    -0.08  -0.13   0.05     0.03   0.13  -0.06
  20   1     0.06  -0.03   0.03    -0.13   0.12  -0.06     0.08  -0.04   0.04
                     13                     14                     15
                        a                      a                      a 
 Frequencies --   672.9760               796.3695               828.4686
 Red. masses --     9.7813                 4.9351                 3.3672
 Frc consts  --     0.0000                 0.0000                 0.0000
 IR Inten    --    20.8963                16.3459                21.3070
 Raman Activ --     0.0000                 0.0000                 0.0000
 Depolar     --     0.0000                 0.0000                 0.0000
 Atom AN      X      Y      Z        X      Y      Z        X      Y      Z
   1   6     0.03   0.02  -0.01     0.05   0.01   0.02     0.10  -0.02   0.01
   2   6     0.01   0.14   0.10     0.19   0.03   0.03     0.24  -0.01  -0.01
   3   6    -0.22   0.10   0.08     0.11  -0.03  -0.07    -0.11   0.07  -0.08
   4   6    -0.28  -0.64   0.15    -0.12  -0.14  -0.09    -0.17  -0.13   0.08
   5   8     0.06   0.16  -0.21     0.01  -0.04  -0.25     0.06   0.02  -0.05
   6   8     0.07   0.20  -0.03     0.03   0.09   0.24    -0.06   0.07   0.05
   7   6     0.14   0.01   0.02    -0.14   0.07   0.22     0.14  -0.04  -0.14
   8   6     0.03  -0.05   0.02    -0.04   0.05   0.04     0.05  -0.07  -0.04
   9   1     0.01   0.03  -0.06    -0.06   0.06  -0.06    -0.12   0.07  -0.04
  10   1     0.02  -0.02  -0.05    -0.08  -0.11   0.16    -0.13  -0.18   0.28
  11   1     0.03  -0.06   0.04    -0.07   0.07  -0.09    -0.12   0.17  -0.19
  12   1     0.06  -0.11  -0.17    -0.04   0.07   0.25    -0.09   0.01   0.37
  13   1     0.20   0.09   0.15    -0.15   0.01  -0.15    -0.22   0.08  -0.26
  14   1    -0.07   0.22  -0.09     0.05  -0.11   0.05    -0.10  -0.07  -0.02
  15   1     0.19  -0.06  -0.06    -0.03   0.07   0.05    -0.04   0.07   0.02
  16   1     0.00  -0.04  -0.02    -0.22  -0.34  -0.09     0.08   0.27   0.02
  17   1     0.08   0.01  -0.03     0.19   0.19  -0.25    -0.06  -0.16   0.17
  18   1     0.00   0.00  -0.01     0.02   0.18  -0.20    -0.02  -0.16   0.17
  19   1     0.00  -0.04   0.02     0.01   0.04  -0.12    -0.01  -0.06   0.12
  20   1    -0.00  -0.02  -0.00     0.04  -0.29   0.00    -0.04   0.26  -0.01
                     16                     17                     18
                        a                      a                      a 
 Frequencies --   873.0594               903.6082               929.6105
 Red. masses --     7.5603                 8.8673                 6.2083
 Frc consts  --     0.0000                 0.0000                 0.0000
 IR Inten    --     5.6743                13.3742                 4.4909
 Raman Activ --     0.0000                 0.0000                 0.0000
 Depolar     --     0.0000                 0.0000                 0.0000
 Atom AN      X      Y      Z        X      Y      Z        X      Y      Z
   1   6    -0.05  -0.01   0.10     0.03   0.23  -0.21     0.02  -0.21  -0.06
   2   6    -0.05   0.06   0.00     0.08   0.05   0.22    -0.08  -0.11  -0.12
   3   6     0.12   0.05  -0.23     0.04  -0.43   0.29    -0.10   0.21   0.21
   4   6     0.00  -0.15  -0.09    -0.13   0.22  -0.17     0.12  -0.03  -0.05
   5   8     0.04  -0.03  -0.19    -0.05  -0.13  -0.25    -0.03   0.01   0.01
   6   8     0.21   0.09   0.42     0.00   0.02   0.25     0.34  -0.09   0.06
   7   6    -0.25  -0.07  -0.05    -0.02  -0.01  -0.00    -0.18  -0.10   0.01
   8   6    -0.13   0.08  -0.14    -0.00  -0.01  -0.06    -0.17   0.15  -0.09
   9   1     0.05   0.01  -0.08     0.02   0.07  -0.08    -0.07  -0.14   0.32
  10   1     0.04  -0.00  -0.09     0.01   0.07  -0.07    -0.04   0.05   0.13
  11   1     0.03  -0.17   0.14     0.01   0.06  -0.05     0.00   0.28  -0.18
  12   1     0.03  -0.00  -0.12     0.05   0.12   0.04    -0.05  -0.11   0.01
  13   1     0.04  -0.12   0.11     0.04   0.07   0.04     0.05   0.24  -0.12
  14   1     0.14  -0.18   0.11     0.01   0.16  -0.07     0.06   0.29  -0.00
  15   1    -0.10   0.20   0.10     0.07  -0.40  -0.16     0.04  -0.10  -0.08
  16   1    -0.12   0.15  -0.02    -0.09   0.09  -0.03    -0.00  -0.06   0.02
  17   1     0.03  -0.19   0.13     0.06  -0.08   0.05     0.03  -0.07   0.02
  18   1     0.06  -0.20   0.16     0.01  -0.09   0.08     0.07  -0.06   0.03
  19   1    -0.00   0.25  -0.01    -0.00   0.02   0.04     0.01   0.29  -0.11
  20   1     0.03   0.19   0.02    -0.01   0.12  -0.01     0.07  -0.01   0.03
                     19                     20                     21
                        a                      a                      a 
 Frequencies --   956.7520              1038.9033              1075.4277
 Red. masses --     7.9575                 6.2583                 9.6160
 Frc consts  --     0.0000                 0.0000                 0.0000
 IR Inten    --     1.1594                16.3741               128.7760
 Raman Activ --     0.0000                 0.0000                 0.0000
 Depolar     --     0.0000                 0.0000                 0.0000
 Atom AN      X      Y      Z        X      Y      Z        X      Y      Z
   1   6    -0.10  -0.29   0.09     0.10   0.09  -0.16     0.01   0.05  -0.20
   2   6    -0.02  -0.03  -0.20    -0.16  -0.09   0.14    -0.06  -0.11   0.19
   3   6     0.33   0.16   0.14    -0.01   0.01  -0.13     0.12   0.04  -0.15
   4   6    -0.14   0.02  -0.09     0.24  -0.12  -0.05     0.07  -0.12  -0.01
   5   8    -0.06  -0.05  -0.23     0.02   0.03   0.07     0.03   0.02   0.02
   6   8    -0.28   0.13   0.15     0.04   0.08   0.09    -0.46   0.11   0.04
   7   6     0.08   0.10   0.01    -0.28   0.25  -0.09     0.37  -0.29   0.16
   8   6     0.16  -0.15   0.04     0.18  -0.24   0.11    -0.08   0.24  -0.09
   9   1     0.03  -0.21   0.34    -0.06   0.06  -0.04    -0.01  -0.02   0.05
  10   1     0.04   0.13  -0.03    -0.04  -0.04   0.07     0.00   0.07  -0.02
  11   1     0.06   0.08   0.02    -0.03   0.13  -0.14     0.01   0.13  -0.10
  12   1     0.04   0.15  -0.09    -0.06  -0.29  -0.03    -0.01  -0.11   0.00
  13   1     0.01   0.02  -0.06     0.10   0.11   0.07     0.05   0.02   0.07
  14   1     0.16   0.09   0.06     0.28   0.09   0.13     0.29   0.03   0.14
  15   1     0.18   0.08   0.06    -0.25  -0.05  -0.07    -0.26  -0.03  -0.06
  16   1    -0.12   0.11  -0.06    -0.17   0.13  -0.07     0.08  -0.09   0.04
  17   1     0.03   0.02  -0.00    -0.10   0.11  -0.06     0.07  -0.10   0.07
  18   1    -0.06  -0.00   0.03    -0.07   0.01   0.01     0.02   0.05  -0.03
  19   1    -0.01  -0.24   0.13    -0.01  -0.29   0.12    -0.00   0.14  -0.06
  20   1    -0.07   0.09  -0.03    -0.07  -0.00  -0.02     0.03   0.04  -0.00
                     22                     23                     24
                        a                      a                      a 
 Frequencies --  1079.2248              1096.1557              1118.1098
 Red. masses --     4.8395                 7.5981                 8.4603
 Frc consts  --     0.0000                 0.0000                 0.0000
 IR Inten    --     9.8596                32.8749                31.7152
 Raman Activ --     0.0000                 0.0000                 0.0000
 Depolar     --     0.0000                 0.0000                 0.0000
 Atom AN      X      Y      Z        X      Y      Z        X      Y      Z
   1   6     0.20   0.08   0.17    -0.02  -0.00   0.01     0.06  -0.24   0.26
   2   6    -0.28  -0.06  -0.22     0.03   0.01  -0.00    -0.02   0.53  -0.12
   3   6     0.10  -0.05   0.15    -0.04   0.00   0.01    -0.11  -0.37  -0.22
   4   6     0.05   0.16  -0.10    -0.01  -0.01   0.02     0.13   0.01  -0.03
   5   8    -0.05  -0.05  -0.07     0.00   0.01   0.01     0.03  -0.00   0.05
   6   8    -0.14   0.02   0.04     0.17   0.06  -0.03    -0.11   0.03   0.04
   7   6     0.08  -0.10   0.08    -0.28  -0.46   0.14     0.04  -0.04  -0.01
   8   6     0.00   0.08  -0.05     0.29   0.37  -0.12    -0.00   0.02   0.02
   9   1    -0.08   0.18  -0.28     0.01  -0.01   0.01    -0.05  -0.04   0.10
  10   1    -0.08  -0.28   0.20     0.01   0.01  -0.02    -0.04  -0.10   0.17
  11   1    -0.11  -0.08  -0.04     0.01  -0.01   0.02    -0.02   0.01   0.01
  12   1    -0.11  -0.37  -0.10     0.01   0.04   0.01     0.04   0.10  -0.17
  13   1     0.07   0.02   0.03    -0.01  -0.01  -0.01     0.17   0.40  -0.03
  14   1     0.09   0.12   0.01    -0.05  -0.01  -0.02     0.04  -0.09  -0.02
  15   1     0.41   0.12   0.14    -0.02  -0.02  -0.01    -0.12  -0.09  -0.05
  16   1    -0.03  -0.03  -0.00    -0.08  -0.08   0.04     0.02   0.00   0.01
  17   1     0.05  -0.04   0.02    -0.10  -0.08   0.02    -0.03  -0.00   0.01
  18   1    -0.01   0.01  -0.00    -0.18   0.30  -0.11    -0.00   0.02  -0.02
  19   1    -0.00   0.02   0.00    -0.03  -0.33   0.13     0.00  -0.00  -0.01
  20   1    -0.01   0.06  -0.02    -0.18   0.25  -0.14     0.00  -0.02   0.00
                     25                     26                     27
                        a                      a                      a 
 Frequencies --  1152.3770              1184.2201              1205.6791
 Red. masses --     6.5123                 5.6034                 8.5513
 Frc consts  --     0.0000                 0.0000                 0.0000
 IR Inten    --    31.7154                44.6699               327.5733
 Raman Activ --     0.0000                 0.0000                 0.0000
 Depolar     --     0.0000                 0.0000                 0.0000
 Atom AN      X      Y      Z        X      Y      Z        X      Y      Z
   1   6    -0.03  -0.00   0.03    -0.06   0.10   0.27     0.10  -0.00   0.06
   2   6     0.04   0.03  -0.03     0.12  -0.12  -0.41    -0.12  -0.03  -0.08
   3   6    -0.09   0.02   0.02    -0.04   0.14   0.20     0.24  -0.02  -0.04
   4   6     0.23  -0.07  -0.05     0.13  -0.13  -0.05    -0.57   0.14   0.25
   5   8    -0.02   0.04   0.11    -0.01   0.02   0.01     0.08   0.01   0.06
   6   8    -0.10  -0.06  -0.24    -0.08   0.06   0.08     0.20  -0.11  -0.20
   7   6     0.01   0.15   0.45     0.03  -0.03  -0.05    -0.06   0.08   0.08
   8   6     0.02  -0.09  -0.28    -0.01   0.02   0.05     0.02  -0.05  -0.14
   9   1     0.01  -0.00  -0.00     0.06   0.08  -0.19    -0.03   0.04  -0.05
  10   1     0.01   0.01  -0.02     0.02  -0.10  -0.06    -0.02  -0.09   0.08
  11   1     0.01  -0.03   0.03    -0.02  -0.26   0.19    -0.04  -0.00  -0.04
  12   1     0.00   0.03   0.01     0.00   0.12   0.02     0.02   0.09  -0.10
  13   1    -0.03  -0.01  -0.03    -0.10  -0.02  -0.21     0.06   0.04   0.02
  14   1    -0.12  -0.01  -0.06     0.16   0.25   0.06     0.31   0.03   0.15
  15   1    -0.05  -0.04  -0.03    -0.34  -0.29  -0.21    -0.22  -0.09  -0.08
  16   1    -0.37  -0.11  -0.10    -0.00   0.05  -0.01     0.15  -0.20   0.08
  17   1     0.33   0.05  -0.07    -0.04  -0.02   0.02     0.04   0.09  -0.08
  18   1     0.00  -0.25   0.20     0.01   0.04  -0.04    -0.01  -0.12   0.09
  19   1    -0.01   0.04   0.13     0.00  -0.00  -0.03    -0.00   0.02   0.05
  20   1    -0.02   0.32  -0.04     0.01  -0.06   0.01    -0.01   0.14  -0.03
                     28                     29                     30
                        a                      a                      a 
 Frequencies --  1244.1174              1256.0591              1302.3649
 Red. masses --     3.2976                 3.8726                 4.3429
 Frc consts  --     0.0000                 0.0000                 0.0000
 IR Inten    --     0.9921                61.0829                 6.7365
 Raman Activ --     0.0000                 0.0000                 0.0000
 Depolar     --     0.0000                 0.0000                 0.0000
 Atom AN      X      Y      Z        X      Y      Z        X      Y      Z
   1   6     0.30  -0.09  -0.03     0.09  -0.03  -0.02     0.05  -0.02   0.00
   2   6    -0.23   0.05  -0.01    -0.05   0.03  -0.01     0.12  -0.06   0.03
   3   6     0.08   0.12   0.11    -0.06   0.06   0.07    -0.45  -0.17  -0.15
   4   6     0.03  -0.06  -0.00     0.21  -0.08  -0.10     0.03   0.04  -0.03
   5   8    -0.01   0.01  -0.00    -0.03  -0.02  -0.08     0.04   0.01   0.10
   6   8     0.01  -0.01  -0.05    -0.09   0.11   0.25     0.01  -0.01  -0.03
   7   6     0.02  -0.03  -0.03    -0.02   0.03   0.02    -0.00  -0.00   0.01
   8   6    -0.02   0.04   0.10     0.03  -0.08  -0.20    -0.00  -0.00   0.01
   9   1    -0.11   0.05   0.00    -0.03   0.01   0.01    -0.00   0.01  -0.03
  10   1    -0.06  -0.15   0.24    -0.02  -0.04   0.08     0.01  -0.00   0.02
  11   1    -0.07   0.14  -0.20    -0.02   0.05  -0.06    -0.00   0.05  -0.04
  12   1     0.11   0.36  -0.26     0.04   0.14  -0.08     0.11   0.38  -0.03
  13   1    -0.06  -0.40   0.21    -0.06  -0.21   0.07    -0.09  -0.21   0.01
  14   1    -0.18  -0.06  -0.07    -0.12   0.01  -0.05     0.46   0.34   0.18
  15   1    -0.18  -0.11  -0.08    -0.01  -0.03  -0.02     0.26   0.19   0.14
  16   1    -0.17   0.17  -0.08     0.39  -0.36   0.17    -0.05   0.03  -0.02
  17   1     0.13  -0.13   0.07    -0.38   0.33  -0.16     0.01  -0.00  -0.00
  18   1     0.01   0.08  -0.06    -0.01  -0.16   0.11    -0.00   0.01  -0.01
  19   1     0.00  -0.00  -0.04    -0.01   0.00   0.07     0.00   0.01  -0.00
  20   1     0.01  -0.09   0.02    -0.00   0.18  -0.03    -0.00   0.00   0.00
                     31                     32                     33
                        a                      a                      a 
 Frequencies --  1313.7785              1333.2106              1394.1372
 Red. masses --     3.4167                 4.5694                 3.1159
 Frc consts  --     0.0000                 0.0000                 0.0000
 IR Inten    --     8.1234                 7.1407                 5.1617
 Raman Activ --     0.0000                 0.0000                 0.0000
 Depolar     --     0.0000                 0.0000                 0.0000
 Atom AN      X      Y      Z        X      Y      Z        X      Y      Z
   1   6    -0.01  -0.01  -0.02    -0.05  -0.09  -0.09     0.00  -0.01   0.01
   2   6     0.04   0.07  -0.02     0.16   0.47  -0.15    -0.00   0.01  -0.01
   3   6    -0.04  -0.01   0.01    -0.03  -0.08   0.07     0.00  -0.00   0.00
   4   6     0.09  -0.03  -0.02    -0.08   0.04   0.03    -0.03   0.01   0.01
   5   8    -0.01  -0.01  -0.02     0.01  -0.00   0.02     0.00  -0.00   0.01
   6   8    -0.13  -0.04   0.04     0.04  -0.01  -0.03     0.04   0.00  -0.01
   7   6    -0.25   0.27  -0.13     0.04  -0.04   0.02     0.08  -0.02   0.01
   8   6     0.12   0.09   0.00    -0.02  -0.01   0.00    -0.11   0.38  -0.15
   9   1     0.00  -0.02   0.03     0.01  -0.10   0.18    -0.01   0.01  -0.02
  10   1    -0.01   0.00   0.01    -0.04   0.01   0.06     0.01   0.02  -0.01
  11   1     0.01  -0.00   0.01     0.06  -0.02   0.04    -0.00   0.02  -0.01
  12   1    -0.01  -0.05   0.01    -0.13  -0.45   0.14    -0.01  -0.00   0.01
  13   1    -0.04  -0.10   0.02    -0.16  -0.52   0.13     0.01  -0.01   0.01
  14   1     0.01   0.04  -0.00     0.14   0.08   0.07     0.01   0.00   0.00
  15   1    -0.01  -0.01  -0.00    -0.04  -0.12  -0.06     0.00  -0.00  -0.00
  16   1     0.38  -0.32   0.16    -0.06   0.06  -0.02    -0.15  -0.06  -0.09
  17   1     0.49  -0.41   0.21    -0.06   0.06  -0.03    -0.18   0.01   0.08
  18   1    -0.02  -0.01   0.06     0.00   0.00  -0.01     0.22  -0.35   0.29
  19   1    -0.01  -0.18   0.06     0.00   0.03  -0.01    -0.12  -0.47   0.14
  20   1    -0.02  -0.09  -0.03    -0.00   0.01   0.00     0.20  -0.44   0.05
                     34                     35                     36
                        a                      a                      a 
 Frequencies --  1414.2950              1430.4124              1435.0083
 Red. masses --     3.1520                 2.0111                 2.0865
 Frc consts  --     0.0000                 0.0000                 0.0000
 IR Inten    --     1.6419                 4.1043                 6.8782
 Raman Activ --     0.0000                 0.0000                 0.0000
 Depolar     --     0.0000                 0.0000                 0.0000
 Atom AN      X      Y      Z        X      Y      Z        X      Y      Z
   1   6    -0.05  -0.30   0.30     0.00  -0.02   0.02     0.01  -0.04   0.05
   2   6     0.03   0.09  -0.01    -0.00   0.01  -0.00     0.00   0.01   0.02
   3   6     0.04  -0.03   0.03    -0.03   0.06  -0.00    -0.17   0.24  -0.02
   4   6    -0.01  -0.00   0.01    -0.03   0.00  -0.02     0.03   0.00  -0.03
   5   8    -0.00  -0.00  -0.01     0.01   0.01   0.04     0.00   0.01   0.02
   6   8     0.00  -0.00  -0.00     0.05  -0.00  -0.01    -0.02  -0.00   0.01
   7   6    -0.01  -0.01   0.00     0.14   0.21  -0.08    -0.04  -0.05   0.02
   8   6     0.00  -0.01   0.00     0.04  -0.08   0.04    -0.01   0.02  -0.01
   9   1    -0.03   0.16  -0.47    -0.01   0.01  -0.02    -0.04   0.03  -0.04
  10   1     0.20   0.34  -0.30     0.01   0.02  -0.02     0.04   0.05  -0.05
  11   1    -0.04   0.45  -0.24    -0.01   0.02  -0.02    -0.04   0.04  -0.04
  12   1    -0.00  -0.11  -0.05     0.00  -0.00  -0.01     0.02   0.00  -0.06
  13   1    -0.09  -0.08  -0.03    -0.01  -0.00  -0.00    -0.05   0.00  -0.04
  14   1    -0.03   0.08  -0.05     0.03  -0.13   0.09     0.14  -0.52   0.38
  15   1    -0.08   0.02   0.03     0.09  -0.09  -0.08     0.39  -0.37  -0.33
  16   1     0.02   0.01   0.01    -0.30  -0.50  -0.23     0.08   0.12   0.06
  17   1     0.02   0.01  -0.02    -0.39  -0.24   0.47     0.10   0.05  -0.11
  18   1    -0.00   0.02  -0.02    -0.06   0.09  -0.06     0.01  -0.02   0.02
  19   1     0.00   0.01   0.01     0.03   0.10  -0.03    -0.01  -0.02   0.01
  20   1     0.00   0.02   0.00    -0.05   0.10  -0.02     0.01  -0.03   0.00
                     37                     38                     39
                        a                      a                      a 
 Frequencies --  1471.9571              1478.0835              1486.3638
 Red. masses --     1.5232                 1.9268                 1.5755
 Frc consts  --     0.0000                 0.0000                 0.0000
 IR Inten    --     7.1787                 0.2683                 2.4402
 Raman Activ --     0.0000                 0.0000                 0.0000
 Depolar     --     0.0000                 0.0000                 0.0000
 Atom AN      X      Y      Z        X      Y      Z        X      Y      Z
   1   6     0.01   0.00  -0.01    -0.00  -0.04   0.03    -0.02  -0.02  -0.01
   2   6     0.01   0.00   0.04    -0.08  -0.03  -0.27    -0.01  -0.01  -0.02
   3   6     0.00  -0.00   0.00    -0.03   0.01  -0.01     0.00   0.00  -0.00
   4   6    -0.00   0.00   0.01     0.02  -0.01  -0.02     0.00  -0.00   0.00
   5   8    -0.00  -0.00  -0.01     0.00   0.00   0.01     0.00   0.00  -0.00
   6   8     0.00   0.00   0.00    -0.01   0.01   0.01    -0.01   0.00  -0.00
   7   6     0.02  -0.02  -0.04    -0.01  -0.00  -0.01     0.05  -0.01   0.02
   8   6     0.06  -0.04  -0.19     0.00  -0.02  -0.03     0.20   0.08   0.04
   9   1    -0.03   0.01   0.00    -0.02   0.02  -0.04     0.03   0.01  -0.06
  10   1    -0.01   0.03   0.03     0.03   0.04  -0.06    -0.02   0.03   0.06
  11   1     0.02  -0.02   0.02    -0.03   0.04  -0.05     0.08   0.04   0.04
  12   1     0.03  -0.03  -0.09    -0.21   0.22   0.58    -0.01   0.02   0.03
  13   1    -0.08   0.01  -0.06     0.52  -0.05   0.42     0.04  -0.00   0.03
  14   1     0.00   0.01  -0.00     0.00  -0.04   0.02    -0.00  -0.00   0.00
  15   1    -0.00   0.01   0.01     0.02  -0.02  -0.03     0.00  -0.00  -0.00
  16   1    -0.01   0.03  -0.01     0.01   0.01   0.01    -0.02   0.03  -0.01
  17   1    -0.01  -0.01   0.01     0.01  -0.01  -0.00    -0.02   0.03  -0.02
  18   1    -0.51   0.16   0.10    -0.06   0.04  -0.02    -0.35  -0.16   0.41
  19   1    -0.03   0.31   0.60    -0.01   0.04   0.11     0.08   0.18  -0.27
  20   1     0.28  -0.29   0.10     0.07  -0.02   0.03    -0.53  -0.34  -0.31
                     40                     41                     42
                        a                      a                      a 
 Frequencies --  1496.3545              1502.5364              1699.0394
 Red. masses --     1.5178                 1.5791                13.2952
 Frc consts  --     0.0000                 0.0000                 0.0000
 IR Inten    --     2.9343                 0.5030               686.5460
 Raman Activ --     0.0000                 0.0000                 0.0000
 Depolar     --     0.0000                 0.0000                 0.0000
 Atom AN      X      Y      Z        X      Y      Z        X      Y      Z
   1   6     0.20  -0.05  -0.01     0.04   0.14   0.15     0.00  -0.00  -0.00
   2   6     0.05  -0.00  -0.00     0.02   0.05   0.03    -0.00  -0.01  -0.01
   3   6     0.00  -0.02  -0.00    -0.00  -0.02  -0.01    -0.07   0.01  -0.05
   4   6    -0.00  -0.00  -0.00     0.01   0.00   0.02     0.30   0.16   0.72
   5   8     0.00  -0.00   0.00    -0.01  -0.00  -0.01    -0.20  -0.12  -0.54
   6   8    -0.00   0.00   0.00    -0.00   0.00   0.00     0.00  -0.02  -0.06
   7   6     0.00   0.00   0.00     0.01  -0.00   0.00     0.02   0.01   0.02
   8   6     0.01   0.01   0.01     0.03   0.01  -0.00    -0.01  -0.00  -0.00
   9   1    -0.64   0.21   0.19     0.16  -0.15   0.26    -0.01   0.00  -0.01
  10   1     0.12   0.40  -0.08     0.14  -0.43  -0.52    -0.00   0.01   0.01
  11   1    -0.32  -0.41  -0.07    -0.47  -0.01  -0.36     0.01  -0.00   0.01
  12   1     0.00  -0.03   0.02     0.00  -0.03  -0.01    -0.00   0.02   0.00
  13   1    -0.01   0.01  -0.03    -0.02  -0.03   0.01     0.00  -0.01   0.00
  14   1     0.00   0.04  -0.02    -0.01   0.01  -0.01     0.05   0.00   0.04
  15   1    -0.02   0.02   0.02    -0.01   0.01   0.01    -0.03  -0.01  -0.01
  16   1    -0.00  -0.00  -0.00    -0.00   0.01  -0.00    -0.04  -0.01  -0.02
  17   1    -0.00   0.00   0.00    -0.00   0.01  -0.00    -0.02  -0.00   0.02
  18   1    -0.01  -0.01   0.02    -0.07  -0.01   0.06     0.00  -0.00  -0.00
  19   1     0.01   0.01  -0.04     0.01   0.04  -0.01     0.00   0.01  -0.00
  20   1    -0.05  -0.01  -0.03    -0.05  -0.06  -0.03    -0.00   0.01   0.00
                     43                     44                     45
                        a                      a                      a 
 Frequencies --  2946.2279              2986.7126              2988.4078
 Red. masses --     1.7188                 1.8318                 1.8651
 Frc consts  --     0.0000                 0.0000                 0.0000
 IR Inten    --    31.6391                23.1485                15.1725
 Raman Activ --     0.0000                 0.0000                 0.0000
 Depolar     --     0.0000                 0.0000                 0.0000
 Atom AN      X      Y      Z        X      Y      Z        X      Y      Z
   1   6     0.00  -0.00  -0.00     0.03  -0.01  -0.00    -0.03   0.01  -0.00
   2   6     0.00  -0.00   0.00    -0.23   0.07   0.01     0.15  -0.06  -0.06
   3   6     0.00   0.00  -0.00     0.01  -0.10   0.09    -0.01  -0.12   0.18
   4   6    -0.00   0.00   0.00     0.00  -0.00   0.00     0.00  -0.00   0.01
   5   8    -0.00  -0.00  -0.00    -0.00  -0.00  -0.00    -0.00  -0.00  -0.00
   6   8     0.01   0.00   0.01     0.00  -0.00  -0.00     0.00   0.00  -0.00
   7   6     0.07   0.18   0.16    -0.00   0.00   0.01     0.00   0.00  -0.01
   8   6    -0.01  -0.00  -0.01    -0.00  -0.00   0.00     0.00   0.00   0.00
   9   1     0.00   0.00   0.00     0.00  -0.01  -0.00    -0.00   0.00   0.00
  10   1    -0.00   0.00  -0.00    -0.09   0.02  -0.04     0.07  -0.01   0.03
  11   1    -0.00   0.00   0.00    -0.04   0.03   0.06     0.03  -0.02  -0.04
  12   1    -0.00   0.00  -0.00     0.62  -0.11   0.25    -0.27   0.04  -0.12
  13   1    -0.00  -0.00  -0.00     0.20  -0.14  -0.28    -0.27   0.18   0.35
  14   1    -0.00   0.00   0.00    -0.07   0.04   0.11     0.07  -0.06  -0.07
  15   1    -0.00  -0.00   0.00    -0.00   0.34  -0.43    -0.01   0.48  -0.59
  16   1     0.00   0.02   0.03     0.01   0.00  -0.02    -0.02  -0.00   0.03
  17   1    -0.30  -0.67  -0.63    -0.00  -0.00  -0.00    -0.00  -0.00  -0.00
  18   1     0.02   0.04   0.04     0.00   0.00   0.00    -0.00  -0.00  -0.00
  19   1     0.01  -0.00  -0.00     0.00  -0.00   0.00     0.00   0.00  -0.00
  20   1    -0.01  -0.00   0.01     0.00   0.00  -0.00     0.00   0.00  -0.00
                     46                     47                     48
                        a                      a                      a 
 Frequencies --  2991.8798              2999.3239              3010.3969
 Red. masses --     1.7404                 1.4823                 1.7722
 Frc consts  --     0.0000                 0.0000                 0.0000
 IR Inten    --    14.2116                31.9428                39.9825
 Raman Activ --     0.0000                 0.0000                 0.0000
 Depolar     --     0.0000                 0.0000                 0.0000
 Atom AN      X      Y      Z        X      Y      Z        X      Y      Z
   1   6    -0.00  -0.00  -0.00    -0.01  -0.02  -0.02    -0.01   0.02   0.02
   2   6     0.01  -0.00   0.00     0.04   0.04   0.19     0.04  -0.03  -0.06
   3   6     0.00  -0.00   0.00     0.03  -0.05   0.01     0.13  -0.09  -0.19
   4   6     0.00  -0.00   0.00    -0.00  -0.00  -0.00     0.00  -0.00  -0.01
   5   8     0.00  -0.00  -0.00     0.00   0.00   0.00     0.00   0.00   0.00
   6   8    -0.01   0.00   0.00     0.00  -0.00  -0.00     0.00   0.00   0.00
   7   6    -0.11  -0.02   0.23     0.00   0.00  -0.00     0.00  -0.00  -0.00
   8   6     0.02  -0.00  -0.03    -0.00   0.00   0.00     0.00   0.00  -0.00
   9   1     0.00   0.00   0.00     0.03   0.06   0.02    -0.02  -0.04  -0.01
  10   1     0.01  -0.00   0.00     0.06  -0.02   0.02     0.01   0.00   0.01
  11   1     0.00  -0.00  -0.00    -0.04   0.02   0.04     0.05  -0.03  -0.06
  12   1    -0.03   0.01  -0.01    -0.56   0.11  -0.20     0.01  -0.01  -0.00
  13   1    -0.01   0.01   0.01     0.42  -0.26  -0.48    -0.16   0.10   0.19
  14   1    -0.00   0.00   0.00    -0.11   0.08   0.17    -0.49   0.34   0.70
  15   1    -0.00   0.01  -0.02     0.00   0.14  -0.18     0.02  -0.02  -0.01
  16   1     0.44   0.09  -0.84    -0.01  -0.00   0.01    -0.00  -0.00   0.01
  17   1    -0.01  -0.01   0.03     0.00   0.00   0.00     0.00   0.00   0.00
  18   1     0.01   0.02   0.01    -0.00  -0.00  -0.00    -0.00  -0.00  -0.00
  19   1    -0.02   0.00  -0.01     0.00  -0.00   0.00     0.00   0.00  -0.00
  20   1    -0.06  -0.01   0.12     0.00   0.00  -0.01    -0.00  -0.00   0.00
                     49                     50                     51
                        a                      a                      a 
 Frequencies --  3024.0375              3035.6526              3036.4753
 Red. masses --     1.9025                 1.8015                 1.8049
 Frc consts  --     0.0000                 0.0000                 0.0000
 IR Inten    --    88.1747               103.4672                 9.5249
 Raman Activ --     0.0000                 0.0000                 0.0000
 Depolar     --     0.0000                 0.0000                 0.0000
 Atom AN      X      Y      Z        X      Y      Z        X      Y      Z
   1   6     0.27  -0.05   0.03     0.03  -0.13  -0.18    -0.01   0.09   0.12
   2   6     0.05  -0.01   0.00     0.01  -0.01  -0.03    -0.01   0.01   0.02
   3   6     0.00  -0.00   0.00     0.01  -0.00  -0.01    -0.01   0.00   0.01
   4   6    -0.00  -0.00  -0.00     0.00   0.00  -0.00    -0.00   0.00   0.00
   5   8     0.00   0.00   0.00     0.00  -0.00   0.00     0.00  -0.00  -0.00
   6   8    -0.00   0.00  -0.00     0.00  -0.00  -0.00     0.00  -0.00  -0.00
   7   6    -0.00  -0.00   0.00     0.01   0.00  -0.02     0.01   0.00  -0.03
   8   6    -0.00  -0.00   0.00     0.06   0.00  -0.13     0.09  -0.01  -0.20
   9   1     0.00  -0.10  -0.03     0.12   0.25   0.08    -0.09  -0.18  -0.06
  10   1    -0.80   0.14  -0.34     0.21  -0.06   0.06    -0.16   0.04  -0.05
  11   1    -0.16   0.12   0.25    -0.42   0.25   0.50     0.28  -0.16  -0.32
  12   1    -0.13   0.02  -0.05     0.02  -0.00   0.01    -0.02   0.00  -0.00
  13   1    -0.04   0.03   0.05    -0.06   0.04   0.07     0.04  -0.03  -0.05
  14   1    -0.01   0.01   0.01    -0.03   0.02   0.04     0.02  -0.01  -0.03
  15   1     0.00   0.01  -0.02     0.00  -0.01   0.01    -0.00   0.01  -0.01
  16   1     0.00  -0.00  -0.00    -0.04  -0.01   0.07    -0.05  -0.01   0.10
  17   1     0.00   0.00   0.00     0.01   0.01   0.01     0.01   0.01   0.01
  18   1     0.00   0.01   0.01     0.03   0.03   0.01     0.05   0.07   0.04
  19   1    -0.00  -0.00   0.00    -0.00   0.00  -0.02    -0.01  -0.00  -0.03
  20   1     0.01   0.00  -0.02    -0.25  -0.04   0.47    -0.36  -0.06   0.69
                     52                     53                     54
                        a                      a                      a 
 Frequencies --  3045.2260              3048.3892              3062.9857
 Red. masses --     1.4385                 1.6421                 1.7367
 Frc consts  --     0.0000                 0.0000                 0.0000
 IR Inten    --    40.3200                25.6383                23.2340
 Raman Activ --     0.0000                 0.0000                 0.0000
 Depolar     --     0.0000                 0.0000                 0.0000
 Atom AN      X      Y      Z        X      Y      Z        X      Y      Z
   1   6     0.08   0.18  -0.01     0.00   0.01  -0.01    -0.00  -0.00   0.00
   2   6     0.01   0.01   0.01     0.00  -0.00  -0.00     0.00  -0.00  -0.00
   3   6    -0.00  -0.00   0.00     0.00  -0.00  -0.00    -0.00   0.00  -0.00
   4   6    -0.00   0.00  -0.00    -0.00  -0.00  -0.00     0.00  -0.00  -0.00
   5   8     0.00  -0.00   0.00     0.00   0.00   0.00     0.00   0.00   0.00
   6   8     0.00  -0.00  -0.00     0.00   0.00  -0.00     0.00   0.00   0.00
   7   6    -0.00   0.00   0.00    -0.00  -0.02  -0.01    -0.01  -0.00   0.00
   8   6     0.00   0.01   0.01    -0.10  -0.18  -0.13    -0.25   0.03  -0.04
   9   1    -0.34  -0.76  -0.30    -0.02  -0.03  -0.01     0.00   0.00   0.00
  10   1     0.22  -0.01   0.09     0.03  -0.00   0.01    -0.00   0.00  -0.00
  11   1    -0.18   0.15   0.24    -0.02   0.01   0.02     0.00  -0.00  -0.00
  12   1    -0.03   0.01  -0.01    -0.00   0.00  -0.00    -0.00   0.00  -0.00
  13   1     0.01  -0.01  -0.02    -0.00   0.00   0.00    -0.00   0.00   0.00
  14   1     0.00  -0.00  -0.01    -0.00   0.00   0.00     0.00  -0.00  -0.00
  15   1     0.00   0.00  -0.00    -0.00  -0.00   0.00     0.00  -0.00   0.00
  16   1     0.00   0.00  -0.00    -0.00  -0.00   0.01     0.01   0.00  -0.02
  17   1    -0.00  -0.00  -0.00     0.02   0.03   0.04     0.00   0.01   0.01
  18   1    -0.02  -0.04  -0.03     0.35   0.65   0.60    -0.02   0.03   0.02
  19   1     0.01   0.00   0.00    -0.05  -0.01  -0.02     0.95  -0.14   0.12
  20   1     0.00   0.00  -0.00     0.04  -0.01  -0.12    -0.04   0.00   0.01
