      -----------------------------------------------------------      
     |                   =====================                   |     
     |                           x T B                           |     
     |                   =====================                   |     
     |                         S. Grimme                         |     
     |          Mulliken Center for Theoretical Chemistry        |     
     |                    University of Bonn                     |     
      -----------------------------------------------------------      

   * xtb version 6.7.1 (edcfbbe) compiled by 'albert@albert-system' on 2024-07-22

   xtb is free software: you can redistribute it and/or modify it under
   the terms of the GNU Lesser General Public License as published by
   the Free Software Foundation, either version 3 of the License, or
   (at your option) any later version.
   
   xtb is distributed in the hope that it will be useful,
   but WITHOUT ANY WARRANTY; without even the implied warranty of
   MERCHANTABILITY or FITNESS FOR A PARTICULAR PURPOSE.  See the
   GNU Lesser General Public License for more details.
   
   Cite this work as:
   * C. Bannwarth, E. Caldeweyher, S. Ehlert, A. Hansen, P. Pracht,
     J. Seibert, S. Spicher, S. Grimme, WIREs Comput. Mol. Sci., 2020, 11,
     e01493. DOI: 10.1002/wcms.1493
   
   for GFN2-xTB:
   * C. Bannwarth, S. Ehlert and S. Grimme., J. Chem. Theory Comput., 2019,
     15, 1652-1671. DOI: 10.1021/acs.jctc.8b01176
   for GFN1-xTB:
   * S. Grimme, C. Bannwarth, P. Shushkov, J. Chem. Theory Comput., 2017,
     13, 1989-2009. DOI: 10.1021/acs.jctc.7b00118
   for GFN0-xTB:
   * P. Pracht, E. Caldeweyher, S. Ehlert, S. Grimme, ChemRxiv, 2019, preprint.
     DOI: 10.26434/chemrxiv.8326202.v1
   for GFN-FF:
   * S. Spicher and S. Grimme, Angew. Chem. Int. Ed., 2020, 59, 15665-15673.
     DOI: 10.1002/anie.202004239
   
   for ALPB and GBSA implicit solvation:
   * S. Ehlert, M. Stahn, S. Spicher, S. Grimme, J. Chem. Theory Comput.,
     2021, 17, 4250-4261. DOI: 10.1021/acs.jctc.1c00471
   
   for ddCOSMO and CPCM-X implicit solvation:
   * M. Stahn, S. Ehlert, S. Grimme, J. Phys. Chem. A,
     2023, XX, XXXX-XXXX. DOI: 10.1021/acs.jpca.3c04382
   
   for DFT-D4:
   * E. Caldeweyher, C. Bannwarth and S. Grimme, J. Chem. Phys., 2017,
     147, 034112. DOI: 10.1063/1.4993215
   * E. Caldeweyher, S. Ehlert, A. Hansen, H. Neugebauer, S. Spicher,
     C. Bannwarth and S. Grimme, J. Chem. Phys., 2019, 150, 154122.
     DOI: 10.1063/1.5090222
   * E. Caldeweyher, J.-M. Mewes, S. Ehlert and S. Grimme, Phys. Chem. Chem. Phys.
     2020, 22, 8499-8512. DOI: 10.1039/D0CP00502A
   
   for sTDA-xTB:
   * S. Grimme and C. Bannwarth, J. Chem. Phys., 2016, 145, 054103.
     DOI: 10.1063/1.4959605
   
   in the mass-spec context:
   * V. Asgeirsson, C. Bauer and S. Grimme, Chem. Sci., 2017, 8, 4879.
     DOI: 10.1039/c7sc00601b
   * J. Koopman and S. Grimme, ACS Omega 2019, 4, 12, 15120-15133.
     DOI: 10.1021/acsomega.9b02011
   
   for metadynamics refer to:
   * S. Grimme, J. Chem. Theory Comput., 2019, 155, 2847-2862
     DOI: 10.1021/acs.jctc.9b00143
   
   for SPH calculations refer to:
   * S. Spicher and S. Grimme, J. Chem. Theory Comput., 2021, 17, 1701-1714
     DOI: 10.1021/acs.jctc.0c01306
   
   for ONIOM refer to:
   * C. Plett, A. Katbashev, S. Ehlert, S. Grimme, M. Bursch,
     Phys. Chem. Chem. Phys., 2023, 25, 17860-17868. DOI: 10.1039/D3CP02178E
   
   for DIPRO refer to:
   * J. Kohn, N. Gildemeister, S. Grimme, D. Fazzi, A. Hansen,
     J. Chem. Phys., 2023, just accepted.
   
   for PTB refer to:
   * S. Grimme, M. Mueller, A. Hansen, J. Chem. Phys., 2023, 158, 124111.
     DOI: 10.1063/5.0137838
   
   with help from (in alphabetical order)
   P. Atkinson, C. Bannwarth, F. Bohle, G. Brandenburg, E. Caldeweyher
   M. Checinski, S. Dohm, S. Ehlert, S. Ehrlich, I. Gerasimov, C. Hölzer
   A. Katbashev, J. Kohn, J. Koopman, C. Lavigne, S. Lehtola, F. März, M. Müller,
   F. Musil, H. Neugebauer, J. Pisarek, C. Plett, P. Pracht, F. Pultar,
   J. Seibert, P. Shushkov, S. Spicher, M. Stahn, M. Steiner, T. Strunk,
   J. Stückrath, T. Rose, and J. Unsleber
   
 * started run on 2025/04/11 at 12:43:49.842     
   ID    Z sym.   atoms
    1    6 C      1-4
    2    7 N      5
    3    1 H      6-16

           -------------------------------------------------
          |                Calculation Setup                |
           -------------------------------------------------

          program call               : /srv/scratch/z5358697/.xtb/bin/xtb xtb_rrho.coord --gfn2 --ohess vtight --chrg 0 --enso --norestart -I rrho-xcontrol-inp --parallel 1 --alpb water
          hostname                   : k077
          coordinate file            : xtb_rrho.coord
          omp threads                :                     1


           -------------------------------------------------
          |                 G F N 2 - x T B                 |
           -------------------------------------------------

        Reference                      10.1021/acs.jctc.8b01176
      * Hamiltonian:
        H0-scaling (s, p, d)           1.850000    2.230000    2.230000
        zeta-weighting                 0.500000
      * Dispersion:
        s8                             2.700000
        a1                             0.520000
        a2                             5.000000
        s9                             5.000000
      * Repulsion:
        kExp                           1.500000    1.000000
        rExp                           1.000000
      * Coulomb:
        alpha                          2.000000
        third order                    shell-resolved
        anisotropic                    true
        a3                             3.000000
        a5                             4.000000
        cn-shift                       1.200000
        cn-exp                         4.000000
        max-rad                        5.000000

      * Solvation model:               ALPB
        Solvent                        water
        Parameter file                 internal GFN2-xTB/ALPB
        Dielectric constant                8.0200E+01
        Reference state                gsolv [1 M gas/solution]
        Free energy shift                  1.0808E-03 Eh       6.7819E-01 kcal/mol
        Temperature                        2.9815E+02 K
        Density                            1.0000E+00 kg/L
        Solvent mass                       1.8000E+01 g/mol
        Interaction kernel             P16
        Born radius scaling (c1)           1.4744E+00
        Born radii integrator          GBOBC
        Born offset                        0.0000E+00 a0       0.0000E+00 AA
        H-bond correction              true
        Ion screening                  false
        Surface tension                    1.0000E-05 Eh       1.5569E+01 dyn/cm
        Grid points                               974 per atom

          ...................................................
          :                      SETUP                      :
          :.................................................:
          :  # basis functions                  31          :
          :  # atomic orbitals                  31          :
          :  # shells                           21          :
          :  # electrons                        32          :
          :  max. iterations                   250          :
          :  Hamiltonian                  GFN2-xTB          :
          :  restarted?                      false          :
          :  GBSA solvation                   true          :
          :  PC potential                    false          :
          :  electronic temp.          300.0000000     K    :
          :  accuracy                    1.0000000          :
          :  -> integral cutoff          0.2500000E+02      :
          :  -> integral neglect         0.1000000E-07      :
          :  -> SCF convergence          0.1000000E-05 Eh   :
          :  -> wf. convergence          0.1000000E-03 e    :
          :  Broyden damping             0.4000000          :
          :  net charge                          0          :
          :  unpaired electrons                  0          :
          ...................................................

 iter      E             dE          RMSdq      gap      omega  full diag
   1    -17.2962259 -0.172962E+02  0.267E+00   10.96       0.0  T
   2    -17.3152932 -0.190673E-01  0.150E+00   10.95       1.0  T
   3    -17.3162732 -0.979997E-03  0.549E-01   11.04       1.0  T
   4    -17.3163627 -0.894964E-04  0.959E-02   11.05       1.0  T
   5    -17.3163749 -0.122048E-04  0.415E-02   11.03       1.0  T
   6    -17.3163757 -0.792612E-06  0.152E-02   11.03       1.6  T
   7    -17.3163758 -0.128106E-06  0.204E-03   11.03      12.3  T
   8    -17.3163758 -0.301994E-08  0.104E-03   11.03      24.1  T
   9    -17.3163758 -0.102661E-08  0.174E-04   11.03     143.7  T
  10    -17.3163758 -0.187654E-10  0.560E-05   11.03     446.5  T

   *** convergence criteria satisfied after 10 iterations ***

         #    Occupation            Energy/Eh            Energy/eV
      -------------------------------------------------------------
         1        2.0000           -0.6291845             -17.1210
       ...           ...                  ...                  ...
        10        2.0000           -0.4658964             -12.6777
        11        2.0000           -0.4628627             -12.5951
        12        2.0000           -0.4532909             -12.3347
        13        2.0000           -0.4355611             -11.8522
        14        2.0000           -0.4337157             -11.8020
        15        2.0000           -0.4222172             -11.4891
        16        2.0000           -0.3710485             -10.0967 (HOMO)
        17                          0.0342274               0.9314 (LUMO)
        18                          0.0840606               2.2874
        19                          0.1042876               2.8378
        20                          0.1277763               3.4770
        21                          0.1426815               3.8826
       ...                                ...                  ...
        31                          0.2934535               7.9853
      -------------------------------------------------------------
                  HL-Gap            0.4052759 Eh           11.0281 eV
             Fermi-level           -0.1684106 Eh           -4.5827 eV

 SCC (total)                   0 d,  0 h,  0 min,  0.022 sec
 SCC setup                      ...        0 min,  0.001 sec (  4.540%)
 Dispersion                     ...        0 min,  0.000 sec (  0.328%)
 classical contributions        ...        0 min,  0.000 sec (  0.077%)
 integral evaluation            ...        0 min,  0.001 sec (  4.248%)
 iterations                     ...        0 min,  0.017 sec ( 78.016%)
 molecular gradient             ...        0 min,  0.003 sec ( 12.058%)
 printout                       ...        0 min,  0.000 sec (  0.669%)

         :::::::::::::::::::::::::::::::::::::::::::::::::::::
         ::                     SUMMARY                     ::
         :::::::::::::::::::::::::::::::::::::::::::::::::::::
         :: total energy             -17.086569878436 Eh    ::
         :: total w/o Gsasa/hb       -17.083202908975 Eh    ::
         :: gradient norm              0.023425365377 Eh/a0 ::
         :: HOMO-LUMO gap             11.028118721011 eV    ::
         ::.................................................::
         :: SCC energy               -17.316369652790 Eh    ::
         :: -> isotropic ES            0.016294486817 Eh    ::
         :: -> anisotropic ES          0.006133754533 Eh    ::
         :: -> anisotropic XC          0.013284302372 Eh    ::
         :: -> dispersion             -0.007620077188 Eh    ::
         :: -> Gsolv                  -0.004756958319 Eh    ::
         ::    -> Gelec               -0.001389988859 Eh    ::
         ::    -> Gsasa               -0.002194293765 Eh    ::
         ::    -> Ghb                 -0.002253435394 Eh    ::
         ::    -> Gshift               0.001080759698 Eh    ::
         :: repulsion energy           0.229799774355 Eh    ::
         :: add. restraining           0.000000000000 Eh    ::
         :: total charge               0.000000000000 e     ::
         :::::::::::::::::::::::::::::::::::::::::::::::::::::

      ----------------------------------------------------------- 
     |                   =====================                   |
     |                        A N C O P T                        |
     |                   =====================                   |
     |               Approximate Normal Coordinate               |
     |                Rational Function Optimizer                |
      ----------------------------------------------------------- 
      ----------------------------------------------------------- 
     |                   =====================                   |
     |                        A N C O P T                        |
     |                   =====================                   |
     |               Approximate Normal Coordinate               |
     |                Rational Function Optimizer                |
      ----------------------------------------------------------- 

          ...................................................
          :                      SETUP                      :
          :.................................................:
          :   optimization level         verytight          :
          :   max. optcycles                   320          :
          :   ANC micro-cycles                  20          :
          :   degrees of freedom                42          :
          :.................................................:
          :   RF solver                   davidson          :
          :   write xtbopt.log                true          :
          :   linear?                        false          :
          :   energy convergence         0.1000000E-06 Eh   :
          :   grad. convergence          0.2000000E-03 Eh/α :
          :   maxmium RF displ.          1.0000000          :
          :   Hlow (freq-cutoff)         0.1000000E-01      :
          :   Hmax (freq-cutoff)         5.0000000          :
          :   S6 in model hess.         20.0000000          :
          ...................................................

generating ANC from exact Hessian ...
Using Lindh-Hessian (1995)
 Shifting diagonal of input Hessian by   6.270960955852296E-003
 Lowest  eigenvalues of input Hessian
    0.000000    0.000000    0.000000    0.000000    0.000000    0.000000
    0.010000    0.010065    0.011092    0.016686    0.022198    0.023036
    0.023861    0.044971    0.048564    0.056897    0.057798    0.059753
 Highest eigenvalues
    1.160387    1.173412    1.198932    1.257807    1.297455    1.385675
 

........................................................................
.............................. CYCLE    1 ..............................
........................................................................

 iter      E             dE          RMSdq      gap      omega  full diag
   1    -17.3163758 -0.173164E+02  0.105E-05   11.03       0.0  T
   2    -17.3163758 -0.355271E-13  0.677E-06   11.03    3691.5  T
   3    -17.3163758 -0.497380E-13  0.127E-06   11.03   19648.3  T
     SCC iter.                  ...        0 min,  0.001 sec
     gradient                   ...        0 min,  0.003 sec
 * total energy  :   -17.0865699 Eh     change       -0.6622258E-11 Eh
   gradient norm :     0.0234255 Eh/α   predicted     0.0000000E+00 (-100.00%)
   displ. norm   :     0.1025964 α      lambda       -0.1335433E-02
   maximum displ.:     0.0519443 α      in ANC's #5, #12, #17, ...

........................................................................
.............................. CYCLE    2 ..............................
........................................................................

 iter      E             dE          RMSdq      gap      omega  full diag
   1    -17.3224823 -0.173225E+02  0.137E-01   11.21       0.0  T
   2    -17.3224879 -0.560833E-05  0.786E-02   11.21       1.0  T
   3    -17.3224881 -0.214367E-06  0.100E-02   11.22       2.5  T
   4    -17.3224884 -0.328129E-06  0.252E-03   11.22       9.9  T
   5    -17.3224885 -0.771445E-08  0.119E-03   11.22      20.9  T
   6    -17.3224885 -0.496822E-09  0.353E-04   11.22      70.8  T
   7    -17.3224885 -0.170818E-09  0.103E-04   11.22     243.9  T
     SCC iter.                  ...        0 min,  0.002 sec
     gradient                   ...        0 min,  0.003 sec
 * total energy  :   -17.0873729 Eh     change       -0.8030274E-03 Eh
   gradient norm :     0.0090989 Eh/α   predicted    -0.6747464E-03 ( -15.97%)
   displ. norm   :     0.0497621 α      lambda       -0.2123760E-03
   maximum displ.:     0.0355417 α      in ANC's #7, #17, #25, ...

........................................................................
.............................. CYCLE    3 ..............................
........................................................................

 iter      E             dE          RMSdq      gap      omega  full diag
   1    -17.3256207 -0.173256E+02  0.469E-02   11.24       0.0  T
   2    -17.3256224 -0.170423E-05  0.266E-02   11.24       1.0  T
   3    -17.3256225 -0.363816E-07  0.599E-03   11.24       4.2  T
   4    -17.3256226 -0.870492E-07  0.121E-03   11.24      20.6  T
   5    -17.3256226 -0.219575E-08  0.596E-04   11.24      42.0  T
   6    -17.3256226 -0.125418E-09  0.166E-04   11.24     150.9  T
     SCC iter.                  ...        0 min,  0.002 sec
     gradient                   ...        0 min,  0.003 sec
 * total energy  :   -17.0874951 Eh     change       -0.1221746E-03 Eh
   gradient norm :     0.0034649 Eh/α   predicted    -0.1064525E-03 ( -12.87%)
   displ. norm   :     0.0197345 α      lambda       -0.2610602E-04
   maximum displ.:     0.0148063 α      in ANC's #7, #3, #32, ...

........................................................................
.............................. CYCLE    4 ..............................
........................................................................

 iter      E             dE          RMSdq      gap      omega  full diag
   1    -17.3258585 -0.173259E+02  0.163E-02   11.23       0.0  T
   2    -17.3258587 -0.164705E-06  0.931E-03   11.23       2.7  T
   3    -17.3258587 -0.361022E-08  0.215E-03   11.23      11.6  T
   4    -17.3258587 -0.106050E-07  0.452E-04   11.23      55.3  T
   5    -17.3258587 -0.394536E-09  0.131E-04   11.23     190.3  T
     SCC iter.                  ...        0 min,  0.001 sec
     gradient                   ...        0 min,  0.003 sec
 * total energy  :   -17.0875119 Eh     change       -0.1679562E-04 Eh
   gradient norm :     0.0013826 Eh/α   predicted    -0.1305896E-04 ( -22.25%)
   displ. norm   :     0.0205596 α      lambda       -0.5476959E-05
   maximum displ.:     0.0169581 α      in ANC's #3, #7, #32, ...

........................................................................
.............................. CYCLE    5 ..............................
........................................................................

 iter      E             dE          RMSdq      gap      omega  full diag
   1    -17.3256400 -0.173256E+02  0.128E-02   11.23       0.0  T
   2    -17.3256401 -0.617595E-07  0.732E-03   11.23       3.4  T
   3    -17.3256401 -0.288697E-08  0.133E-03   11.23      18.8  T
   4    -17.3256401 -0.450211E-08  0.350E-04   11.23      71.3  T
   5    -17.3256401 -0.963922E-10  0.137E-04   11.23     182.7  T
     SCC iter.                  ...        0 min,  0.001 sec
     gradient                   ...        0 min,  0.003 sec
 * total energy  :   -17.0875148 Eh     change       -0.2936364E-05 Eh
   gradient norm :     0.0005877 Eh/α   predicted    -0.2739478E-05 (  -6.71%)
   displ. norm   :     0.0049014 α      lambda       -0.7051509E-06
   maximum displ.:     0.0030859 α      in ANC's #7, #3, #5, ...

........................................................................
.............................. CYCLE    6 ..............................
........................................................................

 iter      E             dE          RMSdq      gap      omega  full diag
   1    -17.3256384 -0.173256E+02  0.385E-03   11.23       0.0  T
   2    -17.3256384 -0.453945E-08  0.229E-03   11.23      10.9  T
   3    -17.3256384 -0.883631E-10  0.279E-04   11.23      89.6  T
   4    -17.3256384 -0.349392E-09  0.812E-05   11.23     307.8  T
     SCC iter.                  ...        0 min,  0.001 sec
     gradient                   ...        0 min,  0.003 sec
 * total energy  :   -17.0875154 Eh     change       -0.6010832E-06 Eh
   gradient norm :     0.0000806 Eh/α   predicted    -0.3542912E-06 ( -41.06%)
   displ. norm   :     0.0031442 α      lambda       -0.5930479E-07
   maximum displ.:     0.0030669 α      in ANC's #3, #7, #28, ...

........................................................................
.............................. CYCLE    7 ..............................
........................................................................

 iter      E             dE          RMSdq      gap      omega  full diag
   1    -17.3256675 -0.173257E+02  0.953E-04   11.23       0.0  T
   2    -17.3256675 -0.156192E-09  0.557E-04   11.23      44.9  T
   3    -17.3256675 -0.306848E-10  0.500E-05   11.23     500.0  T
     SCC iter.                  ...        0 min,  0.001 sec
     gradient                   ...        0 min,  0.003 sec
 * total energy  :   -17.0875155 Eh     change       -0.4993799E-07 Eh
   gradient norm :     0.0000427 Eh/α   predicted    -0.2957680E-07 ( -40.77%)
   displ. norm   :     0.0013133 α      lambda       -0.1359670E-07
   maximum displ.:     0.0012643 α      in ANC's #3, #5, #15, ...

   *** GEOMETRY OPTIMIZATION CONVERGED AFTER 7 ITERATIONS ***

------------------------------------------------------------------------
 total energy gain   :        -0.0009456 Eh       -0.5934 kcal/mol
 total RMSD          :         0.0344197 a0        0.0182 Å
 total power (kW/mol):        -0.3546619 (step)  -47.4827 (real)
------------------------------------------------------------------------

 ANCopt (total)                0 d,  0 h,  0 min,  0.052 sec
 optimizer setup                ...        0 min,  0.000 sec (  0.593%)
 model hessian                  ...        0 min,  0.003 sec (  6.638%)
 ANC generation                 ...        0 min,  0.000 sec (  0.709%)
 coordinate transformation      ...        0 min,  0.000 sec (  0.086%)
 single point calculation       ...        0 min,  0.042 sec ( 79.873%)
 optimization log               ...        0 min,  0.005 sec (  9.670%)
 hessian update                 ...        0 min,  0.000 sec (  0.076%)
 rational function              ...        0 min,  0.001 sec (  1.624%)

================
 final structure:
================
$coord
        4.82199699151166       -0.61060179466281       -0.00009974934112      C
        2.42427502804922        0.98610245109307       -0.00007891075023      C
        0.04671678512969       -0.64662839621627        0.00016403979030      C
       -2.37295944743368        0.95212563053340       -0.00009634483625      C
       -4.71363660372277       -0.49201666741927        0.00008866925934      N
        4.88693396833016       -1.81219622464573       -1.66660817254551      H
        6.48815331956521        0.59096733746545       -0.00026823162034      H
        4.88711349853255       -1.81198037949573        1.66655729821004      H
        2.40885608694192        2.20495071072992        1.66545349706963      H
        2.40867397600424        2.20471155861953       -1.66578531200557      H
        0.05362741483482       -1.86609265255266       -1.66892659845052      H
        0.05361322246988       -1.86558497807673        1.66962486720411      H
       -2.39349997625123        2.16913876286258       -1.67050661672270      H
       -2.39353919105871        2.16963758634971        1.66994954221031      H
       -4.76315235071505       -1.62979841252247       -1.54303898665845      H
       -4.76320191190628       -1.62933043487349        1.54355814066650      H
$end
 
 Bond Distances (Angstroems)
 ---------------------------
C1-C2=1.5244         C1-H6=1.0878         C1-H7=1.0870         C1-H8=1.0878         C2-C1=1.5244         C2-C3=1.5263         
C2-H9=1.0922         C2-H10=1.0922        C3-C2=1.5263         C3-C4=1.5347         C3-H11=1.0939        C3-H12=1.0939        
C4-C3=1.5347         C4-N5=1.4554         C4-H13=1.0937        C4-H14=1.0937        N5-C4=1.4554         N5-H15=1.0149        
N5-H16=1.0149        H6-C1=1.0878         H7-C1=1.0870         H8-C1=1.0878         H9-C2=1.0922         H10-C2=1.0922        
H11-C3=1.0939        H12-C3=1.0939        H13-C4=1.0937        H14-C4=1.0937        H15-N5=1.0149        H16-N5=1.0149        
 C  H  Rav=1.0913 sigma=0.0028  Rmin=1.0870  Rmax=1.0939     9
 C  C  Rav=1.5285 sigma=0.0045  Rmin=1.5244  Rmax=1.5347     3
 N  H  Rav=1.0149 sigma=0.0000  Rmin=1.0149  Rmax=1.0149     2
 N  C  Rav=1.4554 sigma=0.0000  Rmin=1.4554  Rmax=1.4554     1
 
 selected bond angles (degree)
 --------------------
H6-C1-C2=110.51                H7-C1-C2=110.54                H7-C1-H6=108.44                H8-C1-C2=110.51                
H8-C1-H6=108.34                H8-C1-H7=108.44                C3-C2-C1=111.86                H9-C2-C1=109.48                
H9-C2-C3=109.15                H10-C2-C1=109.48               H10-C2-C3=109.15               H10-C2-H9=107.61               
C4-C3-C2=112.07                H11-C3-C2=109.34               H11-C3-C4=109.14               H12-C3-C2=109.34               
H12-C3-C4=109.14               H12-C3-H11=107.71              N5-C4-C3=114.87                H13-C4-C3=109.45               
H13-C4-N5=107.50               H14-C4-C3=109.45               H14-C4-N5=107.50               H14-C4-H13=107.82              
H15-N5-C4=109.48               H16-N5-C4=109.48               H16-N5-H15=107.16              
 
 selected dihedral angles (degree)
 ---------------------------------
C3-C2-C1-H6= 59.95            C3-C2-C1-H7=180.00            C3-C2-C1-H8=300.05            H9-C2-C1-H6=181.08            
H9-C2-C1-H7=301.13            H9-C2-C1-H8= 61.17            H10-C2-C1-H6=298.83           H10-C2-C1-H7= 58.87           
H10-C2-C1-H8=178.92           C4-C3-C2-C1=180.01            C4-C3-C2-H9= 58.69            C4-C3-C2-H10=301.32           
H11-C3-C2-C1=301.16           H11-C3-C2-H9=179.84           H11-C3-C2-H10= 62.47          H12-C3-C2-C1= 58.86           
H12-C3-C2-H9=297.54           H12-C3-C2-H10=180.17          N5-C4-C3-C2=180.00            N5-C4-C3-H11= 58.74           
N5-C4-C3-H12=301.26           H13-C4-C3-C2= 58.98           H13-C4-C3-H11=297.72          H13-C4-C3-H12=180.24          
H14-C4-C3-C2=301.02           H14-C4-C3-H11=179.76          H14-C4-C3-H12= 62.28          H15-N5-C4-C3=301.40           
H15-N5-C4-H13= 63.48          H15-N5-C4-H14=179.33          H16-N5-C4-C3= 58.60           H16-N5-C4-H13=180.67          
H16-N5-C4-H14=296.52          
           -------------------------------------------------
          |                Final Singlepoint                |
           -------------------------------------------------

          ...................................................
          :                      SETUP                      :
          :.................................................:
          :  # basis functions                  31          :
          :  # atomic orbitals                  31          :
          :  # shells                           21          :
          :  # electrons                        32          :
          :  max. iterations                   250          :
          :  Hamiltonian                  GFN2-xTB          :
          :  restarted?                      false          :
          :  GBSA solvation                   true          :
          :  PC potential                    false          :
          :  electronic temp.          300.0000000     K    :
          :  accuracy                    1.0000000          :
          :  -> integral cutoff          0.2500000E+02      :
          :  -> integral neglect         0.1000000E-07      :
          :  -> SCF convergence          0.1000000E-05 Eh   :
          :  -> wf. convergence          0.1000000E-03 e    :
          :  Broyden damping             0.4000000          :
          :  net charge                          0          :
          :  unpaired electrons                  0          :
          ...................................................

 iter      E             dE          RMSdq      gap      omega  full diag
   1    -17.3256675 -0.173257E+02  0.256E-05   11.23       0.0  T
   2    -17.3256675 -0.166978E-12  0.155E-05   11.23    1615.1  T
   3    -17.3256675 -0.888178E-13  0.231E-06   11.23   10804.7  T

   *** convergence criteria satisfied after 3 iterations ***

         #    Occupation            Energy/Eh            Energy/eV
      -------------------------------------------------------------
         1        2.0000           -0.6291197             -17.1192
       ...           ...                  ...                  ...
        10        2.0000           -0.4659912             -12.6803
        11        2.0000           -0.4628856             -12.5958
        12        2.0000           -0.4513978             -12.2832
        13        2.0000           -0.4349443             -11.8354
        14        2.0000           -0.4338955             -11.8069
        15        2.0000           -0.4226627             -11.5012
        16        2.0000           -0.3655879              -9.9482 (HOMO)
        17                          0.0472659               1.2862 (LUMO)
        18                          0.0824725               2.2442
        19                          0.1146866               3.1208
        20                          0.1297530               3.5308
        21                          0.1499796               4.0812
       ...                                ...                  ...
        31                          0.3087620               8.4018
      -------------------------------------------------------------
                  HL-Gap            0.4128538 Eh           11.2343 eV
             Fermi-level           -0.1591610 Eh           -4.3310 eV

 SCC (total)                   0 d,  0 h,  0 min,  0.005 sec
 SCC setup                      ...        0 min,  0.001 sec ( 15.943%)
 Dispersion                     ...        0 min,  0.000 sec (  0.828%)
 classical contributions        ...        0 min,  0.000 sec (  0.259%)
 integral evaluation            ...        0 min,  0.001 sec ( 15.390%)
 iterations                     ...        0 min,  0.001 sec ( 17.153%)
 molecular gradient             ...        0 min,  0.003 sec ( 47.819%)
 printout                       ...        0 min,  0.000 sec (  2.393%)

         :::::::::::::::::::::::::::::::::::::::::::::::::::::
         ::                     SUMMARY                     ::
         :::::::::::::::::::::::::::::::::::::::::::::::::::::
         :: total energy             -17.087515463449 Eh    ::
         :: total w/o Gsasa/hb       -17.084237552572 Eh    ::
         :: gradient norm              0.000042580342 Eh/a0 ::
         :: HOMO-LUMO gap             11.234324459832 eV    ::
         ::.................................................::
         :: SCC energy               -17.325661463189 Eh    ::
         :: -> isotropic ES            0.016419591741 Eh    ::
         :: -> anisotropic ES          0.005787236615 Eh    ::
         :: -> anisotropic XC          0.013316016265 Eh    ::
         :: -> dispersion             -0.007634006562 Eh    ::
         :: -> Gsolv                  -0.004569884078 Eh    ::
         ::    -> Gelec               -0.001291973201 Eh    ::
         ::    -> Gsasa               -0.002081541148 Eh    ::
         ::    -> Ghb                 -0.002277129426 Eh    ::
         ::    -> Gshift               0.001080759698 Eh    ::
         :: repulsion energy           0.238145999740 Eh    ::
         :: add. restraining           0.000000000000 Eh    ::
         :: total charge               0.000000000000 e     ::
         :::::::::::::::::::::::::::::::::::::::::::::::::::::

           ------------------------------------------------- 
          |                Numerical Hessian                |
           ------------------------------------------------- 
step length          :   0.00500
SCC accuracy         :   0.30000
Hessian scale factor :   1.00000
frozen atoms in %    :   0.00000    0
RMS gradient         :   0.00004
estimated CPU  time      0.01 min
estimated wall time      0.01 min

writing file <hessian>.

 projected vibrational frequencies (cm⁻¹)
eigval :       -0.00    -0.00    -0.00    -0.00     0.00     0.00
eigval :      100.38   102.56   185.80   233.75   308.93   394.39
eigval :      423.51   774.41   823.55   926.03   927.66   968.61
eigval :     1014.08  1051.66  1090.26  1113.05  1137.59  1209.03
eigval :     1261.64  1268.41  1280.66  1318.15  1331.35  1366.87
eigval :     1411.87  1483.97  1491.26  1496.63  1500.01  1502.19
eigval :     1556.95  2939.36  2948.98  2959.00  2962.05  2964.04
eigval :     2980.32  3024.95  3028.97  3039.02  3386.54  3416.40
           -------------------------------------------------
          |                Property Printout                |
           -------------------------------------------------

    * Orbital Energies and Occupations

         #    Occupation            Energy/Eh            Energy/eV
      -------------------------------------------------------------
         1        2.0000           -0.6291197             -17.1192
       ...           ...                  ...                  ...
         4        2.0000           -0.5650970             -15.3771
         5        2.0000           -0.5572933             -15.1647
         6        2.0000           -0.5301742             -14.4268
         7        2.0000           -0.5040110             -13.7148
         8        2.0000           -0.5032877             -13.6952
         9        2.0000           -0.4938977             -13.4396
        10        2.0000           -0.4659912             -12.6803
        11        2.0000           -0.4628856             -12.5958
        12        2.0000           -0.4513978             -12.2832
        13        2.0000           -0.4349443             -11.8354
        14        2.0000           -0.4338955             -11.8069
        15        2.0000           -0.4226627             -11.5012
        16        2.0000           -0.3655880              -9.9482 (HOMO)
        17                          0.0472659               1.2862 (LUMO)
        18                          0.0824724               2.2442
        19                          0.1146866               3.1208
        20                          0.1297530               3.5308
        21                          0.1499796               4.0812
        22                          0.1620468               4.4095
        23                          0.1720668               4.6822
        24                          0.1746333               4.7520
        25                          0.1897883               5.1644
        26                          0.2039813               5.5506
        27                          0.2326409               6.3305
       ...                                ...                  ...
        31                          0.3087620               8.4018
      -------------------------------------------------------------
                  HL-Gap            0.4128538 Eh           11.2343 eV
             Fermi-level           -0.1591610 Eh           -4.3310 eV

     #   Z          covCN         q      C6AA      α(0)
     1   6 C        3.752    -0.111    22.687     6.792
     2   6 C        3.801    -0.059    21.635     6.622
     3   6 C        3.801    -0.070    21.845     6.655
     4   6 C        3.732     0.012    20.463     6.457
     5   7 N        2.628    -0.393    30.179     8.159
     6   1 H        0.925     0.037     2.483     2.464
     7   1 H        0.925     0.039     2.459     2.452
     8   1 H        0.925     0.037     2.483     2.464
     9   1 H        0.924     0.031     2.566     2.505
    10   1 H        0.924     0.031     2.566     2.505
    11   1 H        0.924     0.029     2.602     2.522
    12   1 H        0.924     0.029     2.602     2.522
    13   1 H        0.924     0.032     2.559     2.502
    14   1 H        0.924     0.032     2.559     2.502
    15   1 H        0.860     0.161     1.327     1.805
    16   1 H        0.860     0.161     1.327     1.805

 Mol. C6AA /au·bohr⁶  :       1655.978091
 Mol. C8AA /au·bohr⁸  :      33684.444858
 Mol. α(0) /au        :         60.733655


Wiberg/Mayer (AO) data.
largest (>0.10) Wiberg bond orders for each atom

 ---------------------------------------------------------------------------
     #   Z sym  total        # sym  WBO       # sym  WBO       # sym  WBO
 ---------------------------------------------------------------------------
     1   6 C    3.996 --     2 C    1.019     8 H    0.988     6 H    0.988
                             7 H    0.987
     2   6 C    3.997 --     1 C    1.019     3 C    1.007     9 H    0.978
                            10 H    0.978
     3   6 C    3.997 --     2 C    1.007     4 C    0.993    12 H    0.977
                            11 H    0.977
     4   6 C    3.985 --     5 N    1.027     3 C    0.993    14 H    0.976
                            13 H    0.976
     5   7 N    2.994 --     4 C    1.027    16 H    0.961    15 H    0.961
     6   1 H    0.999 --     1 C    0.988
     7   1 H    0.998 --     1 C    0.987
     8   1 H    0.999 --     1 C    0.988
     9   1 H    0.999 --     2 C    0.978
    10   1 H    0.999 --     2 C    0.978
    11   1 H    0.999 --     3 C    0.977
    12   1 H    0.999 --     3 C    0.977
    13   1 H    0.999 --     4 C    0.976
    14   1 H    0.999 --     4 C    0.976
    15   1 H    0.974 --     5 N    0.961
    16   1 H    0.974 --     5 N    0.961
 ---------------------------------------------------------------------------

Topologies differ in total number of bonds
Writing topology from bond orders to xtbtopo.mol

molecular dipole:
                 x           y           z       tot (Debye)
 q only:        0.227      -0.209       0.000
   full:        0.476      -0.461       0.000       1.684
molecular quadrupole (traceless):
                xx          xy          yy          xz          yz          zz
 q only:       -1.707       1.854       1.019      -0.000      -0.000       0.687
  q+dip:       -6.156       3.494       2.541      -0.001       0.000       3.615
   full:       -5.503       3.704       2.505      -0.001       0.000       2.999

           -------------------------------------------------
          |                Geometry Summary                 |
           -------------------------------------------------

      molecular mass/u    :       73.1369951
   center of mass at/Å    :       -0.0000085       0.0000148      -0.0000006
  moments of inertia/u·Å² :        0.2837301E+02   0.2563714E+03   0.2694918E+03
rotational constants/cm⁻¹ :        0.5941433E+00   0.6575473E-01   0.6255341E-01

 * 15 selected distances

     #   Z          #   Z                                           value/Å
     1   6 C        2   6 C                                       1.5244104
     2   6 C        3   6 C                                       1.5262516
     3   6 C        4   6 C                                       1.5346914 (max)
     4   6 C        5   7 N                                       1.4554122
     1   6 C        6   1 H                                       1.0877517
     1   6 C        7   1 H                                       1.0870498
     1   6 C        8   1 H                                       1.0877517
     2   6 C        9   1 H                                       1.0921874
     2   6 C       10   1 H                                       1.0921877
     3   6 C       11   1 H                                       1.0938754
     3   6 C       12   1 H                                       1.0938751
     4   6 C       13   1 H                                       1.0937229
     4   6 C       14   1 H                                       1.0937228
     5   7 N       15   1 H                                       1.0148955
     5   7 N       16   1 H                                       1.0148948 (min)

 * 4 distinct bonds (by element types)

   Z      Z             #   av. dist./Å        max./Å        min./Å
   1 H    6 C           9     1.0913471     1.0938754     1.0870498
   6 C    6 C           3     1.5284511     1.5346914     1.5244104
   1 H    7 N           2     1.0148952     1.0148955     1.0148948
   6 C    7 N           1     1.4554122     1.4554122     1.4554122

           -------------------------------------------------
          |               Frequency Printout                |
           -------------------------------------------------
 projected vibrational frequencies (cm⁻¹)
eigval :       -0.00    -0.00    -0.00    -0.00     0.00     0.00
eigval :      100.38   102.56   185.80   233.75   308.93   394.39
eigval :      423.51   774.41   823.55   926.03   927.66   968.61
eigval :     1014.08  1051.66  1090.26  1113.05  1137.59  1209.03
eigval :     1261.64  1268.41  1280.66  1318.15  1331.35  1366.87
eigval :     1411.87  1483.97  1491.26  1496.63  1500.01  1502.19
eigval :     1556.95  2939.36  2948.98  2959.00  2962.05  2964.04
eigval :     2980.32  3024.95  3028.97  3039.02  3386.54  3416.40
 reduced masses (amu)
   1:  7.89   2:  9.89   3: 10.72   4: 10.53   5: 10.52   6:  8.39   7:  8.61   8:  5.51
   9:  9.26  10:  2.12  11:  2.26  12:  9.65  13:  9.01  14:  1.72  15:  2.26  16:  2.47
  17:  6.10  18:  6.11  19:  1.58  20:  9.22  21:  8.99  22:  9.25  23:  7.96  24:  5.79
  25:  3.76  26:  3.45  27:  1.61  28:  2.93  29:  3.67  30:  5.08  31:  3.20  32:  1.90
  33:  1.99  34:  1.80  35:  1.53  36:  1.63  37:  2.03  38:  1.91  39:  2.01  40:  1.44
  41:  1.49  42:  2.00  43:  1.48  44:  1.95  45:  1.88  46:  1.31  47:  1.51  48:  2.08
 IR intensities (km·mol⁻¹)
   1:  0.61   2:  0.38   3:  0.00   4:  0.00   5:  0.42   6:  1.31   7:  0.76   8:  2.33
   9:  2.09  10:  0.02  11: 58.87  12:  0.34  13:  5.30  14: 13.73  15:  0.05  16:  2.44
  17: 49.46  18:152.28  19:  0.35  20: 55.82  21: 20.04  22:  3.75  23: 15.66  24:  1.55
  25:  0.49  26: 17.04  27:  0.14  28:  1.79  29:  8.30  30:  6.23  31:  0.14  32:  1.06
  33:  3.67  34:  0.13  35:  1.31  36:  0.25  37: 36.29  38:  1.96  39:136.31  40:  6.44
  41:127.89  42:145.16  43: 93.55  44: 90.72  45: 84.90  46: 44.93  47: 10.91  48:  6.46
 Raman intensities (Ä⁴*amu⁻¹)
   1:  0.00   2:  0.00   3:  0.00   4:  0.00   5:  0.00   6:  0.00   7:  0.00   8:  0.00
   9:  0.00  10:  0.00  11:  0.00  12:  0.00  13:  0.00  14:  0.00  15:  0.00  16:  0.00
  17:  0.00  18:  0.00  19:  0.00  20:  0.00  21:  0.00  22:  0.00  23:  0.00  24:  0.00
  25:  0.00  26:  0.00  27:  0.00  28:  0.00  29:  0.00  30:  0.00  31:  0.00  32:  0.00
  33:  0.00  34:  0.00  35:  0.00  36:  0.00  37:  0.00  38:  0.00  39:  0.00  40:  0.00
  41:  0.00  42:  0.00  43:  0.00  44:  0.00  45:  0.00  46:  0.00  47:  0.00  48:  0.00
 output can be read by thermo (or use thermo option).
 writing <g98.out> molden fake output.
 recommended (thermochemical) frequency scaling factor: 1.0
           -------------------------------------------------
          |             Thermodynamic Functions             |
           -------------------------------------------------

Molecule has the following symmetry elements: (sigma) 
It seems to be the Cs point group
cs  symmetry found (for desy threshold:  0.10E+00) used in thermo

          ...................................................
          :                      SETUP                      :
          :.................................................:
          :  # frequencies                          42      :
          :  # imaginary freq.                       0      :
          :  linear?                             false      :
          :  only rotor calc.                    false      :
          :  symmetry                               cs      :
          :  rotational number                       1      :
          :  scaling factor                  1.0000000      :
          :  rotor cutoff                    0.0000000 cm⁻¹ :
          :  imag. cutoff                 -100.0000000 cm⁻¹ :
          :.................................................:

    mode    ω/cm⁻¹     T·S(HO)/kcal·mol⁻¹    T·S(FR)/kcal·mol⁻¹   T·S(vib)
   ------------------------------------------------------------------------
       1    100.38    -1.02767 (100.00%)    -0.84980 (  0.00%)    -1.02767
       2    102.56    -1.01521 (100.00%)    -0.84346 (  0.00%)    -1.01521
       3    185.80    -0.67661 (100.00%)    -0.66755 (  0.00%)    -0.67661
       4    233.75    -0.55157 (100.00%)    -0.59956 (  0.00%)    -0.55157
   ------------------------------------------------------------------------

   temp. (K)  partition function   enthalpy   heat capacity  entropy
                                   cal/mol     cal/K/mol   cal/K/mol   J/K/mol
 298.15  VIB   32.8                 2585.399     17.871     15.609
         ROT  0.107E+06              888.752      2.981     25.994
         INT  0.351E+07             3474.152     20.852     41.603
         TR   0.605E+27             1481.254      4.968     38.768
         TOT                        4955.4057    25.8197    80.3710   336.2723

       T/K    H(0)-H(T)+PV         H(T)/Eh          T*S/Eh         G(T)/Eh
   ------------------------------------------------------------------------
    298.15    0.789694E-02    0.155305E+00    0.381869E-01    0.117119E+00
   ------------------------------------------------------------------------

         :::::::::::::::::::::::::::::::::::::::::::::::::::::
         ::                  THERMODYNAMIC                  ::
         :::::::::::::::::::::::::::::::::::::::::::::::::::::
         :: total free energy         -16.970396939796 Eh   ::
         ::.................................................::
         :: total energy              -17.087515463383 Eh   ::
         :: zero point energy           0.147408440860 Eh   ::
         :: G(RRHO) w/o ZPVE           -0.030289917273 Eh   ::
         :: G(RRHO) contrib.            0.117118523587 Eh   ::
         :::::::::::::::::::::::::::::::::::::::::::::::::::::

optimized geometry written to: xtbopt.coord


           -------------------------------------------------
          | TOTAL ENERGY              -17.087515463383 Eh   |
          | TOTAL ENTHALPY            -16.932210080951 Eh   |
          | TOTAL FREE ENERGY         -16.970396939796 Eh   |
          | GRADIENT NORM               0.000042579569 Eh/α |
          | HOMO-LUMO GAP              11.234324953677 eV   |
           -------------------------------------------------

------------------------------------------------------------------------
 * finished run on 2025/04/11 at 12:43:50.584     
------------------------------------------------------------------------
 total:
 * wall-time:     0 d,  0 h,  0 min,  0.741 sec
 *  cpu-time:     0 d,  0 h,  0 min,  0.642 sec
 * ratio c/w:     0.865 speedup
 SCF:
 * wall-time:     0 d,  0 h,  0 min,  0.022 sec
 *  cpu-time:     0 d,  0 h,  0 min,  0.010 sec
 * ratio c/w:     0.431 speedup
 ANC optimizer:
 * wall-time:     0 d,  0 h,  0 min,  0.069 sec
 *  cpu-time:     0 d,  0 h,  0 min,  0.054 sec
 * ratio c/w:     0.787 speedup
 analytical hessian:
 * wall-time:     0 d,  0 h,  0 min,  0.578 sec
 *  cpu-time:     0 d,  0 h,  0 min,  0.567 sec
 * ratio c/w:     0.981 speedup

