16
 energy: -17.086569878442 gnorm: 0.023425550210 xtb: 6.7.1 (edcfbbe)
C            2.55442648152493       -0.32262842994234       -0.00009979195460
C            1.28132058643994        0.51876589812503        0.00001666082822
C            0.01169317621800       -0.33185881939201        0.00015837666275
C           -1.26209455336704        0.50834639850852       -0.00007050126884
N           -2.52120648395277       -0.26058521828894       -0.00000770398048
H            2.59756515749522       -0.96786965838967       -0.88470326386023
H            3.45110353881322        0.30576663878767       -0.00024812184651
H            2.59779989860998       -0.96779051018481        0.88454958067461
H            1.27449043758779        1.17649213967387        0.87919988429112
H            1.27431219317553        1.17644650615903       -0.87919989480627
H            0.00929777291981       -0.98807778675304       -0.88194533548750
H            0.00923794309165       -0.98771279354503        0.88253311804100
H           -1.26217031165462        1.16570846665070       -0.87843935646893
H           -1.26228239491146        1.16604946133443        0.87804321993088
H           -2.50341671751547       -0.88316857575843       -0.80410618879998
H           -2.50351751780464       -0.88288550621501        0.80431250831698
16
 energy: -17.087372905857 gnorm: 0.009098941762 xtb: 6.7.1 (edcfbbe)
C            2.54495866652811       -0.32531894340474       -0.00009349106749
C            1.27928996833675        0.52063302392410        0.00000789505346
C            0.01893817519308       -0.33946647079233        0.00014870552305
C           -1.25237445426569        0.51165795413687       -0.00007014337988
N           -2.49656496869618       -0.25912173952865        0.00000091596919
H            2.58285097384086       -0.96335885521472       -0.88301174299370
H            3.42971274817735        0.30956658920829       -0.00022962901670
H            2.58306027460039       -0.96327469806077        0.88287617465177
H            1.27288758599627        1.16882470959397        0.88166017794358
H            1.27271968906419        1.16876953294695       -0.88168451698423
H            0.02189183211538       -0.98828571053744       -0.88333205392496
H            0.02183835052064       -0.98793203773560        0.88388872277337
H           -1.26754970904046        1.15838709343622       -0.88372974201468
H           -1.26764688514868        1.15871492465800        0.88334732503764
H           -2.49868226297998       -0.87253995366691       -0.81176259975607
H           -2.49877077757198       -0.87225720819328        0.81197719245790
16
 energy: -17.087495080434 gnorm: 0.003464922022 xtb: 6.7.1 (edcfbbe)
C            2.54887485614312       -0.32506901162946       -0.00008479151582
C            1.28319824803926        0.52200776670542       -0.00000377308262
C            0.02311089117224       -0.33838685269558        0.00013447011754
C           -1.25454446050297        0.50739758206397       -0.00006573954588
N           -2.49333073510197       -0.26071355515491        0.00001146485317
H            2.58170851105402       -0.96071519967114       -0.88163221341299
H            3.43132983711444        0.30893752933648       -0.00020794429883
H            2.58188891985814       -0.96062712665868        0.88151947919212
H            1.27588809956307        1.16654943742783        0.88152233096648
H            1.27573499691462        1.16647991825977       -0.88158026357190
H            0.02630296202676       -0.98376241026218       -0.88305439789186
H            0.02625914058016       -0.98342605249022        0.88356838074080
H           -1.27003777031475        1.15026137685818       -0.88449873153953
H           -1.27011724835332        1.15057446784010        0.88413783109075
H           -2.50981598127042       -0.86739411061509       -0.81550940261319
H           -2.50989106025235       -0.86711554854454        0.81573649078399
16
 energy: -17.087511876056 gnorm: 0.001382601696 xtb: 6.7.1 (edcfbbe)
C            2.55018205269092       -0.32464464253786       -0.00007674816283
C            1.28352932664224        0.52323774001384       -0.00001405408799
C            0.02442569213642       -0.33959568053986        0.00012219431250
C           -1.25563235124927        0.50555685990014       -0.00006181460157
N           -2.49306079132742       -0.26175496846864        0.00002076512201
H            2.58264479351518       -0.96024195122708       -0.88172886577531
H            3.43277112464944        0.30922899403086       -0.00018912311022
H            2.58280064610870       -0.96014888593474        0.88163677771570
H            1.27619232891780        1.16766678489138        0.88138396293793
H            1.27605355266904        1.16758254990675       -0.88147321504292
H            0.02787687465436       -0.98461206206180       -0.88308214809861
H            0.02784247110237       -0.98429291204831        0.88355894792997
H           -1.26886658352906        1.14871400523062       -0.88416541912010
H           -1.26893083046249        1.14901406084888        0.88382222372168
H           -2.51560270897379       -0.86549201586180       -0.81629688713574
H           -2.51566639087439       -0.86521966537240        0.81653659366771
16
 energy: -17.087514812420 gnorm: 0.000587716094 xtb: 6.7.1 (edcfbbe)
C            2.55182433145999       -0.32347784709466       -0.00006383138855
C            1.28327435340859        0.52267803324166       -0.00002947929082
C            0.02494087225033       -0.34142699984458        0.00010292848621
C           -1.25654259538304        0.50382454314971       -0.00005579908083
N           -2.49429839807232       -0.26143205210202        0.00003489637966
H            2.58520615684251       -0.95938883375835       -0.88204752656900
H            3.43441956699642        0.31129233534990       -0.00016123287088
H            2.58532630378847       -0.95928689214608        0.88198870888600
H            1.27561987828009        1.16759489877140        0.88134941839347
H            1.27550408011660        1.16748703921707       -0.88148673642065
H            0.02891173399535       -0.98669288445662       -0.88316154735423
H            0.02889238837545       -0.98640110056218        0.88358013281723
H           -1.26739317129677        1.14793986327515       -0.88390556727633
H           -1.26743366538649        1.14822012000903        0.88358901478881
H           -2.52082366679784       -0.86309666025715       -0.81653354453468
H           -2.52086896190730       -0.86283535202229        0.81679335530682
16
 energy: -17.087515413504 gnorm: 0.000080565596 xtb: 6.7.1 (edcfbbe)
C            2.55149635355786       -0.32333262662465       -0.00005962103501
C            1.28297111452113        0.52219355719780       -0.00003396949655
C            0.02480445783868       -0.34184092058866        0.00009695937944
C           -1.25587642456659        0.50391639625108       -0.00005404384100
N           -2.49424130372325       -0.26073046621363        0.00003936671533
H            2.58561542066086       -0.95921420329913       -0.88196614013174
H            3.43349505721684        0.31212096894970       -0.00015416791393
H            2.58572657591040       -0.95910774095944        0.88191927218063
H            1.27503109964298        1.16717567725528        0.88135070231109
H            1.27492260019374        1.16706062525067       -0.88150227817238
H            0.02849065329608       -0.98716260003020       -0.88316264716479
H            0.02847564944788       -0.98687947762204        0.88356297576535
H           -1.26688382158013        1.14795330959270       -0.88399648751911
H           -1.26691696564706        1.14822753062444        0.88368790996745
H           -2.52025666999478       -0.86281892645101       -0.81652102941577
H           -2.52029459010460       -0.86256289256293        0.81678638864321
16
 energy: -17.087515463442 gnorm: 0.000042686999 xtb: 6.7.1 (edcfbbe)
C            2.55169091895799       -0.32311655467294       -0.00005278507812
C            1.28287109780850        0.52182294473552       -0.00004175777072
C            0.02472145805735       -0.34218101120137        0.00008680611871
C           -1.25571606198242        0.50384318559634       -0.00005098349173
N           -2.49434907117534       -0.26036400778345        0.00004692175135
H            2.58605408723538       -0.95897294376968       -0.88193106441827
H            3.43338287756824        0.31272644737562       -0.00014194206073
H            2.58614909052715       -0.95885872343522        0.88190414287931
H            1.27471174555824        1.16680966728594        0.88132003647044
H            1.27461537660016        1.16668311343918       -0.88149562537278
H            0.02837840581031       -0.98749370516718       -0.88315792257237
H            0.02837089553421       -0.98722505540396        0.88352743048386
H           -1.26658564173260        1.14785880059644       -0.88399403223482
H           -1.26660639331504        1.14812276661809        0.88369924109808
H           -2.52055167606457       -0.86245217827521       -0.81654106727682
H           -2.52057790271751       -0.86220453516816        0.81681579174682
