
                                 *****************
                                 * O   R   C   A *
                                 *****************

                                            #,                                       
                                            ###                                      
                                            ####                                     
                                            #####                                    
                                            ######                                   
                                           ########,                                 
                                     ,,################,,,,,                         
                               ,,#################################,,                 
                          ,,##########################################,,             
                       ,#########################################, ''#####,          
                    ,#############################################,,   '####,        
                  ,##################################################,,,,####,       
                ,###########''''           ''''###############################       
              ,#####''   ,,,,##########,,,,          '''####'''          '####       
            ,##' ,,,,###########################,,,                        '##       
           ' ,,###''''                  '''############,,,                           
         ,,##''                                '''############,,,,        ,,,,,,###''
      ,#''                                            '''#######################'''  
     '                                                          ''''####''''         
             ,#######,   #######,   ,#######,      ##                                
            ,#'     '#,  ##    ##  ,#'     '#,    #''#        ,####,   ,####,        
            ##       ##  ##   ,#'  ##            #'  '#       #'       #'  '#        
            ##       ##  #######   ##           ,######,      #####,   #    #        
            '#,     ,#'  ##    ##  '#,     ,#' ,#      #,     #,   #   #,  ,#        
             '#######'   ##     ##  '#######'  #'      '#     '####' # '####'        



                #########################################################
                #                        -***-                          #
                #          Department of theory and spectroscopy        #
                #                                                       #
                #                      Frank Neese                      #
                #                                                       #
                #     Directorship, Architecture, Infrastructure        #
                #                    SHARK, DRIVERS                     #
                #        Core code/Algorithms in most modules           #
                #                                                       #
                #        Max Planck Institute fuer Kohlenforschung      #
                #                Kaiser Wilhelm Platz 1                 #
                #                 D-45470 Muelheim/Ruhr                 #
                #                      Germany                          #
                #                                                       #
                #                  All rights reserved                  #
                #                        -***-                          #
                #########################################################


                         Program Version 6.0.0  -   RELEASE  -


 With contributions from (in alphabetic order):
   Daniel Aravena         : Magnetic Suceptibility
   Michael Atanasov       : Ab Initio Ligand Field Theory (pilot matlab implementation)
   Alexander A. Auer      : GIAO ZORA, VPT2 properties, NMR spectrum
   Ute Becker             : All parallelization in ORCA, NUMFREQ, NUMCALC
   Giovanni Bistoni       : ED, misc. LED, open-shell LED, HFLD
   Martin Brehm           : Molecular dynamics
   Dmytro Bykov           : pre 5.0 version of the SCF Hessian
   Marcos Casanova-Páez   : Triplet and SCS-CIS(D). UHF-(DLPNO)-IP/EA/STEOM-CCSD. UHF-CVS-IP/STEOM-CCSD
   Vijay G. Chilkuri      : MRCI spin determinant printing, contributions to CSF-ICE
   Pauline Colinet        : FMM embedding
   Dipayan Datta          : RHF DLPNO-CCSD density
   Achintya Kumar Dutta   : EOM-CC, STEOM-CC
   Nicolas Foglia         : Exact transition moments, OPA infrastructure, MCD improvements
   Dmitry Ganyushin       : Spin-Orbit,Spin-Spin,Magnetic field MRCI
   Miquel Garcia          : C-PCM and meta-GGA Hessian, CCSD/C-PCM, Gaussian charge scheme
   Tiago L. C. Gouveia    : GS-ROHF, GS-ROCIS
   Yang Guo               : DLPNO-NEVPT2, F12-NEVPT2, CIM, IAO-localization
   Andreas Hansen         : Spin unrestricted coupled pair/coupled cluster methods
   Ingolf Harden          : AUTO-CI MPn and infrastructure 
   Benjamin Helmich-Paris : MC-RPA, TRAH-(SCF,CASSCF), AVAS, COSX integrals, SCF dyn. polar.
   Lee Huntington         : MR-EOM, pCC
   Robert Izsak           : Overlap fitted RIJCOSX, COSX-SCS-MP3, EOM
   Riya Kayal             : Wick's Theorem for AUTO-CI, AUTO-CI UHF-CCSDT
   Emily Kempfer          : AUTO-CI, RHF CISDT and CCSDT
   Christian Kollmar      : KDIIS, OOCD, Brueckner-CCSD(T), CCSD density, CASPT2, CASPT2-K, improved NEVPT2
   Axel Koslowski         : Symmetry handling
   Simone Kossmann        : Meta GGA functionals, TD-DFT gradient, OOMP2, (MP2 Hessian; deprecated post 5.0)
   Lucas Lang             : DCDCAS
   Marvin Lechner         : AUTO-CI (C++ implementation), FIC-MRCC
   Spencer Leger          : CASSCF response
   Dagmar Lenk            : GEPOL surface, SMD, ORCA-2-JSON
   Dimitrios Liakos       : Extrapolation schemes; Compound Job, initial MDCI parallelization
   Dimitrios Manganas     : Further ROCIS development; embedding schemes. LFT, Crystal Embedding
   Dimitrios Pantazis     : SARC Basis sets
   Anastasios Papadopoulos: AUTO-CI, single reference methods and gradients
   Taras Petrenko         : pre 6.0 DFT Hessian and TD-DFT gradient, (ASA, deprecated), ECA, 1-Electron XAS/XES, NRVS
   Peter Pinski           : DLPNO-MP2, DLPNO-MP2 Gradient
   Christoph Reimann      : Effective Core Potentials
   Marius Retegan         : Local ZFS, SOC
   Christoph Riplinger    : Optimizer, TS searches, QM/MM, DLPNO-CCSD(T), (RO)-DLPNO pert. Triples
   Michael Roemelt        : Original ROCIS implementation
   Masaaki Saitow         : Open-shell DLPNO-CCSD energy and density
   Barbara Sandhoefer     : DKH picture change effects
   Kantharuban Sivalingam : CASSCF convergence/infrastructure, NEVPT2 and variants, FIC-MRCI
   Bernardo de Souza      : ESD, SOC TD-DFT
   Georgi Stoychev        : AutoAux, RI-MP2 NMR, DLPNO-MP2 response, X2C
   Van Anh Tran           : RI-MP2 g-tensors
   Willem Van den Heuvel  : Paramagnetic NMR
   Zikuan Wang            : NOTCH, Electric field optimization 
   Frank Wennmohs         : Technical directorship and infrastructure
   Hang Xu                : AUTO-CI-Response properties 


 We gratefully acknowledge several colleagues who have allowed us to
 interface, adapt or use parts of their codes:
   Stefan Grimme, W. Hujo, H. Kruse, P. Pracht,  : VdW corrections, initial TS optimization,
                  C. Bannwarth, S. Ehlert,         DFT functionals, gCP, sTDA/sTD-DF
                  L. Wittmann, M. Mueller
   Ed Valeev, F. Pavosevic, A. Kumar             : LibInt (2-el integral package), F12 methods
   Garnet Chan, S. Sharma, J. Yang, R. Olivares  : DMRG
   Ulf Ekstrom                                   : XCFun DFT Library
   Mihaly Kallay                                 : mrcc  (arbitrary order and MRCC methods)
   Frank Weinhold                                : gennbo (NPA and NBO analysis)
   Simon Mueller                                 : openCOSMO-RS
   Christopher J. Cramer and Donald G. Truhlar   : smd solvation model
   Lars Goerigk                                  : TD-DFT with DH, B97 family of functionals
   V. Asgeirsson, H. Jonsson                     : NEB implementation
   FAccTs GmbH                                   : IRC, NEB, NEB-TS, DLPNO-Multilevel, CI-OPT
                                                   MM, QMMM, 2- and 3-layer-ONIOM, Crystal-QMMM,
                                                   LR-CPCM, SF, NACMEs, symmetry and pop. for TD-DFT,
                                                   nearIR, NL-DFT gradient (VV10), updates on ESD,
                                                   ML-optimized integration grids, MBIS, APM,
                                                   GOAT, DOCKER, SOLVATOR, interface openCOSMO-RS
   S Lehtola, MJT Oliveira, MAL Marques          : LibXC Library
   Liviu Ungur et al                             : ANISO software


 Your calculation uses the libint2 library for the computation of 2-el integrals
 For citations please refer to: http://libint.valeyev.net

 Your ORCA version has been built with support for libXC version: 6.2.2
 For citations please refer to: https://libxc.gitlab.io

 This ORCA versions uses:
   CBLAS   interface :  Fast vector & matrix operations
   LAPACKE interface :  Fast linear algebra routines
   SCALAPACK package :  Parallel linear algebra routines
   Shared memory     :  Shared parallel matrices
   BLAS/LAPACK       :  OpenBLAS 0.3.27  USE64BITINT DYNAMIC_ARCH NO_AFFINITY SkylakeX SINGLE_THREADED
        Core in use  :  SkylakeX
   Copyright (c) 2011-2014, The OpenBLAS Project


Your calculation utilizes the geometrical counterpoise correction gCP
Please cite in your paper:
H.Kruse, S. Grimme J.Chem.Phys., 136, (2012), 154101 
   

Your calculation utilizes the atom-pairwise dispersion correction
based on EEQ partial charges (D4)


Your calculation utilizes the SMD solvation module
Please cite in your paper:
A.V. Marenich, C.J. Cramer, D.G. Truhlar J. Phys. Chem. B, 113, (2009), 6378 

================================================================================

----- Orbital basis set information -----
Your calculation utilizes the basis: def2-mTZVPP
   Stefan Grimme, Andreas Hansen, Sebastian Ehlert, and Jan-Michael Mewes 
   J. Chem. Phys. 154, 064103 (2021). DOI: 10.1063/5.0040021

----- AuxJ basis set information -----
Your calculation utilizes the auxiliary basis: def2/J
   F. Weigend, Phys. Chem. Chem. Phys. 8, 1057 (2006).

================================================================================
                                        WARNINGS
                       Please study these warnings very carefully!
================================================================================

Using LibXC functional ID 497 : Re-regularized SCAN exchange by Furness et al
[ 1]  J. W. Furness, A. D. Kaplan, J. Ning, J. P. Perdew, and J. Sun.,  J. Phys. Chem. Lett. 11, 8208-8215 (2020)
[ 2]  J. W. Furness, A. D. Kaplan, J. Ning, J. P. Perdew, and J. Sun.,  J. Phys. Chem. Lett. 11, 9248-9248 (2020)
Using LibXC functional ID 498 : Re-regularized SCAN correlation by Furness et al
[ 1]  J. W. Furness, A. D. Kaplan, J. Ning, J. P. Perdew, and J. Sun.,  J. Phys. Chem. Lett. 11, 8208-8215 (2020)
[ 2]  J. W. Furness, A. D. Kaplan, J. Ning, J. P. Perdew, and J. Sun.,  J. Phys. Chem. Lett. 11, 9248-9248 (2020)
Using LibXC functional ID 497 : Re-regularized SCAN exchange by Furness et al
[ 1]  J. W. Furness, A. D. Kaplan, J. Ning, J. P. Perdew, and J. Sun.,  J. Phys. Chem. Lett. 11, 8208-8215 (2020)
[ 2]  J. W. Furness, A. D. Kaplan, J. Ning, J. P. Perdew, and J. Sun.,  J. Phys. Chem. Lett. 11, 9248-9248 (2020)
Using LibXC functional ID 498 : Re-regularized SCAN correlation by Furness et al
[ 1]  J. W. Furness, A. D. Kaplan, J. Ning, J. P. Perdew, and J. Sun.,  J. Phys. Chem. Lett. 11, 8208-8215 (2020)
[ 2]  J. W. Furness, A. D. Kaplan, J. Ning, J. P. Perdew, and J. Sun.,  J. Phys. Chem. Lett. 11, 9248-9248 (2020)

================================================================================
                                       INPUT FILE
================================================================================
NAME = sp_solv.inp
|  1> ! r2scan-3c def2/J RI DEFGRID2 scfconv6 printgap
|  2> %output
|  3>     printlevel normal
|  4> end
|  5> %cpcm
|  6>     smd true
|  7>     smdsolvent "water"
|  8> end
|  9> * xyz 0 1
| 10> C 3.1229033678 -0.8714777555 0.35514709
| 11> C 2.6709940053 0.4032040799 -0.3487972199
| 12> C 1.3324710609 0.9346598828 0.1660166381
| 13> C 0.1586430414 0.0139517102 -0.1734523137
| 14> C -1.1518343138 0.6422636158 0.264578023
| 15> Cl -2.5376173808 -0.4391738199 -0.1206677024
| 16> H 2.4474076721 -1.6960509068 0.1445782592
| 17> H 3.1581515547 -0.7189994769 1.4313943969
| 18> H 4.1165301596 -1.1548922314 0.0166764747
| 19> H 3.4282692518 1.1752543764 -0.1977104674
| 20> H 2.5970459525 0.2181752112 -1.4222553102
| 21> H 1.1500356427 1.9149484425 -0.2788297098
| 22> H 1.3889456482 1.0651123531 1.248227365
| 23> H 0.2785066374 -0.946719341 0.3276221695
| 24> H 0.1337312893 -0.1657375438 -1.2497465543
| 25> H -1.1812492378 0.800623456 1.3412304747
| 26> H -1.3445815209 1.5783942252 -0.2566856334
| 27> *
| 28> 
| 29>                          ****END OF INPUT****
================================================================================

                       ****************************
                       * Single Point Calculation *
                       ****************************

---------------------------------
CARTESIAN COORDINATES (ANGSTROEM)
---------------------------------
  C      3.122903   -0.871478    0.355147
  C      2.670994    0.403204   -0.348797
  C      1.332471    0.934660    0.166017
  C      0.158643    0.013952   -0.173452
  C     -1.151834    0.642264    0.264578
  Cl    -2.537617   -0.439174   -0.120668
  H      2.447408   -1.696051    0.144578
  H      3.158152   -0.718999    1.431394
  H      4.116530   -1.154892    0.016676
  H      3.428269    1.175254   -0.197710
  H      2.597046    0.218175   -1.422255
  H      1.150036    1.914948   -0.278830
  H      1.388946    1.065112    1.248227
  H      0.278507   -0.946719    0.327622
  H      0.133731   -0.165738   -1.249747
  H     -1.181249    0.800623    1.341230
  H     -1.344582    1.578394   -0.256686

----------------------------
CARTESIAN COORDINATES (A.U.)
----------------------------
  NO LB      ZA    FRAG     MASS         X           Y           Z
   0 C     6.0000    0    12.011    5.901432   -1.646854    0.671131
   1 C     6.0000    0    12.011    5.047447    0.761945   -0.659131
   2 C     6.0000    0    12.011    2.518005    1.766251    0.313726
   3 C     6.0000    0    12.011    0.299792    0.026365   -0.327777
   4 C     6.0000    0    12.011   -2.176651    1.213702    0.499980
   5 Cl   17.0000    0    35.453   -4.795402   -0.829918   -0.228029
   6 H     1.0000    0     1.008    4.624930   -3.205072    0.273213
   7 H     1.0000    0     1.008    5.968042   -1.358712    2.704943
   8 H     1.0000    0     1.008    7.779115   -2.182430    0.031514
   9 H     1.0000    0     1.008    6.478490    2.220909   -0.373619
  10 H     1.0000    0     1.008    4.907706    0.412291   -2.687673
  11 H     1.0000    0     1.008    2.173252    3.618728   -0.526912
  12 H     1.0000    0     1.008    2.624727    2.012771    2.358808
  13 H     1.0000    0     1.008    0.526301   -1.789040    0.619116
  14 H     1.0000    0     1.008    0.252716   -0.313199   -2.361679
  15 H     1.0000    0     1.008   -2.232238    1.512959    2.534558
  16 H     1.0000    0     1.008   -2.540891    2.982733   -0.485066

--------------------------------
INTERNAL COORDINATES (ANGSTROEM)
--------------------------------
 C      0   0   0     0.000000000000     0.00000000     0.00000000
 C      1   0   0     1.524655188839     0.00000000     0.00000000
 C      2   1   0     1.529418926099   113.23528394     0.00000000
 C      3   2   1     1.529972198340   112.80909679   292.65067397
 C      4   3   2     1.517892395751   110.44172706   184.42750497
 Cl     5   4   3     1.799532135044   110.75142199   180.38926150
 H      1   2   3     1.086533271124   111.14487351    65.34831283
 H      1   2   3     1.087566239699   110.44411313   304.78898869
 H      1   2   3     1.087281161409   110.18590580   185.10543345
 H      2   1   3     1.091949937528   108.76433756   120.50021498
 H      2   1   3     1.091794975440   109.41096842   237.81134278
 H      3   2   1     1.091850088305   108.72791448   171.91504257
 H      3   2   1     1.091506886573   109.26811177    54.52762087
 H      4   3   2     1.090106319573   110.11947904    63.87826932
 H      4   3   2     1.091475201617   109.59535343   305.08600742
 H      5   4   3     1.088633812856   111.65049236   298.46504700
 H      5   4   3     1.088672495833   111.75380598    62.27929808

---------------------------
INTERNAL COORDINATES (A.U.)
---------------------------
 C      0   0   0     0.000000000000     0.00000000     0.00000000
 C      1   0   0     2.881180755568     0.00000000     0.00000000
 C      2   1   0     2.890182914363   113.23528394     0.00000000
 C      3   2   1     2.891228447375   112.80909679   292.65067397
 C      4   3   2     2.868400928732   110.44172706   184.42750497
 Cl     5   4   3     3.400622904424   110.75142199   180.38926150
 H      1   2   3     2.053250317817   111.14487351    65.34831283
 H      1   2   3     2.055202345531   110.44411313   304.78898869
 H      1   2   3     2.054663625634   110.18590580   185.10543345
 H      2   1   3     2.063486333881   108.76433756   120.50021498
 H      2   1   3     2.063193497973   109.41096842   237.81134278
 H      3   2   1     2.063297646195   108.72791448   171.91504257
 H      3   2   1     2.062649088911   109.26811177    54.52762087
 H      4   3   2     2.060002400851   110.11947904    63.87826932
 H      4   3   2     2.062589213022   109.59535343   305.08600742
 H      5   4   3     2.057219766425   111.65049236   298.46504700
 H      5   4   3     2.057292866658   111.75380598    62.27929808

---------------------
BASIS SET INFORMATION
---------------------
There are 3 groups of distinct atoms

 Group   1 Type C   : 11s6p1d contracted to 5s3p1d pattern {62111/411/1}
 Group   2 Type Cl  : 14s9p2d contracted to 5s4p2d pattern {73211/6111/11}
 Group   3 Type H   : 4s1p contracted to 2s1p pattern {31/1}

Atom   0C    basis set group =>   1
Atom   1C    basis set group =>   1
Atom   2C    basis set group =>   1
Atom   3C    basis set group =>   1
Atom   4C    basis set group =>   1
Atom   5Cl   basis set group =>   2
Atom   6H    basis set group =>   3
Atom   7H    basis set group =>   3
Atom   8H    basis set group =>   3
Atom   9H    basis set group =>   3
Atom  10H    basis set group =>   3
Atom  11H    basis set group =>   3
Atom  12H    basis set group =>   3
Atom  13H    basis set group =>   3
Atom  14H    basis set group =>   3
Atom  15H    basis set group =>   3
Atom  16H    basis set group =>   3
---------------------------------
AUXILIARY/J BASIS SET INFORMATION
---------------------------------
There are 3 groups of distinct atoms

 Group   1 Type C   : 12s5p4d2f1g contracted to 6s4p3d1f1g pattern {711111/2111/211/2/1}
 Group   2 Type Cl  : 14s5p5d2f1g contracted to 8s4p3d1f1g pattern {71111111/2111/311/2/1}
 Group   3 Type H   : 5s2p1d contracted to 3s1p1d pattern {311/2/1}

Atom   0C    basis set group =>   1
Atom   1C    basis set group =>   1
Atom   2C    basis set group =>   1
Atom   3C    basis set group =>   1
Atom   4C    basis set group =>   1
Atom   5Cl   basis set group =>   2
Atom   6H    basis set group =>   3
Atom   7H    basis set group =>   3
Atom   8H    basis set group =>   3
Atom   9H    basis set group =>   3
Atom  10H    basis set group =>   3
Atom  11H    basis set group =>   3
Atom  12H    basis set group =>   3
Atom  13H    basis set group =>   3
Atom  14H    basis set group =>   3
Atom  15H    basis set group =>   3
Atom  16H    basis set group =>   3

Checking for AutoStart:
The File: sp_solv.gbw exists
Trying to determine its content:
     ... Fine, the file contains calculation information
     ... Fine, the calculation information was read
     ... Fine, the file contains a basis set
     ... Fine, the basis set was read
     ... Fine, the file contains a geometry
     ... Fine, the geometry was read
     ... Fine, the file contains a set of orbitals
     ... Fine, the orbitals can be read
     => possible old guess file was deleted
     => GBW file was renamed to GES file
     => GES file is set as startup file
     => Guess is set to MORead
     ... now leaving AutoStart

------------------------------------------------------------------------------
                             ORCA STARTUP CALCULATIONS
                           -- RI-GTO INTEGRALS CHOSEN --
------------------------------------------------------------------------------
------------------------------------------------------------------------------
                   ___                                                        
                  /   \      - P O W E R E D   B Y -                         
                 /     \                                                     
                 |  |  |   _    _      __       _____    __    __             
                 |  |  |  | |  | |    /  \     |  _  \  |  |  /  |          
                  \  \/   | |  | |   /    \    | | | |  |  | /  /          
                 / \  \   | |__| |  /  /\  \   | |_| |  |  |/  /          
                |  |  |   |  __  | /  /__\  \  |    /   |      \           
                |  |  |   | |  | | |   __   |  |    \   |  |\   \          
                \     /   | |  | | |  |  |  |  | |\  \  |  | \   \       
                 \___/    |_|  |_| |__|  |__|  |_| \__\ |__|  \__/        
                                                                              
                      - O R C A' S   B I G   F R I E N D -                    
                                      &                                       
                       - I N T E G R A L  F E E D E R -                       
                                                                              
 v1 FN, 2020, v2 2021, v3 2022-2024                                           
------------------------------------------------------------------------------


----------------------
SHARK INTEGRAL PACKAGE
----------------------

Number of atoms                             ...     17
Number of basis functions                   ...    177
Number of shells                            ...     89
Maximum angular momentum                    ...      2
Integral batch strategy                     ... SHARK/LIBINT Hybrid
RI-J (if used) integral strategy            ... SPLIT-RIJ (Revised 2003 algorithm where possible)
Printlevel                                  ...      1
Contraction scheme used                     ... SEGMENTED contraction
Prescreening option                         ... SCHWARTZ
   Thresh                                   ... 1.000e-10
   Tcut                                     ... 1.000e-11
   Tpresel                                  ... 1.000e-11 
Coulomb Range Separation                    ... NOT USED
Exchange Range Separation                   ... NOT USED
Multipole approximations                    ... NOT USED
Finite Nucleus Model                        ... NOT USED
CABS basis                                  ... NOT available
Auxiliary Coulomb fitting basis             ... AVAILABLE
   # of basis functions in Aux-J            ...    417
   # of shells in Aux-J                     ...    147
   Maximum angular momentum in Aux-J        ...      4
Auxiliary J/K fitting basis                 ... NOT available
Auxiliary Correlation fitting basis         ... NOT available
Auxiliary 'external' fitting basis          ... NOT available

Checking pre-screening integrals            ... done (  0.0 sec) Dimension = 89
Check shell pair data                       ... done (  0.0 sec)
Shell pair information
Shell pair cut-off parameter TPreSel        ...   1.0e-11
Total number of shell pairs                 ...      4005
Shell pairs after pre-screening             ...      3595
Total number of primitive shell pairs       ...     14718
Primitive shell pairs kept                  ...      9529
          la=0 lb=0:   1232 shell pairs
          la=1 lb=0:   1401 shell pairs
          la=1 lb=1:    421 shell pairs
          la=2 lb=0:    325 shell pairs
          la=2 lb=1:    190 shell pairs
          la=2 lb=2:     26 shell pairs

Calculating one electron integrals          ... done (  0.0 sec)
Calculating RI/J V-Matrix + Cholesky decomp.... done (  0.1 sec)
Calculating Nuclear repulsion               ... done (  0.0 sec) ENN=    288.326896995068 Eh

Diagonalization of the overlap matrix:
Smallest eigenvalue                        ... 2.007e-04
Time for diagonalization                   ...    0.003 sec
Threshold for overlap eigenvalues          ... 1.000e-07
Number of eigenvalues below threshold      ... 0
Time for construction of square roots      ...    0.018 sec
Total time needed                          ...    0.030 sec

-------------------
DFT GRID GENERATION
-------------------

General Integration Accuracy     IntAcc      ... 4.388
Radial Grid Type                 RadialGrid  ... OptM3 with GC (2021)
Angular Grid (max. ang.)         AngularGrid ... 4 (Lebedev-302)
Angular grid pruning method      GridPruning ... 4 (adaptive)
Weight generation scheme         WeightScheme... mBecke (2022)
Basis function cutoff            BFCut       ... 1.0000e-10
Integration weight cutoff        WCut        ... 1.0000e-14
Partially contracted basis set               ... off
Rotationally invariant grid construction     ... off
Angular grids for H and He will be reduced by one unit

Total number of grid points                  ...    72630
Total number of batches                      ...     1144
Average number of points per batch           ...       63
Average number of grid points per atom       ...     4272
Initializing property integral containers    ... done (  0.0 sec)

SHARK setup successfully completed in   1.0 seconds

Maximum memory used throughout the entire STARTUP-calculation: 32.5 MB
-------------------------------------------------------------------------------
                                 ORCA GUESS
                   Start orbitals & Density for SCF / CASSCF
-------------------------------------------------------------------------------

------------
SCF SETTINGS
------------
Hamiltonian:
 Density Functional     Method          .... DFT(GTOs)
  Functional kind                       .... Exchange
  Functional name                       .... Re-regularized SCAN exchange by Furness et al
  Functional family                     .... MGGA
  Functional refs                              
    [ 0] J. W. Furness, A. D. Kaplan, J. Ning, J. P. Perdew, and J. Sun.,  J. Phys. Chem. Lett. 11, 8208-8215 (2020), doi: 10.1021/acs.jpclett.0c02405
    [ 1] J. W. Furness, A. D. Kaplan, J. Ning, J. P. Perdew, and J. Sun.,  J. Phys. Chem. Lett. 11, 9248-9248 (2020), doi: 10.1021/acs.jpclett.0c03077
  Functional external parameters        .... 6
    Parameter  0 _c1        =  6.670000e-01 : c1 parameter        
    Parameter  1 _c2        =  8.000000e-01 : c2 parameter        
    Parameter  2 _d         =  1.240000e+00 : d parameter         
    Parameter  3 _k1        =  6.500000e-02 : k1 parameter        
    Parameter  4 _eta       =  1.000000e-03 : eta parameter       
    Parameter  5 _dp2       =  3.610000e-01 : dp2 parameter       
  Functional kind                       .... Correlation
  Functional name                       .... Re-regularized SCAN correlation by Furness et al
  Functional family                     .... MGGA
  Functional refs                              
    [ 0] J. W. Furness, A. D. Kaplan, J. Ning, J. P. Perdew, and J. Sun.,  J. Phys. Chem. Lett. 11, 8208-8215 (2020), doi: 10.1021/acs.jpclett.0c02405
    [ 1] J. W. Furness, A. D. Kaplan, J. Ning, J. P. Perdew, and J. Sun.,  J. Phys. Chem. Lett. 11, 9248-9248 (2020), doi: 10.1021/acs.jpclett.0c03077
  Functional external parameters        .... 1
    Parameter  0 _eta       =  1.000000e-03 : Regularization parameter
 Gradients option       PostSCFGGA      .... off
 RI-approximation to the Coulomb term is turned on
   Number of AuxJ basis functions       .... 417


General Settings:
 Integral files         IntName         .... sp_solv
 Hartree-Fock type      HFTyp           .... RHF
 Total Charge           Charge          ....    0
 Multiplicity           Mult            ....    1
 Number of Electrons    NEL             ....   58
 Basis Dimension        Dim             ....  177
 Nuclear Repulsion      ENuc            ....    288.3268969951 Eh

Convergence Acceleration:
 AO-DIIS                CNVDIIS         .... on
   Start iteration      DIISMaxIt       ....    12
   Startup error        DIISStart       ....  0.200000
   # of expansion vecs  DIISMaxEq       ....     5
   Bias factor          DIISBfac        ....   1.050
   Max. coefficient     DIISMaxC        ....  10.000
 MO-DIIS                CNVKDIIS        .... off
 Trust-Rad. Augm. Hess. CNVTRAH         .... auto
   Auto Start mean grad. ratio tolernc. ....  1.125000
   Auto Start start iteration           ....     1
   Auto Start num. interpolation iter.  ....    10
   Max. Number of Micro iterations      ....    24
   Max. Number of Macro iterations      .... Maxiter - #DIIS iter
   Number of Davidson start vectors     ....     2
   Converg. threshold    (grad. norm)   ....   3.330e-04
   Grad. Scal. Fac. for Micro threshold ....   0.100
   Minimum threshold for Micro iter.    ....   1.000e-02
   NR start threshold (gradient norm)   ....   1.000e-04
   Initial trust radius                 ....   0.400
   Minimum AH scaling param. (alpha)    ....   1.000
   Maximum AH scaling param. (alpha)    .... 1000.000
   Quad. conv. algorithm                .... NR
   White noise on init. David. guess    .... on
   Maximum white noise                  ....   0.010
   Pseudo random numbers                .... off
   Inactive MOs                         .... canonical
   Orbital update algorithm             .... Taylor
   Preconditioner                       .... Diag
   Full preconditioner red. dimension   ....   250
   COSX micro iterations for RIJONX calc.... off
 SOSCF                  CNVSOSCF        .... on
   Start iteration      SOSCFMaxIt      ....   150
   Startup grad/error   SOSCFStart      ....  0.003300
   Hessian update       SOSCFHessUp     .... L-BFGS
 Level Shifting         CNVShift        .... on
   Level shift para.    LevelShift      ....    0.2500
   Turn off err/grad.   ShiftErr        ....    0.0010
 Zerner damping         CNVZerner       .... off
 Static damping         CNVDamp         .... on
   Fraction old density DampFac         ....    0.7000
   Max. Damping (<1)    DampMax         ....    0.9800
   Min. Damping (>=0)   DampMin         ....    0.0000
   Turn off err/grad.   DampErr         ....    0.1000

SCF Procedure:
 Maximum # iterations   MaxIter         ....   125
 SCF integral mode      SCFMode         .... Direct
   Integral package                     .... SHARK and LIBINT hybrid scheme
 Reset frequency        DirectResetFreq ....    20
 Integral Threshold     Thresh          ....  1.000e-10 Eh
 Primitive CutOff       TCut            ....  1.000e-11 Eh

Convergence Tolerance:
 Convergence Check Mode ConvCheckMode   .... Total+1el-Energy
 Convergence forced     ConvForced      .... 0
 Energy Change          TolE            ....  1.000e-06 Eh
 1-El. energy change                    ....  1.000e-03 Eh
 Orbital Gradient       TolG            ....  3.330e-04
 Orbital Rotation angle TolX            ....  3.330e-04
 DIIS Error             TolErr          ....  1.000e-06

---------------------
INITIAL GUESS: MOREAD
---------------------
Guess MOs are being read from file: sp_solv.ges
Input Geometry matches current geometry (good)
Atom 0: N(Shells)= 9 and 6 - projection required
Input basis set needs projection
NBasis(read)= 110
NBasis(calc)= 177
Basis set overlap was calculated
Using GuessMode=FMatrix for the initial guess
C*T matrix was formed
Effective Fockian was calculated
Effective Fockian was diagonalized
Initial density was built
                      ------------------
                      INITIAL GUESS DONE (   0.0 sec)
                      ------------------
             **** ENERGY FILE WAS UPDATED (sp_solv.en.tmp) ****
Finished Guess after   0.3 sec
Maximum memory used throughout the entire GUESS-calculation: 11.8 MB

-------------------------------------------------------------------------------------------
                                      ORCA LEAN-SCF
                              memory conserving SCF solver
-------------------------------------------------------------------------------------------

--------------------
CPCM SOLVATION MODEL
--------------------
CPCM parameters:
  Epsilon                                         ...      78.3550
  Refrac                                          ...       1.3328
  Rsolv                                           ...       1.3000
  Surface type                                    ... GAUSSIAN VDW
  Discretization scheme                           ... Constant charge density
    Threshold for H atoms                         ...       5.0000 (charges/Ang^2)
    Threshold for non-H atoms                     ...       5.0000 (charges/Ang^2)
  Epsilon function type                           ...         CPCM
Solvent:                                          ... WATER
SMD-CDS solvent descriptors:
  Soln                                            ...       1.3328
  Soln25                                          ...       1.3323
  Sola                                            ...       0.0000
  Solb                                            ...       0.0000
  Solg                                            ...       0.0000
  Solc                                            ...       0.0000
  Solh                                            ...       0.0000
Radii:
  Scheme                                          ... Element-dependent radii
  Radius for C  used is    3.4960 Bohr (=   1.8500 Ang.)
  Radius for Cl used is    4.4975 Bohr (=   2.3800 Ang.)
  Radius for H  used is    2.2677 Bohr (=   1.2000 Ang.)
Calculating surface                               ...        done! (  0.0s)
Cavity surface points                             ...         1363
Cavity Volume                                     ...     946.9761
Cavity Surface-area                               ...     590.3727
Calculating surface distance matrix               ...        done! (  0.0s)
Performing Cholesky decomposition & store         ...        done! (  0.1s)
Overall time for CPCM initialization              ...                 0.1s

----------------------------------------D-I-I-S--------------------------------------------
Iteration    Energy (Eh)           Delta-E    RMSDP     MaxDP     DIISErr   Damp  Time(sec)
-------------------------------------------------------------------------------------------
               ***  Starting incremental Fock matrix formation  ***
    1    -657.1493691107818904     0.00e+00  3.67e-03  1.02e-01  5.39e-01  0.700   2.4
    2    -657.1879536858534721    -3.86e-02  2.99e-03  7.93e-02  3.77e-01  0.700   2.2
    3    -657.2153703930300708    -2.74e-02  2.20e-03  5.81e-02  2.64e-01  0.700   2.2
                               ***Turning on AO-DIIS***
    4    -657.2346533490035654    -1.93e-02  1.61e-03  4.20e-02  1.85e-01  0.700   2.1
    5    -657.2481940731504437    -1.35e-02  1.15e-03  2.98e-02  1.29e-01  0.700   2.1
    6    -657.2576973728887424    -9.50e-03  8.12e-04  2.10e-02  9.06e-02  0.700   2.1
    7    -657.2643626918795690    -6.67e-03  1.91e-03  4.92e-02  6.34e-02  0.000   2.1
                              *** Initializing SOSCF ***
---------------------------------------S-O-S-C-F--------------------------------------
Iteration    Energy (Eh)           Delta-E    RMSDP     MaxDP     MaxGrad    Time(sec)
--------------------------------------------------------------------------------------
    8    -657.2799563876264983    -1.56e-02  1.87e-05  3.53e-04  3.40e-04     2.2
               *** Restarting incremental Fock matrix formation ***
    9    -657.2799566012206469    -2.14e-07  1.44e-05  3.57e-04  1.18e-04     2.4
   10    -657.2799562063207759     3.95e-07  8.49e-06  1.81e-04  1.92e-04     1.9
                 **** Energy Check signals convergence ****

               *****************************************************
               *                     SUCCESS                       *
               *           SCF CONVERGED AFTER  10 CYCLES          *
               *****************************************************


SMD CDS free energy correction energy :                 2.84388     Kcal/mol
Total Energy after SMD CDS correction =              -657.275424195 Eh
             **** ENERGY FILE WAS UPDATED (sp_solv.en.tmp) ****

----------------
TOTAL SCF ENERGY
----------------

Total Energy       :       -657.27542419512076 Eh          -17885.37357 eV

Components:
Nuclear Repulsion  :        288.32689699506847 Eh            7845.77374 eV
Electronic Energy  :       -945.59970778161744 Eh          -25731.07619 eV
One Electron Energy:      -1471.52363924191832 Eh          -40042.19393 eV
Two Electron Energy:        525.92393146030088 Eh           14311.11774 eV
CPCM Dielectric    :         -0.00714541977191 Eh              -0.19444 eV
SMD CDS (Gcds)     :          0.00453201119996 Eh               0.12332 eV

Virial components:
Potential Energy   :      -1312.55119332577260 Eh          -35716.33375 eV
Kinetic Energy     :        655.27576913065184 Eh           17830.96019 eV
Virial Ratio       :          2.00305162369596

DFT components:
N(Alpha)           :       28.999913579407 electrons
N(Beta)            :       28.999913579407 electrons
N(Total)           :       57.999827158814 electrons
E(X)               :      -57.489697157897 Eh       
E(C)               :       -1.921504028883 Eh       
E(XC)              :      -59.411201186780 Eh       

CPCM Solvation Model Properties:
Surface-charge          :         -0.03411604951754
Corrected charge        :         -0.00000000000000
Outlying charge corr.   :          0.00008656672473 Eh               0.00236 eV
Free-energy (cav+disp)  :          0.00453201119996 Eh               0.12332 eV

---------------
SCF CONVERGENCE
---------------

  Last Energy change         ...   -3.9490e-07  Tolerance :   1.0000e-06
  Last MAX-Density change    ...    1.8149e-04  Tolerance :   1.0000e-05
  Last RMS-Density change    ...    8.4910e-06  Tolerance :   1.0000e-06
  Last DIIS Error            ...    3.3972e-04  Tolerance :   1.0000e-06
  Last Orbital Gradient      ...    1.9224e-04  Tolerance :   3.3300e-04
  Last Orbital Rotation      ...    1.8254e-04  Tolerance :   3.3300e-04


----------------
ORBITAL ENERGIES
----------------

  NO   OCC          E(Eh)            E(eV) 
   0   2.0000    -101.197763     -2753.7311 
   1   2.0000     -10.080120      -274.2940 
   2   2.0000     -10.026023      -272.8219 
   3   2.0000     -10.020041      -272.6592 
   4   2.0000     -10.017872      -272.6001 
   5   2.0000     -10.007055      -272.3058 
   6   2.0000      -9.354186      -254.5403 
   7   2.0000      -7.099951      -193.1995 
   8   2.0000      -7.090428      -192.9404 
   9   2.0000      -7.090411      -192.9399 
  10   2.0000      -0.816560       -22.2197 
  11   2.0000      -0.759169       -20.6580 
  12   2.0000      -0.699800       -19.0425 
  13   2.0000      -0.627679       -17.0800 
  14   2.0000      -0.569943       -15.5090 
  15   2.0000      -0.530738       -14.4421 
  16   2.0000      -0.447424       -12.1750 
  17   2.0000      -0.418235       -11.3807 
  18   2.0000      -0.408033       -11.1031 
  19   2.0000      -0.390524       -10.6267 
  20   2.0000      -0.367516       -10.0006 
  21   2.0000      -0.353955        -9.6316 
  22   2.0000      -0.336973        -9.1695 
  23   2.0000      -0.317719        -8.6456 
  24   2.0000      -0.295794        -8.0490 
  25   2.0000      -0.290038        -7.8923 
  26   2.0000      -0.285496        -7.7688 
  27   2.0000      -0.263882        -7.1806 
  28   2.0000      -0.260329        -7.0839 
  29   0.0000       0.013821         0.3761 
  30   0.0000       0.098583         2.6826 
  31   0.0000       0.107695         2.9305 
  32   0.0000       0.127956         3.4819 
  33   0.0000       0.143542         3.9060 
  34   0.0000       0.146127         3.9763 
  35   0.0000       0.150378         4.0920 
  36   0.0000       0.159422         4.3381 
  37   0.0000       0.169582         4.6146 
  38   0.0000       0.182851         4.9756 
  39   0.0000       0.188561         5.1310 
*Only the first 10 virtual orbitals were printed.

                    ********************************
                    * MULLIKEN POPULATION ANALYSIS *
                    ********************************

-----------------------
MULLIKEN ATOMIC CHARGES
-----------------------
   0 C :   -0.524477
   1 C :   -0.231831
   2 C :   -0.277009
   3 C :   -0.313775
   4 C :   -0.165627
   5 Cl:   -0.253109
   6 H :    0.159711
   7 H :    0.154693
   8 H :    0.156071
   9 H :    0.152558
  10 H :    0.143033
  11 H :    0.153326
  12 H :    0.153018
  13 H :    0.166085
  14 H :    0.163154
  15 H :    0.181666
  16 H :    0.182514
Sum of atomic charges:    0.0000000

--------------------------------
MULLIKEN REDUCED ORBITAL CHARGES
--------------------------------
  0 C s       :     3.339866  s :     3.339866
      pz      :     1.058100  p :     3.157538
      px      :     1.104677
      py      :     0.994762
      dz2     :     0.008573  d :     0.027074
      dxz     :     0.002086
      dyz     :     0.003947
      dx2y2   :     0.005165
      dxy     :     0.007303

  1 C s       :     3.206549  s :     3.206549
      pz      :     1.026840  p :     2.988120
      px      :     0.978425
      py      :     0.982856
      dz2     :     0.010497  d :     0.037163
      dxz     :     0.004113
      dyz     :     0.004999
      dx2y2   :     0.006609
      dxy     :     0.010945

  2 C s       :     3.233226  s :     3.233226
      pz      :     1.066020  p :     3.007185
      px      :     0.920065
      py      :     1.021100
      dz2     :     0.009547  d :     0.036598
      dxz     :     0.005152
      dyz     :     0.004395
      dx2y2   :     0.008909
      dxy     :     0.008596

  3 C s       :     3.262213  s :     3.262213
      pz      :     1.078054  p :     3.015161
      px      :     0.919410
      py      :     1.017696
      dz2     :     0.008936  d :     0.036401
      dxz     :     0.005070
      dyz     :     0.005292
      dx2y2   :     0.008772
      dxy     :     0.008332

  4 C s       :     3.254414  s :     3.254414
      pz      :     1.101569  p :     2.870385
      px      :     0.830470
      py      :     0.938345
      dz2     :     0.009532  d :     0.040828
      dxz     :     0.005852
      dyz     :     0.005564
      dx2y2   :     0.009476
      dxy     :     0.010403

  5 Cls       :     5.943552  s :     5.943552
      pz      :     3.941778  p :    11.263198
      px      :     3.592131
      py      :     3.729289
      dz2     :     0.006655  d :     0.046359
      dxz     :     0.007296
      dyz     :     0.005589
      dx2y2   :     0.012453
      dxy     :     0.014366

  6 H s       :     0.821852  s :     0.821852
      pz      :     0.003928  p :     0.018437
      px      :     0.006622
      py      :     0.007887

  7 H s       :     0.827046  s :     0.827046
      pz      :     0.010884  p :     0.018261
      px      :     0.003676
      py      :     0.003701

  8 H s       :     0.825571  s :     0.825571
      pz      :     0.004344  p :     0.018358
      px      :     0.009797
      py      :     0.004218

  9 H s       :     0.829545  s :     0.829545
      pz      :     0.003649  p :     0.017897
      px      :     0.007098
      py      :     0.007149

 10 H s       :     0.839035  s :     0.839035
      pz      :     0.010826  p :     0.017932
      px      :     0.003423
      py      :     0.003683

 11 H s       :     0.828738  s :     0.828738
      pz      :     0.004681  p :     0.017936
      px      :     0.003598
      py      :     0.009657

 12 H s       :     0.829079  s :     0.829079
      pz      :     0.010968  p :     0.017903
      px      :     0.003360
      py      :     0.003574

 13 H s       :     0.815816  s :     0.815816
      pz      :     0.005003  p :     0.018098
      px      :     0.003468
      py      :     0.009628

 14 H s       :     0.818969  s :     0.818969
      pz      :     0.011007  p :     0.017877
      px      :     0.003200
      py      :     0.003670

 15 H s       :     0.800215  s :     0.800215
      pz      :     0.011819  p :     0.018118
      px      :     0.002933
      py      :     0.003366

 16 H s       :     0.799379  s :     0.799379
      pz      :     0.005191  p :     0.018107
      px      :     0.003126
      py      :     0.009790


------------------------
MULLIKEN OVERLAP CHARGES
------------------------
B(  0-C ,  1-C ) :   0.4290 B(  0-C ,  2-C ) :  -0.2106 B(  0-C ,  6-H ) :   0.8554 
B(  0-C ,  7-H ) :   0.8450 B(  0-C ,  8-H ) :   0.7917 B(  0-C ,  9-H ) :  -0.0583 
B(  0-C , 10-H ) :  -0.0739 B(  1-C ,  2-C ) :   0.4476 B(  1-C ,  3-C ) :  -0.1531 
B(  1-C ,  6-H ) :  -0.0926 B(  1-C ,  7-H ) :  -0.0945 B(  1-C ,  8-H ) :  -0.0698 
B(  1-C ,  9-H ) :   0.8430 B(  1-C , 10-H ) :   0.8690 B(  1-C , 11-H ) :  -0.0815 
B(  1-C , 12-H ) :  -0.0753 B(  2-C ,  3-C ) :   0.3535 B(  2-C ,  4-C ) :  -0.0809 
B(  2-C ,  9-H ) :  -0.1050 B(  2-C , 10-H ) :  -0.1019 B(  2-C , 11-H ) :   0.8372 
B(  2-C , 12-H ) :   0.8579 B(  2-C , 13-H ) :  -0.0736 B(  2-C , 14-H ) :  -0.0781 
B(  3-C ,  4-C ) :   0.4789 B(  3-C ,  5-Cl) :  -0.0787 B(  3-C , 11-H ) :  -0.0709 
B(  3-C , 12-H ) :  -0.0783 B(  3-C , 13-H ) :   0.8468 B(  3-C , 14-H ) :   0.8579 
B(  3-C , 15-H ) :  -0.0890 B(  3-C , 16-H ) :  -0.0952 B(  4-C ,  5-Cl) :   0.3774 
B(  4-C , 13-H ) :  -0.0525 B(  4-C , 14-H ) :  -0.0703 B(  4-C , 15-H ) :   0.8500 
B(  4-C , 16-H ) :   0.8631 B(  5-Cl, 15-H ) :  -0.0812 B(  5-Cl, 16-H ) :  -0.0815 
B( 13-H , 14-H ) :  -0.0523 B( 15-H , 16-H ) :  -0.0575 


                     *******************************
                     * LOEWDIN POPULATION ANALYSIS *
                     *******************************

----------------------
LOEWDIN ATOMIC CHARGES
----------------------
   0 C :   -0.434577
   1 C :   -0.316337
   2 C :   -0.309463
   3 C :   -0.329872
   4 C :   -0.315326
   5 Cl:   -0.040004
   6 H :    0.151880
   7 H :    0.153018
   8 H :    0.153118
   9 H :    0.154941
  10 H :    0.154634
  11 H :    0.160065
  12 H :    0.159334
  13 H :    0.162817
  14 H :    0.162823
  15 H :    0.166557
  16 H :    0.166391

-------------------------------
LOEWDIN REDUCED ORBITAL CHARGES
-------------------------------
  0 C s       :     2.973384  s :     2.973384
      pz      :     1.142571  p :     3.398160
      px      :     1.149320
      py      :     1.106269
      dz2     :     0.020514  d :     0.063032
      dxz     :     0.004783
      dyz     :     0.008929
      dx2y2   :     0.011864
      dxy     :     0.016943

  1 C s       :     2.938565  s :     2.938565
      pz      :     1.123894  p :     3.297740
      px      :     1.080738
      py      :     1.093109
      dz2     :     0.023683  d :     0.080031
      dxz     :     0.008172
      dyz     :     0.010729
      dx2y2   :     0.013400
      dxy     :     0.024047

  2 C s       :     2.937031  s :     2.937031
      pz      :     1.137413  p :     3.293337
      px      :     1.047354
      py      :     1.108569
      dz2     :     0.022044  d :     0.079095
      dxz     :     0.010105
      dyz     :     0.009483
      dx2y2   :     0.018947
      dxy     :     0.018516

  3 C s       :     2.945233  s :     2.945233
      pz      :     1.142156  p :     3.304971
      px      :     1.042965
      py      :     1.119851
      dz2     :     0.020872  d :     0.079667
      dxz     :     0.009804
      dyz     :     0.011731
      dx2y2   :     0.018708
      dxy     :     0.018553

  4 C s       :     2.997361  s :     2.997361
      pz      :     1.160080  p :     3.228787
      px      :     0.999420
      py      :     1.069288
      dz2     :     0.022176  d :     0.089178
      dxz     :     0.011122
      dyz     :     0.012387
      dx2y2   :     0.020562
      dxy     :     0.022930

  5 Cls       :     5.695853  s :     5.695853
      pz      :     3.927017  p :    11.243171
      px      :     3.585850
      py      :     3.730304
      dz2     :     0.014868  d :     0.100980
      dxz     :     0.015155
      dyz     :     0.011581
      dx2y2   :     0.025714
      dxy     :     0.033662

  6 H s       :     0.803776  s :     0.803776
      pz      :     0.008911  p :     0.044344
      px      :     0.016071
      py      :     0.019362

  7 H s       :     0.803267  s :     0.803267
      pz      :     0.027141  p :     0.043715
      px      :     0.008135
      py      :     0.008439

  8 H s       :     0.803016  s :     0.803016
      pz      :     0.009992  p :     0.043866
      px      :     0.024213
      py      :     0.009661

  9 H s       :     0.801734  s :     0.801734
      pz      :     0.008474  p :     0.043325
      px      :     0.017329
      py      :     0.017522

 10 H s       :     0.802070  s :     0.802070
      pz      :     0.026654  p :     0.043296
      px      :     0.007972
      py      :     0.008670

 11 H s       :     0.796264  s :     0.796264
      pz      :     0.011290  p :     0.043671
      px      :     0.008642
      py      :     0.023739

 12 H s       :     0.796941  s :     0.796941
      pz      :     0.027368  p :     0.043725
      px      :     0.008037
      py      :     0.008320

 13 H s       :     0.792751  s :     0.792751
      pz      :     0.012224  p :     0.044433
      px      :     0.008215
      py      :     0.023994

 14 H s       :     0.793399  s :     0.793399
      pz      :     0.027637  p :     0.043778
      px      :     0.007459
      py      :     0.008682

 15 H s       :     0.788368  s :     0.788368
      pz      :     0.030425  p :     0.045075
      px      :     0.006784
      py      :     0.007865

 16 H s       :     0.788543  s :     0.788543
      pz      :     0.013034  p :     0.045066
      px      :     0.007237
      py      :     0.024795


---------------------------------
LOEWDIN BOND ORDERS (THRESH 0.050000)
---------------------------------
B(  0-C ,  1-C ) :   1.1422 B(  0-C ,  2-C ) :   0.0640 B(  0-C ,  6-H ) :   0.9278 
B(  0-C ,  7-H ) :   0.9295 B(  0-C ,  8-H ) :   0.9299 B(  1-C ,  2-C ) :   1.1100 
B(  1-C ,  3-C ) :   0.0677 B(  1-C ,  9-H ) :   0.8941 B(  1-C , 10-H ) :   0.8949 
B(  2-C ,  3-C ) :   1.0860 B(  2-C ,  4-C ) :   0.0843 B(  2-C , 11-H ) :   0.8886 
B(  2-C , 12-H ) :   0.8897 B(  3-C ,  4-C ) :   1.1209 B(  3-C ,  5-Cl) :   0.1274 
B(  3-C , 13-H ) :   0.8881 B(  3-C , 14-H ) :   0.8899 B(  4-C ,  5-Cl) :   1.3455 
B(  4-C , 15-H ) :   0.8930 B(  4-C , 16-H ) :   0.8926 

------------------------------------------
LOEWDIN REDUCED ORBITAL POPULATIONS PER MO
-------------------------------------------
THRESHOLD FOR PRINTING IS 0.1%%
                      0         1         2         3         4         5   
                 -101.19776 -10.08012 -10.02602 -10.02004 -10.01787 -10.00706
                   2.00000   2.00000   2.00000   2.00000   2.00000   2.00000
                  --------  --------  --------  --------  --------  --------
 0 C  s               0.0       0.0       0.0       0.0       0.0      99.7
 1 C  s               0.0       0.0       0.0       0.1      99.6       0.0
 2 C  s               0.0       0.0       0.0      99.6       0.1       0.0
 3 C  s               0.0       0.0      99.7       0.0       0.0       0.0
 4 C  s               0.0      99.7       0.0       0.0       0.0       0.0
 5 Cl s             100.0       0.0       0.0       0.0       0.0       0.0

                      6         7         8         9        10        11   
                  -9.35419  -7.09995  -7.09043  -7.09041  -0.81656  -0.75917
                   2.00000   2.00000   2.00000   2.00000   2.00000   2.00000
                  --------  --------  --------  --------  --------  --------
 0 C  s               0.0       0.0       0.0       0.0       0.1       8.4
 0 C  pz              0.0       0.0       0.0       0.0       0.0       0.4
 0 C  px              0.0       0.0       0.0       0.0       0.0       0.4
 0 C  py              0.0       0.0       0.0       0.0       0.1       1.5
 1 C  s               0.0       0.0       0.0       0.0       0.6      18.6
 1 C  pz              0.0       0.0       0.0       0.0       0.0       0.6
 1 C  px              0.0       0.0       0.0       0.0       0.3       1.2
 2 C  s               0.0       0.0       0.0       0.0       2.2      20.2
 2 C  pz              0.0       0.0       0.0       0.0       0.0       0.3
 2 C  px              0.0       0.0       0.0       0.0       0.7       0.3
 2 C  py              0.0       0.0       0.0       0.0       0.2       1.1
 3 C  s               0.0       0.0       0.0       0.0       8.0       9.3
 3 C  pz              0.0       0.0       0.0       0.0       0.2       0.1
 3 C  px              0.0       0.0       0.0       0.0       2.3       3.1
 3 C  py              0.0       0.0       0.0       0.0       0.4       0.8
 4 C  s               0.0       0.0       0.0       0.0      22.8       0.0
 4 C  pz              0.0       0.0       0.0       0.0       0.5       0.0
 4 C  px              0.1       0.0       0.0       0.0       1.9       5.4
 4 C  py              0.0       0.0       0.0       0.0       3.1       0.2
 4 C  dxy             0.0       0.0       0.0       0.0       0.1       0.1
 5 Cl s              99.8       0.0       0.0       0.0      45.0       9.9
 5 Cl pz              0.0       4.9      31.9      63.1       0.1       0.0
 5 Cl px              0.0      57.3      17.1      25.6       1.4       0.1
 5 Cl py              0.0      37.8      51.0      11.3       0.8       0.0
 5 Cl dz2             0.0       0.0       0.0       0.0       0.1       0.0
 5 Cl dxy             0.0       0.0       0.0       0.0       0.4       0.0
 6 H  s               0.0       0.0       0.0       0.0       0.0       1.1
 7 H  s               0.0       0.0       0.0       0.0       0.0       1.1
 8 H  s               0.0       0.0       0.0       0.0       0.0       1.1
 9 H  s               0.0       0.0       0.0       0.0       0.1       2.4
 9 H  px              0.0       0.0       0.0       0.0       0.0       0.1
 9 H  py              0.0       0.0       0.0       0.0       0.0       0.1
10 H  s               0.0       0.0       0.0       0.0       0.1       2.4
10 H  pz              0.0       0.0       0.0       0.0       0.0       0.2
11 H  s               0.0       0.0       0.0       0.0       0.3       2.6
11 H  py              0.0       0.0       0.0       0.0       0.0       0.2
12 H  s               0.0       0.0       0.0       0.0       0.2       2.6
12 H  pz              0.0       0.0       0.0       0.0       0.0       0.2
13 H  s               0.0       0.0       0.0       0.0       0.8       1.3
14 H  s               0.0       0.0       0.0       0.0       0.8       1.2
14 H  pz              0.0       0.0       0.0       0.0       0.1       0.1
15 H  s               0.0       0.0       0.0       0.0       2.6       0.0
15 H  pz              0.0       0.0       0.0       0.0       0.2       0.0
16 H  s               0.0       0.0       0.0       0.0       2.6       0.0
16 H  py              0.0       0.0       0.0       0.0       0.2       0.0

                     12        13        14        15        16        17   
                  -0.69980  -0.62768  -0.56994  -0.53074  -0.44742  -0.41823
                   2.00000   2.00000   2.00000   2.00000   2.00000   2.00000
                  --------  --------  --------  --------  --------  --------
 0 C  s              16.1      15.8       3.4       3.6       0.3       0.0
 0 C  pz              0.2       0.1       0.6       3.1       0.2       4.2
 0 C  px              0.0       0.3       0.0       0.1       0.8       7.8
 0 C  py              0.6       0.9       2.4       3.3       1.4       4.0
 1 C  s              10.7       0.7       5.9       9.0       0.2       0.0
 1 C  pz              0.2       0.1       0.5       5.6       2.2       6.6
 1 C  px              1.5       4.3       0.2       1.7       0.1      11.1
 1 C  py              1.5       6.3       2.7       0.1       0.0       8.3
 1 C  dx2y2           0.0       0.1       0.0       0.0       0.0       0.0
 2 C  s               0.7      13.0       0.0       8.5       0.0       0.1
 2 C  pz              0.0       0.0       0.0       4.7       8.8       3.3
 2 C  px              7.5       0.6       4.1       1.2       1.1       0.4
 2 C  py              0.0       0.7       2.1       3.9       3.1       6.1
 2 C  dxy             0.1       0.0       0.1       0.0       0.0       0.0
 3 C  s              13.7       0.6       9.4       3.7       0.0       0.2
 3 C  pz              0.1       0.0       0.6       2.5      16.9       0.0
 3 C  px              0.4       6.1       1.9       1.1       0.0       9.1
 3 C  py              0.4       0.2       3.5       5.5       6.8       0.0
 3 C  dxy             0.0       0.2       0.0       0.1       0.0       0.0
 4 C  s               4.6       9.4      11.2       0.2       0.0       0.1
 4 C  pz              0.0       0.1       1.5       1.0      19.5       4.9
 4 C  px              6.9       0.8       1.6       0.4       0.1       2.8
 4 C  py              0.2       0.5       5.6       2.3       6.5       3.4
 4 C  dxy             0.2       0.1       0.0       0.0       0.0       0.0
 5 Cl s              12.7       8.5       4.7       0.0       0.0       0.0
 5 Cl pz              0.0       0.1       0.5       0.1       2.9       0.9
 5 Cl px              0.7       1.8       1.6       0.2       0.3       1.3
 5 Cl py              0.2       1.0       2.8       0.1       0.4       0.5
 5 Cl dxz             0.0       0.0       0.1       0.0       0.2       0.0
 5 Cl dx2y2           0.0       0.0       0.0       0.0       0.1       0.2
 5 Cl dxy             0.1       0.3       0.5       0.0       0.0       0.0
 6 H  s               2.6       4.1       1.9       1.8       0.2       4.2
 6 H  px              0.1       0.1       0.1       0.1       0.0       0.0
 6 H  py              0.1       0.2       0.1       0.0       0.0       0.1
 7 H  s               2.7       3.8       1.3       2.9       0.0       2.1
 7 H  pz              0.2       0.3       0.1       0.2       0.0       0.1
 8 H  s               2.9       4.5       1.2       1.4       0.9       0.7
 8 H  px              0.2       0.3       0.1       0.1       0.0       0.0
 9 H  s               2.0       0.2       3.0       4.1       0.2       7.5
 9 H  px              0.1       0.0       0.1       0.1       0.0       0.1
 9 H  py              0.1       0.0       0.1       0.2       0.0       0.1
10 H  s               1.8       0.2       1.9       6.5       0.3       3.2
10 H  pz              0.2       0.0       0.1       0.4       0.0       0.1
11 H  s               0.2       3.5       0.2       4.4       3.1       0.5
11 H  pz              0.0       0.1       0.0       0.1       0.0       0.0
11 H  py              0.0       0.2       0.0       0.2       0.1       0.0
12 H  s               0.1       2.9       0.0       6.6       1.9       1.3
12 H  pz              0.0       0.3       0.0       0.4       0.0       0.0
13 H  s               2.2       0.2       4.6       2.4       5.2       0.0
13 H  pz              0.0       0.0       0.1       0.1       0.0       0.0
13 H  py              0.2       0.0       0.2       0.1       0.2       0.0
14 H  s               2.3       0.1       3.9       3.6       3.7       0.1
14 H  pz              0.2       0.0       0.3       0.2       0.1       0.0
15 H  s               0.9       2.6       5.7       0.6       5.3       2.7
15 H  pz              0.1       0.2       0.4       0.0       0.1       0.1
16 H  s               0.9       2.6       5.9       0.5       5.9       0.4
16 H  pz              0.0       0.1       0.2       0.0       0.0       0.1
16 H  py              0.1       0.2       0.3       0.0       0.2       0.0

                     18        19        20        21        22        23   
                  -0.40803  -0.39052  -0.36752  -0.35395  -0.33697  -0.31772
                   2.00000   2.00000   2.00000   2.00000   2.00000   2.00000
                  --------  --------  --------  --------  --------  --------
 0 C  s               0.0       0.1       0.0       0.0       0.3       0.2
 0 C  pz              5.0       0.3      15.8       5.2       0.1      14.4
 0 C  px              7.7       0.7       1.6      20.5       0.9       1.8
 0 C  py              0.7       7.7       0.5       0.5      15.3       0.4
 0 C  dz2             0.0       0.0       0.1       0.0       0.0       0.3
 0 C  dxy             0.0       0.0       0.0       0.1       0.2       0.0
 1 C  s               0.1       0.3       0.1       0.3       0.2       0.0
 1 C  pz              8.5       3.5       1.1       0.0       0.8       8.5
 1 C  px              5.3       1.2       0.1       3.0       0.2       0.6
 1 C  py              0.0       1.5       5.7       0.1      11.1       2.1
 1 C  dz2             0.0       0.0       0.0       0.0       0.0       0.1
 1 C  dyz             0.0       0.0       0.0       0.0       0.1       0.0
 1 C  dx2y2           0.0       0.0       0.1       0.0       0.0       0.1
 2 C  s               0.0       0.5       0.1       0.3       0.3       0.1
 2 C  pz              0.7       4.0      11.1       2.2       0.8       2.8
 2 C  px              8.0       0.7       0.3       1.5       3.5       1.9
 2 C  py              3.4       8.1       0.0       1.1       4.2       2.8
 2 C  dxy             0.1       0.0       0.0       0.1       0.0       0.1
 3 C  s               0.1       0.3       0.3       0.2       0.3       0.1
 3 C  pz              3.0       0.8       5.9       0.1       1.0      18.6
 3 C  px              0.2       0.8       3.1      10.2       0.3       1.6
 3 C  py              4.7       1.5       0.6       3.1      16.0       0.4
 3 C  dz2             0.0       0.0       0.1       0.0       0.0       0.4
 3 C  dxz             0.1       0.0       0.0       0.1       0.0       0.0
 3 C  dyz             0.0       0.0       0.0       0.0       0.1       0.1
 3 C  dx2y2           0.0       0.0       0.0       0.1       0.3       0.0
 3 C  dxy             0.0       0.0       0.0       0.1       0.1       0.0
 4 C  s               0.1       0.1       0.1       0.4       0.2       0.1
 4 C  pz              7.6       1.0      12.1       0.0       0.2       3.2
 4 C  px              9.1       3.0       1.1      11.8       0.1       0.0
 4 C  py              0.0      17.1       1.9       1.8       6.3       0.1
 4 C  dz2             0.0       0.0       0.2       0.0       0.0       0.2
 4 C  dxz             0.0       0.0       0.0       0.0       0.0       0.1
 4 C  dx2y2           0.0       0.0       0.0       0.0       0.1       0.0
 4 C  dxy             0.0       0.1       0.0       0.0       0.2       0.0
 5 Cl s               1.7       1.9       0.1       0.2       0.1       0.0
 5 Cl pz              0.1       3.7       3.8       0.7       2.4       2.0
 5 Cl px              7.1      19.3       4.5       0.1       5.5       0.7
 5 Cl py              8.3       2.4       0.1      11.8       0.2       3.1
 5 Cl dz2             0.1       0.0       0.1       0.0       0.0       0.0
 5 Cl dxz             0.0       0.1       0.1       0.0       0.0       0.0
 5 Cl dyz             0.0       0.1       0.1       0.0       0.0       0.0
 5 Cl dx2y2           0.0       0.2       0.1       0.2       0.1       0.0
 5 Cl dxy             0.2       0.1       0.0       0.0       0.0       0.0
 6 H  s               0.1       1.6       1.6       4.1       7.4       1.0
 6 H  py              0.0       0.0       0.0       0.1       0.0       0.1
 7 H  s               1.4       0.1       7.5       2.3       0.5       7.6
 7 H  pz              0.0       0.0       0.2       0.0       0.0       0.1
 7 H  px              0.1       0.0       0.0       0.2       0.0       0.0
 7 H  py              0.0       0.1       0.0       0.0       0.1       0.0
 8 H  s               4.6       1.5       0.0      10.6       0.0       0.0
 8 H  pz              0.0       0.0       0.1       0.0       0.0       0.1
 8 H  px              0.1       0.1       0.0       0.1       0.0       0.0
 8 H  py              0.0       0.0       0.0       0.1       0.1       0.0
 9 H  s               0.5       0.2       1.0       0.1       3.5       0.0
10 H  s               2.6       0.5       1.1       0.1       0.0       4.1
11 H  s               1.7       6.1       0.4       0.4       0.6       0.1
11 H  py              0.1       0.1       0.0       0.0       0.0       0.0
12 H  s               0.3       0.3       5.2       1.5       0.4       2.1
12 H  pz              0.0       0.0       0.1       0.0       0.0       0.0
13 H  s               0.3       0.0       0.0       2.0      10.3       1.7
13 H  py              0.0       0.0       0.0       0.1       0.1       0.1
14 H  s               1.0       0.2       4.1       0.5       0.0      11.6
14 H  pz              0.0       0.0       0.1       0.0       0.0       0.1
14 H  py              0.0       0.0       0.0       0.0       0.1       0.0
15 H  s               2.4       0.0       6.6       0.0       0.0       3.0
15 H  pz              0.1       0.0       0.1       0.0       0.0       0.0
15 H  px              0.1       0.0       0.0       0.1       0.0       0.0
15 H  py              0.0       0.1       0.0       0.0       0.1       0.0
16 H  s               1.5       6.5       0.1       0.7       4.3       0.3
16 H  px              0.1       0.1       0.0       0.1       0.0       0.0
16 H  py              0.1       0.1       0.0       0.0       0.0       0.0

                     24        25        26        27        28        29   
                  -0.29579  -0.29004  -0.28550  -0.26388  -0.26033   0.01382
                   2.00000   2.00000   2.00000   2.00000   2.00000   0.00000
                  --------  --------  --------  --------  --------  --------
 0 C  s               0.0       0.2       0.3       0.0       0.0       0.0
 0 C  pz              0.3       7.4       0.0       0.0       0.0       0.0
 0 C  px             13.7       0.2       0.0       0.0       0.6       0.0
 0 C  py              1.1       0.2      14.6       0.0       0.1       0.0
 0 C  dz2             0.0       0.4       0.1       0.0       0.0       0.0
 0 C  dx2y2           0.2       0.0       0.0       0.0       0.0       0.0
 0 C  dxy             0.3       0.0       0.1       0.0       0.1       0.0
 1 C  s               0.1       0.3       0.0       0.0       0.1       0.4
 1 C  pz              0.3      17.4       0.1       0.1       0.0       0.2
 1 C  px             18.2       0.1       0.6       0.0       4.2       0.8
 1 C  py              0.8       0.4      13.6       0.0       0.2       0.1
 1 C  dz2             0.0       0.9       0.1       0.0       0.0       0.0
 1 C  dx2y2           0.2       0.0       0.1       0.0       0.0       0.0
 1 C  dxy             0.3       0.0       0.4       0.0       0.2       0.0
 2 C  s               0.5       0.3       0.1       0.0       0.0       1.3
 2 C  pz              0.3      16.5       1.3       0.1       0.0       0.2
 2 C  px             15.2       0.0       0.2       0.0       4.9       1.5
 2 C  py              4.9       0.3      12.8       0.0       0.4       0.6
 2 C  dz2             0.0       0.8       0.0       0.0       0.0       0.0
 2 C  dxz             0.1       0.0       0.0       0.0       0.0       0.1
 2 C  dyz             0.0       0.1       0.1       0.0       0.0       0.0
 2 C  dx2y2           0.1       0.0       0.5       0.0       0.0       0.2
 2 C  dxy             0.1       0.0       0.2       0.0       0.1       0.1
 3 C  s               0.3       0.2       0.5       0.0       0.3       0.3
 3 C  pz              0.0       6.0       0.7       0.3       0.3       0.1
 3 C  px              1.2       0.6       0.6       0.1       9.2       0.2
 3 C  py              0.2       0.3      11.4       0.1       0.1       0.1
 3 C  dz2             0.0       0.3       0.0       0.1       0.0       0.1
 3 C  dyz             0.0       0.1       0.1       0.0       0.0       0.0
 3 C  dx2y2           0.2       0.0       0.2       0.0       0.0       0.6
 3 C  dxy             0.0       0.0       0.0       0.0       0.1       0.2
 4 C  s               0.5       0.1       0.1       0.0       0.2       7.7
 4 C  pz              0.0       0.4       0.0       4.7       1.3       1.6
 4 C  px              1.4       0.1       0.2       0.2       3.1      17.4
 4 C  py              0.2       0.1       1.0       1.6       1.6      12.0
 4 C  dz2             0.1       0.1       0.0       0.3       0.1       0.2
 4 C  dxz             0.0       0.0       0.0       0.1       0.1       0.1
 4 C  dyz             0.0       0.0       0.0       0.3       0.0       0.1
 4 C  dx2y2           0.1       0.0       0.2       0.2       0.2       0.0
 4 C  dxy             0.0       0.0       0.0       0.0       0.2       0.7
 5 Cl s               0.0       0.0       0.0       0.0       0.0       5.3
 5 Cl pz              4.6       0.0       2.6      58.1      13.7       1.3
 5 Cl px              1.0       0.0       0.1       2.1      31.6      15.6
 5 Cl py             12.0       0.4       1.7      20.1      20.5       9.8
 5 Cl dz2             0.0       0.0       0.0       0.0       0.0       2.8
 5 Cl dxz             0.0       0.0       0.0       0.1       0.0       1.5
 5 Cl dyz             0.0       0.0       0.0       0.1       0.0       0.8
 5 Cl dx2y2           0.0       0.0       0.0       0.0       0.2       0.5
 5 Cl dxy             0.0       0.0       0.0       0.0       0.0      11.3
 6 H  s               2.2       0.7       5.0       0.0       0.5       0.0
 6 H  px              0.0       0.0       0.1       0.0       0.0       0.0
 7 H  s               0.4       5.6       0.7       0.0       0.0       0.0
 7 H  px              0.1       0.0       0.0       0.0       0.0       0.0
 7 H  py              0.0       0.0       0.1       0.0       0.0       0.0
 8 H  s               9.8       0.3       0.2       0.0       0.5       0.1
 8 H  py              0.0       0.0       0.1       0.0       0.0       0.0
 9 H  s               3.6       1.3       7.8       0.0       2.5       0.0
 9 H  pz              0.0       0.1       0.0       0.0       0.0       0.0
 9 H  px              0.0       0.0       0.1       0.0       0.0       0.1
 9 H  py              0.1       0.0       0.0       0.0       0.0       0.0
10 H  s               0.1      14.5       0.6       0.0       0.1       0.0
10 H  px              0.2       0.0       0.0       0.0       0.0       0.0
10 H  py              0.0       0.0       0.1       0.0       0.0       0.0
11 H  s               2.9       1.8      11.0       0.0       0.0       0.2
11 H  px              0.1       0.0       0.0       0.0       0.1       0.0
12 H  s               0.0      13.7       0.4       0.0       0.0       0.1
12 H  px              0.1       0.0       0.0       0.0       0.1       0.0
12 H  py              0.0       0.0       0.1       0.0       0.0       0.0
13 H  s               0.2       1.0       6.7       0.6       0.0       0.3
13 H  px              0.0       0.0       0.0       0.0       0.1       0.0
14 H  s               0.0       5.5       0.4       0.6       0.1       0.3
14 H  py              0.0       0.0       0.1       0.0       0.0       0.0
15 H  s               0.3       0.6       0.0       4.5       1.3       0.1
15 H  px              0.0       0.0       0.0       0.0       0.0       0.6
15 H  py              0.0       0.0       0.0       0.0       0.0       0.4
16 H  s               0.3       0.0       1.1       5.5       0.4       0.1
16 H  px              0.0       0.0       0.0       0.0       0.0       0.6
16 H  py              0.0       0.0       0.0       0.0       0.0       0.5

                     30        31        32        33        34        35   
                   0.09858   0.10770   0.12796   0.14354   0.14613   0.15038
                   0.00000   0.00000   0.00000   0.00000   0.00000   0.00000
                  --------  --------  --------  --------  --------  --------
 0 C  s              14.7       0.2      18.0       0.0       1.0       1.9
 0 C  pz              0.3       1.5       1.1       5.3       2.2       4.3
 0 C  px              0.3       1.1       3.6       2.9       3.9       2.8
 0 C  py              2.3       0.0      12.7       0.2       2.8       1.3
 0 C  dz2             0.0       0.1       0.0       0.0       0.1       0.6
 0 C  dxz             0.0       0.1       0.1       0.1       0.2       0.1
 0 C  dyz             0.3       0.0       0.1       0.0       0.2       0.3
 0 C  dx2y2           0.4       0.0       0.3       0.0       0.0       0.1
 0 C  dxy             0.0       0.0       0.0       0.0       0.3       0.0
 1 C  s              12.3       0.7       3.6       2.1       1.7       7.5
 1 C  pz              1.0       0.5       3.2       4.8       5.4       0.6
 1 C  px              1.6       0.3       1.2       0.9       1.7       7.8
 1 C  py              0.7       0.7       9.5       0.2       4.0       0.6
 1 C  dz2             0.0       0.0       0.0       0.3       0.4       0.0
 1 C  dxz             0.0       0.0       0.0       0.0       0.0       0.3
 1 C  dyz             0.0       0.2       0.5       0.1       0.1       0.1
 1 C  dx2y2           0.0       0.0       0.6       0.0       0.0       0.0
 1 C  dxy             0.3       0.0       0.0       0.4       1.0       0.2
 2 C  s               8.0       0.9       5.3       0.5       3.9       2.0
 2 C  pz              0.5       0.9       0.4       7.6       6.1       1.6
 2 C  px              1.4       2.9       1.8       0.6       0.3       6.6
 2 C  py              1.2       3.8       2.0       1.7      13.3       0.8
 2 C  dz2             0.1       0.3       0.0       0.8       0.0       0.0
 2 C  dxz             0.2       0.0       0.0       0.1       0.0       0.3
 2 C  dyz             0.1       0.3       0.1       0.1       0.3       0.0
 2 C  dx2y2           0.4       0.0       0.1       0.0       0.3       0.0
 2 C  dxy             0.0       0.3       0.4       0.0       0.1       0.5
 3 C  s               6.6       6.8       1.4       0.6       3.5       9.0
 3 C  pz              0.2       1.2       1.6      16.2       1.2       0.1
 3 C  px              6.7       8.5       0.7       0.4       0.4       2.4
 3 C  py              0.8       1.1       9.1       2.0       4.4       0.3
 3 C  dz2             0.0       0.1       0.5       0.3       0.2       0.2
 3 C  dxz             0.1       0.3       0.0       0.0       0.0       0.1
 3 C  dyz             0.1       0.4       0.0       0.9       0.0       0.0
 3 C  dx2y2           0.1       0.0       0.1       0.2       0.5       0.0
 3 C  dxy             0.7       0.7       0.1       0.2       0.0       0.1
 4 C  s               0.8      22.2       0.2       1.9       2.8       1.4
 4 C  pz              0.7       0.8       0.3       5.2       1.9       2.5
 4 C  px              3.7       5.3       0.1       3.0       0.1      15.1
 4 C  py              1.6       3.0       0.2       4.1       9.6       2.2
 4 C  dz2             0.2       0.7       0.0       0.5       0.0       0.0
 4 C  dxz             0.1       0.0       0.0       0.1       0.0       0.5
 4 C  dyz             0.1       0.2       0.1       0.2       0.0       0.4
 4 C  dx2y2           0.0       0.1       0.0       0.1       0.2       0.2
 4 C  dxy             0.3       0.3       0.0       0.2       0.0       0.8
 5 Cl s               0.0       3.6       0.3       0.9       0.1       0.2
 5 Cl pz              0.0       0.0       0.0       0.4       0.0       0.2
 5 Cl px              0.1       0.7       0.1       0.2       0.1       0.6
 5 Cl py              0.0       0.1       0.3       0.0       0.1       0.3
 5 Cl dz2             0.1       0.6       0.1       0.0       0.0       0.2
 5 Cl dxz             0.1       0.2       0.1       0.0       0.0       0.9
 5 Cl dyz             0.3       0.5       0.0       0.1       0.1       0.7
 5 Cl dx2y2           0.3       0.0       0.1       0.0       0.2       1.8
 5 Cl dxy             0.4       1.3       0.1       0.6       0.0       1.6
 6 H  s               2.4       0.2       4.7       0.0       0.7       0.1
 6 H  pz              0.2       0.1       0.0       0.1       0.0       0.2
 6 H  px              1.1       0.0       0.7       0.0       0.2       0.0
 6 H  py              0.1       0.0       2.2       0.0       0.0       0.0
 7 H  s               1.5       0.3       0.8       0.2       0.7       4.0
 7 H  pz              0.6       0.0       0.9       0.2       0.5       0.7
 7 H  px              0.0       0.1       0.2       0.1       0.1       0.1
 7 H  py              0.4       0.0       0.0       0.0       0.1       0.3
 8 H  s               3.0       0.6       0.7       0.2       0.1       0.5
 8 H  pz              0.3       0.0       0.0       0.0       0.0       0.8
 8 H  px              1.0       0.0       0.7       0.0       0.0       0.1
 8 H  py              0.0       0.0       0.1       0.1       0.2       0.0
 9 H  s               2.5       0.2       0.0       1.1       3.9       0.6
 9 H  pz              0.1       0.1       0.1       0.3       0.1       0.0
 9 H  px              0.7       0.0       0.0       0.1       0.2       0.3
 9 H  py              0.7       0.1       0.8       0.1       0.2       0.3
10 H  s               1.6       0.4       0.1       3.3       1.5       0.6
10 H  pz              1.0       0.1       0.2       1.0       1.3       0.5
10 H  px              0.1       0.0       0.0       0.1       0.1       0.3
10 H  py              0.1       0.2       0.3       0.2       0.2       0.1
11 H  s               2.5       0.5       1.0       0.8       1.0       0.2
11 H  pz              0.5       0.4       0.4       0.1       0.0       0.0
11 H  px              0.0       0.1       0.2       0.1       0.1       0.5
11 H  py              0.7       0.0       0.7       0.4       1.0       0.3
12 H  s               1.6       0.9       0.4       4.2       0.7       0.1
12 H  pz              1.0       0.2       0.4       1.6       0.8       0.1
12 H  px              0.1       0.1       0.0       0.0       0.0       0.5
12 H  py              0.0       0.4       0.0       0.0       0.3       0.0
13 H  s               1.5       2.3       1.3       3.9       2.8       0.1
13 H  pz              0.2       0.9       0.0       0.2       0.6       0.1
13 H  px              0.7       0.2       0.0       0.2       0.0       0.1
13 H  py              0.4       0.3       1.2       0.7       0.7       0.3
14 H  s               0.8       1.0       0.6       3.8       1.7       1.8
[...]
 0 C  px              0.1       0.3       0.1       0.0       0.0       0.0
 0 C  py              1.1       0.1       0.1       0.0       0.0       0.0
 0 C  dz2             2.2       0.5       1.7       0.0       0.0       0.0
 0 C  dyz             0.1       0.0       0.0       0.0       0.0       0.0
 0 C  dxy             1.8       0.5       0.3       0.0       0.0       0.0
 1 C  s               0.4       0.7       0.4       0.5       0.1       4.9
 1 C  pz              0.4       0.1       3.9       0.0       0.0       0.0
 1 C  px              1.2       4.0       0.2       0.0       0.0       0.0
 1 C  py              1.9       0.1       1.6       0.0       0.0       0.0
 1 C  dz2             3.3       0.0      12.6       0.0       0.0       0.0
 1 C  dxz             0.2       0.8       0.3       0.0       0.0       0.0
 1 C  dyz             0.1       0.2       0.2       0.0       0.0       0.0
 1 C  dx2y2           0.1       1.0       0.1       0.0       0.0       0.0
 1 C  dxy             3.7       3.6       0.7       0.0       0.0       0.0
 2 C  s               0.1       2.0       0.9       5.5       8.8       0.0
 2 C  pz              0.9       0.7       5.5       0.0       0.0       0.0
 2 C  px              0.1       0.5       0.1       0.0       0.0       0.0
 2 C  py              0.6       5.0       0.1       0.0       0.0       0.0
 2 C  dz2             1.3       1.6      12.9       0.0       0.0       0.0
 2 C  dxz             0.0       0.8       0.2       0.0       0.0       0.0
 2 C  dyz             1.5       2.0       0.8       0.0       0.0       0.0
 2 C  dx2y2           0.4       6.8       0.1       0.0       0.0       0.0
 2 C  dxy             1.1       0.2       0.0       0.0       0.0       0.0
 3 C  s               0.0       2.2       0.2      10.8       0.5      81.6
 3 C  pz              4.1       0.3       0.8       0.0       0.0       0.0
 3 C  px              0.5       0.5       0.2       0.0       0.0       0.0
 3 C  py              0.8       6.6       0.0       0.0       0.0       0.0
 3 C  dz2             6.0       1.6       2.7       0.0       0.0       0.0
 3 C  dxz             0.1       0.4       0.0       0.0       0.0       0.0
 3 C  dyz             4.4       3.7       0.2       0.0       0.0       0.0
 3 C  dx2y2           1.8       5.9       0.0       0.0       0.0       0.0
 3 C  dxy             0.7       0.1       0.0       0.0       0.0       0.0
 4 C  s               0.1       0.8       0.0      82.5       2.5      11.5
 4 C  pz              1.2       0.1       0.0       0.0       0.0       0.0
 4 C  px              0.1       2.2       0.1       0.0       0.0       0.0
 4 C  py              0.1       0.8       0.0       0.0       0.0       0.0
 4 C  dz2             2.2       0.9       0.0       0.0       0.0       0.0
 4 C  dxz             0.0       0.4       0.0       0.0       0.0       0.0
 4 C  dyz             1.0       0.7       0.0       0.0       0.0       0.0
 4 C  dx2y2           0.1       2.3       0.0       0.0       0.0       0.0
 4 C  dxy             0.2       0.3       0.0       0.0       0.0       0.0
 6 H  s               1.0       0.4       0.4       0.0       0.0       0.0
 6 H  px              1.3       0.1       0.1       0.0       0.0       0.0
 6 H  py              1.2       1.0       1.1       0.0       0.0       0.0
 7 H  s               0.7       0.1       0.5       0.0       0.0       0.0
 7 H  pz              1.6       0.2       1.2       0.0       0.0       0.0
 8 H  px              0.0       0.1       0.0       0.0       0.0       0.0
 9 H  s               2.9       1.3       2.0       0.0       0.0       0.0
 9 H  pz              0.0       0.3       0.0       0.0       0.0       0.0
 9 H  px              3.3       0.7       2.6       0.0       0.0       0.0
 9 H  py              3.9       2.2       1.6       0.0       0.0       0.0
10 H  s               1.0       0.0       4.7       0.0       0.0       0.0
10 H  pz              2.1       0.0      11.9       0.0       0.0       0.0
10 H  px              0.0       0.3       0.0       0.0       0.0       0.0
11 H  s               1.2       2.5       1.0       0.0       0.0       0.0
11 H  pz              0.2       2.3       0.1       0.0       0.0       0.0
11 H  px              0.0       0.1       0.2       0.0       0.0       0.0
11 H  py              3.0       4.9       1.7       0.0       0.0       0.0
12 H  s               0.7       0.5       5.3       0.0       0.0       0.0
12 H  pz              1.5       1.9      13.4       0.0       0.0       0.0
12 H  px              0.1       0.0       0.0       0.0       0.0       0.0
12 H  py              0.1       0.1       0.4       0.0       0.0       0.0
13 H  s               2.8       3.6       0.2       0.0       0.0       0.0
13 H  pz              0.8       3.2       0.1       0.0       0.0       0.0
13 H  px              0.4       0.0       0.2       0.0       0.0       0.0
13 H  py              5.6       7.2       0.4       0.0       0.0       0.0
14 H  s               3.4       0.4       0.9       0.0       0.0       0.0
14 H  pz              8.2       1.5       2.1       0.0       0.0       0.0
14 H  py              0.4       0.1       0.1       0.0       0.0       0.0
15 H  s               1.0       0.1       0.0       0.0       0.0       0.0
15 H  pz              2.5       0.4       0.0       0.0       0.0       0.0
15 H  px              0.0       0.2       0.0       0.0       0.0       0.0
16 H  s               0.6       0.5       0.0       0.0       0.0       0.0
16 H  pz              0.2       0.5       0.0       0.0       0.0       0.0
16 H  px              0.2       0.0       0.0       0.0       0.0       0.0
16 H  py              1.3       1.1       0.0       0.0       0.0       0.0

                    174       175       176   
                  22.02070  22.02704  25.12899
                   0.00000   0.00000   0.00000
                  --------  --------  --------
 0 C  s               2.4       7.4       0.0
 1 C  s              69.9      24.3       0.0
 2 C  s              19.9      65.4       0.1
 3 C  s               6.8       0.0       0.1
 4 C  s               0.6       2.6       0.3
 5 Cl s               0.0       0.0      99.2


                      *****************************
                      * MAYER POPULATION ANALYSIS *
                      *****************************

  NA   - Mulliken gross atomic population
  ZA   - Total nuclear charge
  QA   - Mulliken gross atomic charge
  VA   - Mayer's total valence
  BVA  - Mayer's bonded valence
  FA   - Mayer's free valence

  ATOM       NA         ZA         QA         VA         BVA        FA
  0 C      6.5245     6.0000    -0.5245     3.7925     3.7925     0.0000
  1 C      6.2318     6.0000    -0.2318     3.6038     3.6038     0.0000
  2 C      6.2770     6.0000    -0.2770     3.6152     3.6152     0.0000
  3 C      6.3138     6.0000    -0.3138     3.7313     3.7313     0.0000
  4 C      6.1656     6.0000    -0.1656     3.7616     3.7616    -0.0000
  5 Cl    17.2531    17.0000    -0.2531     0.9851     0.9851     0.0000
  6 H      0.8403     1.0000     0.1597     0.9586     0.9586     0.0000
  7 H      0.8453     1.0000     0.1547     0.9612     0.9612    -0.0000
  8 H      0.8439     1.0000     0.1561     0.9589     0.9589     0.0000
  9 H      0.8474     1.0000     0.1526     0.9580     0.9580     0.0000
 10 H      0.8570     1.0000     0.1430     0.9638     0.9638     0.0000
 11 H      0.8467     1.0000     0.1533     0.9588     0.9588     0.0000
 12 H      0.8470     1.0000     0.1530     0.9614     0.9614     0.0000
 13 H      0.8339     1.0000     0.1661     0.9560     0.9560     0.0000
 14 H      0.8368     1.0000     0.1632     0.9580     0.9580     0.0000
 15 H      0.8183     1.0000     0.1817     0.9463     0.9463    -0.0000
 16 H      0.8175     1.0000     0.1825     0.9468     0.9468    -0.0000

  Mayer bond orders larger than 0.100000
B(  0-C ,  1-C ) :   0.8886 B(  0-C ,  6-H ) :   0.9797 B(  0-C ,  7-H ) :   0.9787 
B(  0-C ,  8-H ) :   0.9675 B(  1-C ,  2-C ) :   0.8904 B(  1-C ,  9-H ) :   0.9720 
B(  1-C , 10-H ) :   0.9823 B(  2-C ,  3-C ) :   0.9002 B(  2-C , 11-H ) :   0.9692 
B(  2-C , 12-H ) :   0.9766 B(  3-C ,  4-C ) :   0.9419 B(  3-C , 13-H ) :   0.9647 
B(  3-C , 14-H ) :   0.9688 B(  4-C ,  5-Cl) :   0.9377 B(  4-C , 15-H ) :   0.9552 
B(  4-C , 16-H ) :   0.9578 

-------
TIMINGS
-------

Total SCF time: 0 days 0 hours 0 min 22 sec 

Total time                  ....      22.311 sec
Sum of individual times     ....      21.797 sec  ( 97.7%)

SCF preparation             ....       0.374 sec  (  1.7%)
Fock matrix formation       ....      20.435 sec  ( 91.6%)
  Startup                   ....       0.075 sec  (  0.4% of F)
  Split-RI-J                ....       2.840 sec  ( 13.9% of F)
  XC integration            ....      13.395 sec  ( 65.6% of F)
    Basis function eval.    ....       2.630 sec  ( 19.6% of XC)
    Density eval.           ....       3.673 sec  ( 27.4% of XC)
    XC-Functional eval.     ....       2.093 sec  ( 15.6% of XC)
    XC-Potential eval.      ....       4.054 sec  ( 30.3% of XC)
  CPCM terms                ....       3.535 sec  ( 17.3% of F)
Diagonalization             ....       0.000 sec  (  0.0%)
Density matrix formation    ....       0.274 sec  (  1.2%)
Total Energy calculation    ....       0.049 sec  (  0.2%)
Population analysis         ....       0.099 sec  (  0.4%)
Orbital Transformation      ....       0.056 sec  (  0.3%)
Orbital Orthonormalization  ....       0.000 sec  (  0.0%)
DIIS solution               ....       0.403 sec  (  1.8%)
  MO trafo                  ....       0.000 sec  (  0.0 % of DIIS)
  Orb grad                  ....       0.000 sec  (  0.0 % of DIIS)
  Energy W gradient         ....       0.000 sec  (  0.0 % of DIIS)
  DIIS error                ....       0.008 sec  (  2.0 % of DIIS)
  DIIS work                 ....       0.338 sec  ( 83.8 % of DIIS)
  Form Q                    ....       0.000 sec  (  0.0 % of DIIS)
  Form QpQm                 ....       0.000 sec  (  0.0 % of DIIS)
  Exp/Cayley                ....       0.000 sec  (  0.0 % of DIIS)
  Orb update                ....       0.000 sec  (  0.0 % of DIIS)
  Wake-sleep                ....       0.029 sec  (  7.2 % of DIIS)
SOSCF solution              ....       0.107 sec  (  0.5%)
  MO trafo                  ....       0.055 sec  ( 51.2 % of SOSCF)
  Orb grad                  ....       0.002 sec  (  1.4 % of SOSCF)
  Rot update                ....       0.029 sec  ( 27.6 % of SOSCF)
  Step                      ....       0.021 sec  ( 19.7 % of SOSCF)
Finished LeanSCF after  22.4 sec

Maximum memory used throughout the entire LEANSCF-calculation: 24.2 MB


-------------------------------------------------------------------------------
                          DFT DISPERSION CORRECTION                            
                                                                               
                                DFTD4 V3.4.0                                   
-------------------------------------------------------------------------------
The R2SCAN3C composite method is recognized
Using three-body term ABC
Active option DFTDOPT                   ...         5   

-------------------------   ----------------
Dispersion correction           -0.004244962
-------------------------   ----------------

------------------   -----------------
gCP correction             0.010164912
------------------   -----------------

-------------------------   --------------------
FINAL SINGLE POINT ENERGY      -657.269504244989
-------------------------   --------------------


------------------------------------------------------------------------------
                              ORCA PROPERTY CALCULATIONS
------------------------------------------------------------------------------

GBWName                                 ... sp_solv.gbw
Number of atoms                         ...     17
Number of basis functions               ...    177
Max core memory                         ...   1024 MB

Electric properties:
Dipole moment                           ... YES
Quadrupole moment                       ...  NO
Static polarizability (Dipole/Dipole)   ...  NO
Static polarizability (Dipole/Quad.)    ...  NO
Static polarizability (Quad./Quad.)     ...  NO
Static polarizability (Velocity)        ...  NO

Atomic electric properties:
Dipole moment                           ...  NO
Quadrupole moment                       ...  NO
Static polarizability                   ...  NO

Choice of electric origin               ... Center of mass
Position of electric origin             ...     0.000029     0.000004     0.000002

General magnetic properties:
Magnetizability                         ...  NO

EPR properties:
g-Tensor (aka g-matrix)                 ...  NO
Zero-Field splitting spin-orbit         ...  NO
Zero-field splitting spin-spin          ...  NO
Hyperfine couplings                     ...  NO (   0 nuclei)
Quadrupole couplings                    ...  NO (   0 nuclei)
Contact density                         ...  NO (   0 nuclei)

NMR properties:
Chemical shifts                         ...  NO (   0 nuclei)
Spin-rotation constants                 ...  NO (   0 nuclei)
Spin-spin couplings                     ...  NO (   0 nuclei,    0 pairs)

Choice of magnetic origin               ... GIAO
Position of magnetic origin             ...     0.000000     0.000000     0.000000

Properties with geometric perturbations:
SCF Hessian                             ...  NO
IR spectrum                             ...  NO
VCD spectrum                            ...  NO
X-ray spectroscopy properties:
SCF XES/XAS/RIXS spectra                ...  NO


-------------
DIPOLE MOMENT
-------------

Method             : SCF
Type of density    : Electron Density
Multiplicity       :   1
Irrep              :   0
Energy             :  -657.2754241951207632 Eh
Relativity type    : 
Basis              : AO
                                X                 Y                 Z
Electronic contribution:    -17.569502878      -1.880556445      -1.003661646
Nuclear contribution   :     18.578805761       2.531571971       1.198169013
                        -----------------------------------------
Total Dipole Moment    :      1.009302884       0.651015526       0.194507366
                        -----------------------------------------
Magnitude (a.u.)       :      1.216694967
Magnitude (Debye)      :      3.092592833



--------------------
Rotational spectrum 
--------------------
 
Rotational constants in cm-1:             0.272755             0.031086             0.029271 
Rotational constants in MHz :          8176.980429           931.922251           877.526771 

Dipole components along the rotational axes: 
x,y,z [a.u.] :     1.039340     0.606068    -0.181106 
x,y,z [Debye]:     2.641794     1.540503    -0.460336 

 

Dipole moment calculation done in   0.0 sec 

Maximum memory used throughout the entire PROP-calculation: 10.2 MB

--------------------------------
SUGGESTED CITATIONS FOR THIS RUN
--------------------------------

Below you find a list of papers that are relevant to this ORCA run
We neither can nor want to force you to cite these papers, but we appreciate if you do
You receive ORCA, which is the product of decades of hard work by many enthusiastic individuals, for free
The only thing we kindly ask in return is that you cite our papers,
We deeply appreciate it, if you show your appreciation for ORCA by not just citing the generic ORCA reference.

Please note that relegating all ORCA citations to the supporting information does *not* help us.
SI sections are not indexed - citations you put there will not count into any citation statistics
But we need these citations in order to attract the funding resources that allow us to do what we are doing

Therefore, if you are a happy ORCA user, please consider citing a few of the papers listed below in the main body of your paper

In addition to the list printed below, the program has created the file sp_solv.bibtex that contains the list in bibtex format
You can import this file easily into all common literature databanks and citation aid programs


List of essential papers. We consider these as the minimum necessary citations

  1. Neese,F.
     Software update: the ORCA program system, version 5.0
     WIRES Comput. Molec. Sci., 2022 12(1)e1606
     doi.org/10.1002/wcms.1606
  2. Grimme,S.; Hansen,A.; Ehlert,S.; Mewes,J.
     r2SCAN-3c: A 'Swiss army knife' composite electronic-structure method
     J. Chem. Phys., 2021 154 064103
     doi.org/10.1063/5.0040021

List of papers to cite with high priority. The work reported in these papers was absolutely
necessary for this run to complete.
Our perspective: the developers of density functionals and basis sets usually get cited in chemistry papers
Good! But without the algorithms to do something with them, the functionals or basis sets would not do anything.
Hence, in our opinion, the algorithm design and method developments papers are equally worthy of getting cited

  1. Neese,F.
     An improvement of the resolution of the identity approximation for the formation of the Coulomb matrix
     J. Comp. Chem., 2003 24(14)1740-1747
     doi.org/10.1002/jcc.10318
  2. Garcia-Rates,M.; Neese,F.
     Effect of the Solute Cavity on the Solvation Energy and its Derivatives within the Framework of the Gaussian Charge Scheme
     J. Comput. Chem., 2020 41 922-939
     doi.org/10.1002/jcc.26139
  3. Neese,F.
     The SHARK Integral Generation and Digestion System
     J. Comp. Chem., 2022  1-16
     doi.org/10.1002/jcc.26942
  4. Lehtola,S.; Steigemann,C.; Oliveira,M.; Marques,M.
     Recent developments in Libxc - A comprehensive library of functionals for density functional theory
     Software X, 2018 7 
     doi.org/10.1016/j.softx.2017.11.002
  5. Caldeweyher,E.; Bannwarth,C.; Grimme,S.
     Extension of the D3 dispersion coefficient model
     J. Chem. Phys., 2017 147 034112-XXXX
     doi.org/10.1063/1.4993215
  6. Caldeweyher,E.; Ehlert,S.; Hansen,A.; Neugebauer,H.; Spicher,S.; Bannwarth,C.; Grimme,S.
     A generally applicable atomic-charge dependent London dispersion correction
     J. Chem. Phys., 2019 150 154122-XXXX
     doi.org/10.1063/1.5090222
  7. Caldeweyher,E.; Mewes,J.; Ehlert,S.; Grimme,S.
     Extension and evaluation of the D4 London-dispersion model for periodic systems
     Phys. Chem. Chem. Phys., 2020 22(16)8499-8512
     doi.org/10.1039/D0CP00502A

List of suggested additional citations. These are papers that are important in the 'surrounding' of 
of this run, or papers that preceded the highly important papers. If you like your results we are grateful for a citation.

  1. Neese,F.
     The ORCA program system
     WIRES Comput. Molec. Sci., 2012 2(1)73-78
     doi.org/10.1002/wcms.81
  2. Neese,F.
     Software update: the ORCA program system, version 4.0
     WIRES Comput. Molec. Sci., 2018 8(1)1-6
     doi.org/10.1002/wcms.1327
  3. Neese,F.; Wennmohs,F.; Becker,U.; Riplinger,C.
     The ORCA quantum chemistry program package
     J. Chem. Phys., 2020 152 Art. No. L224108
     doi.org/10.1063/5.0004608

List of optional additional citations

  1. Neese,F.
     Approximate second-order SCF convergence for spin unrestricted wavefunctions
     Chem. Phys. Lett., 2000 325(1-3)93-98
     doi.org/10.1016/s0009-2614(00)00662-x

Timings for individual modules:

Sum of individual times          ...       23.999 sec (=   0.400 min)
Startup calculation              ...        1.038 sec (=   0.017 min)   4.3 %
SCF iterations                   ...       22.848 sec (=   0.381 min)  95.2 %
Property calculations            ...        0.113 sec (=   0.002 min)   0.5 %
                             ****ORCA TERMINATED NORMALLY****
TOTAL RUN TIME: 0 days 0 hours 0 minutes 24 seconds 828 msec
