      -----------------------------------------------------------      
     |                   =====================                   |     
     |                           x T B                           |     
     |                   =====================                   |     
     |                         S. Grimme                         |     
     |          Mulliken Center for Theoretical Chemistry        |     
     |                    University of Bonn                     |     
      -----------------------------------------------------------      

   * xtb version 6.7.1 (edcfbbe) compiled by 'albert@albert-system' on 2024-07-22

   xtb is free software: you can redistribute it and/or modify it under
   the terms of the GNU Lesser General Public License as published by
   the Free Software Foundation, either version 3 of the License, or
   (at your option) any later version.
   
   xtb is distributed in the hope that it will be useful,
   but WITHOUT ANY WARRANTY; without even the implied warranty of
   MERCHANTABILITY or FITNESS FOR A PARTICULAR PURPOSE.  See the
   GNU Lesser General Public License for more details.
   
   Cite this work as:
   * C. Bannwarth, E. Caldeweyher, S. Ehlert, A. Hansen, P. Pracht,
     J. Seibert, S. Spicher, S. Grimme, WIREs Comput. Mol. Sci., 2020, 11,
     e01493. DOI: 10.1002/wcms.1493
   
   for GFN2-xTB:
   * C. Bannwarth, S. Ehlert and S. Grimme., J. Chem. Theory Comput., 2019,
     15, 1652-1671. DOI: 10.1021/acs.jctc.8b01176
   for GFN1-xTB:
   * S. Grimme, C. Bannwarth, P. Shushkov, J. Chem. Theory Comput., 2017,
     13, 1989-2009. DOI: 10.1021/acs.jctc.7b00118
   for GFN0-xTB:
   * P. Pracht, E. Caldeweyher, S. Ehlert, S. Grimme, ChemRxiv, 2019, preprint.
     DOI: 10.26434/chemrxiv.8326202.v1
   for GFN-FF:
   * S. Spicher and S. Grimme, Angew. Chem. Int. Ed., 2020, 59, 15665-15673.
     DOI: 10.1002/anie.202004239
   
   for ALPB and GBSA implicit solvation:
   * S. Ehlert, M. Stahn, S. Spicher, S. Grimme, J. Chem. Theory Comput.,
     2021, 17, 4250-4261. DOI: 10.1021/acs.jctc.1c00471
   
   for ddCOSMO and CPCM-X implicit solvation:
   * M. Stahn, S. Ehlert, S. Grimme, J. Phys. Chem. A,
     2023, XX, XXXX-XXXX. DOI: 10.1021/acs.jpca.3c04382
   
   for DFT-D4:
   * E. Caldeweyher, C. Bannwarth and S. Grimme, J. Chem. Phys., 2017,
     147, 034112. DOI: 10.1063/1.4993215
   * E. Caldeweyher, S. Ehlert, A. Hansen, H. Neugebauer, S. Spicher,
     C. Bannwarth and S. Grimme, J. Chem. Phys., 2019, 150, 154122.
     DOI: 10.1063/1.5090222
   * E. Caldeweyher, J.-M. Mewes, S. Ehlert and S. Grimme, Phys. Chem. Chem. Phys.
     2020, 22, 8499-8512. DOI: 10.1039/D0CP00502A
   
   for sTDA-xTB:
   * S. Grimme and C. Bannwarth, J. Chem. Phys., 2016, 145, 054103.
     DOI: 10.1063/1.4959605
   
   in the mass-spec context:
   * V. Asgeirsson, C. Bauer and S. Grimme, Chem. Sci., 2017, 8, 4879.
     DOI: 10.1039/c7sc00601b
   * J. Koopman and S. Grimme, ACS Omega 2019, 4, 12, 15120-15133.
     DOI: 10.1021/acsomega.9b02011
   
   for metadynamics refer to:
   * S. Grimme, J. Chem. Theory Comput., 2019, 155, 2847-2862
     DOI: 10.1021/acs.jctc.9b00143
   
   for SPH calculations refer to:
   * S. Spicher and S. Grimme, J. Chem. Theory Comput., 2021, 17, 1701-1714
     DOI: 10.1021/acs.jctc.0c01306
   
   for ONIOM refer to:
   * C. Plett, A. Katbashev, S. Ehlert, S. Grimme, M. Bursch,
     Phys. Chem. Chem. Phys., 2023, 25, 17860-17868. DOI: 10.1039/D3CP02178E
   
   for DIPRO refer to:
   * J. Kohn, N. Gildemeister, S. Grimme, D. Fazzi, A. Hansen,
     J. Chem. Phys., 2023, just accepted.
   
   for PTB refer to:
   * S. Grimme, M. Mueller, A. Hansen, J. Chem. Phys., 2023, 158, 124111.
     DOI: 10.1063/5.0137838
   
   with help from (in alphabetical order)
   P. Atkinson, C. Bannwarth, F. Bohle, G. Brandenburg, E. Caldeweyher
   M. Checinski, S. Dohm, S. Ehlert, S. Ehrlich, I. Gerasimov, C. Hölzer
   A. Katbashev, J. Kohn, J. Koopman, C. Lavigne, S. Lehtola, F. März, M. Müller,
   F. Musil, H. Neugebauer, J. Pisarek, C. Plett, P. Pracht, F. Pultar,
   J. Seibert, P. Shushkov, S. Spicher, M. Stahn, M. Steiner, T. Strunk,
   J. Stückrath, T. Rose, and J. Unsleber
   
 * started run on 2025/04/11 at 16:04:46.207     
   ID    Z sym.   atoms
    1    6 C      1, 3, 5, 7
    2    8 O      2, 4, 6
    3    1 H      8-17

           -------------------------------------------------
          |                Calculation Setup                |
           -------------------------------------------------

          program call               : /srv/scratch/z5358697/.xtb/bin/xtb xtb_opt.coord --opt normal --orca -I xtb_opt-xcontrol-inp
          hostname                   : k063
          coordinate file            : xtb_opt.coord
          omp threads                :                     8

           -------------------------------------------------
          |                   Orca driver                   |
           -------------------------------------------------
orca executable           : /apps/z_install_tree/linux-rocky8-ivybridge/gcc-12.2.0/orca-6.0.0-srtngmq3qlimg2qxbl6avaaiffipurdx/bin/orca
orca input file           : xtb_opt.inp
orca input line           : 
orca parallel             : true
orca number of threads    : 8
                         * ORCA takes the control...
  ------------------------------------------------------------------------

                                 *****************
                                 * O   R   C   A *
                                 *****************

                                            #,                                       
                                            ###                                      
                                            ####                                     
                                            #####                                    
                                            ######                                   
                                           ########,                                 
                                     ,,################,,,,,                         
                               ,,#################################,,                 
                          ,,##########################################,,             
                       ,#########################################, ''#####,          
                    ,#############################################,,   '####,        
                  ,##################################################,,,,####,       
                ,###########''''           ''''###############################       
              ,#####''   ,,,,##########,,,,          '''####'''          '####       
            ,##' ,,,,###########################,,,                        '##       
           ' ,,###''''                  '''############,,,                           
         ,,##''                                '''############,,,,        ,,,,,,###''
      ,#''                                            '''#######################'''  
     '                                                          ''''####''''         
             ,#######,   #######,   ,#######,      ##                                
            ,#'     '#,  ##    ##  ,#'     '#,    #''#        ,####,   ,####,        
            ##       ##  ##   ,#'  ##            #'  '#       #'       #'  '#        
            ##       ##  #######   ##           ,######,      #####,   #    #        
            '#,     ,#'  ##    ##  '#,     ,#' ,#      #,     #,   #   #,  ,#        
             '#######'   ##     ##  '#######'  #'      '#     '####' # '####'        



                #########################################################
                #                        -***-                          #
                #          Department of theory and spectroscopy        #
                #                                                       #
                #                      Frank Neese                      #
                #                                                       #
                #     Directorship, Architecture, Infrastructure        #
                #                    SHARK, DRIVERS                     #
                #        Core code/Algorithms in most modules           #
                #                                                       #
                #        Max Planck Institute fuer Kohlenforschung      #
                #                Kaiser Wilhelm Platz 1                 #
                #                 D-45470 Muelheim/Ruhr                 #
                #                      Germany                          #
                #                                                       #
                #                  All rights reserved                  #
                #                        -***-                          #
                #########################################################


                         Program Version 6.0.0  -   RELEASE  -


 With contributions from (in alphabetic order):
   Daniel Aravena         : Magnetic Suceptibility
   Michael Atanasov       : Ab Initio Ligand Field Theory (pilot matlab implementation)
   Alexander A. Auer      : GIAO ZORA, VPT2 properties, NMR spectrum
   Ute Becker             : All parallelization in ORCA, NUMFREQ, NUMCALC
   Giovanni Bistoni       : ED, misc. LED, open-shell LED, HFLD
   Martin Brehm           : Molecular dynamics
   Dmytro Bykov           : pre 5.0 version of the SCF Hessian
   Marcos Casanova-Páez   : Triplet and SCS-CIS(D). UHF-(DLPNO)-IP/EA/STEOM-CCSD. UHF-CVS-IP/STEOM-CCSD
   Vijay G. Chilkuri      : MRCI spin determinant printing, contributions to CSF-ICE
   Pauline Colinet        : FMM embedding
   Dipayan Datta          : RHF DLPNO-CCSD density
   Achintya Kumar Dutta   : EOM-CC, STEOM-CC
   Nicolas Foglia         : Exact transition moments, OPA infrastructure, MCD improvements
   Dmitry Ganyushin       : Spin-Orbit,Spin-Spin,Magnetic field MRCI
   Miquel Garcia          : C-PCM and meta-GGA Hessian, CCSD/C-PCM, Gaussian charge scheme
   Tiago L. C. Gouveia    : GS-ROHF, GS-ROCIS
   Yang Guo               : DLPNO-NEVPT2, F12-NEVPT2, CIM, IAO-localization
   Andreas Hansen         : Spin unrestricted coupled pair/coupled cluster methods
   Ingolf Harden          : AUTO-CI MPn and infrastructure 
   Benjamin Helmich-Paris : MC-RPA, TRAH-(SCF,CASSCF), AVAS, COSX integrals, SCF dyn. polar.
   Lee Huntington         : MR-EOM, pCC
   Robert Izsak           : Overlap fitted RIJCOSX, COSX-SCS-MP3, EOM
   Riya Kayal             : Wick's Theorem for AUTO-CI, AUTO-CI UHF-CCSDT
   Emily Kempfer          : AUTO-CI, RHF CISDT and CCSDT
   Christian Kollmar      : KDIIS, OOCD, Brueckner-CCSD(T), CCSD density, CASPT2, CASPT2-K, improved NEVPT2
   Axel Koslowski         : Symmetry handling
   Simone Kossmann        : Meta GGA functionals, TD-DFT gradient, OOMP2, (MP2 Hessian; deprecated post 5.0)
   Lucas Lang             : DCDCAS
   Marvin Lechner         : AUTO-CI (C++ implementation), FIC-MRCC
   Spencer Leger          : CASSCF response
   Dagmar Lenk            : GEPOL surface, SMD, ORCA-2-JSON
   Dimitrios Liakos       : Extrapolation schemes; Compound Job, initial MDCI parallelization
   Dimitrios Manganas     : Further ROCIS development; embedding schemes. LFT, Crystal Embedding
   Dimitrios Pantazis     : SARC Basis sets
   Anastasios Papadopoulos: AUTO-CI, single reference methods and gradients
   Taras Petrenko         : pre 6.0 DFT Hessian and TD-DFT gradient, (ASA, deprecated), ECA, 1-Electron XAS/XES, NRVS
   Peter Pinski           : DLPNO-MP2, DLPNO-MP2 Gradient
   Christoph Reimann      : Effective Core Potentials
   Marius Retegan         : Local ZFS, SOC
   Christoph Riplinger    : Optimizer, TS searches, QM/MM, DLPNO-CCSD(T), (RO)-DLPNO pert. Triples
   Michael Roemelt        : Original ROCIS implementation
   Masaaki Saitow         : Open-shell DLPNO-CCSD energy and density
   Barbara Sandhoefer     : DKH picture change effects
   Kantharuban Sivalingam : CASSCF convergence/infrastructure, NEVPT2 and variants, FIC-MRCI
   Bernardo de Souza      : ESD, SOC TD-DFT
   Georgi Stoychev        : AutoAux, RI-MP2 NMR, DLPNO-MP2 response, X2C
   Van Anh Tran           : RI-MP2 g-tensors
   Willem Van den Heuvel  : Paramagnetic NMR
   Zikuan Wang            : NOTCH, Electric field optimization 
   Frank Wennmohs         : Technical directorship and infrastructure
   Hang Xu                : AUTO-CI-Response properties 


 We gratefully acknowledge several colleagues who have allowed us to
 interface, adapt or use parts of their codes:
   Stefan Grimme, W. Hujo, H. Kruse, P. Pracht,  : VdW corrections, initial TS optimization,
                  C. Bannwarth, S. Ehlert,         DFT functionals, gCP, sTDA/sTD-DF
                  L. Wittmann, M. Mueller
   Ed Valeev, F. Pavosevic, A. Kumar             : LibInt (2-el integral package), F12 methods
   Garnet Chan, S. Sharma, J. Yang, R. Olivares  : DMRG
   Ulf Ekstrom                                   : XCFun DFT Library
   Mihaly Kallay                                 : mrcc  (arbitrary order and MRCC methods)
   Frank Weinhold                                : gennbo (NPA and NBO analysis)
   Simon Mueller                                 : openCOSMO-RS
   Christopher J. Cramer and Donald G. Truhlar   : smd solvation model
   Lars Goerigk                                  : TD-DFT with DH, B97 family of functionals
   V. Asgeirsson, H. Jonsson                     : NEB implementation
   FAccTs GmbH                                   : IRC, NEB, NEB-TS, DLPNO-Multilevel, CI-OPT
                                                   MM, QMMM, 2- and 3-layer-ONIOM, Crystal-QMMM,
                                                   LR-CPCM, SF, NACMEs, symmetry and pop. for TD-DFT,
                                                   nearIR, NL-DFT gradient (VV10), updates on ESD,
                                                   ML-optimized integration grids, MBIS, APM,
                                                   GOAT, DOCKER, SOLVATOR, interface openCOSMO-RS
   S Lehtola, MJT Oliveira, MAL Marques          : LibXC Library
   Liviu Ungur et al                             : ANISO software


 Your calculation uses the libint2 library for the computation of 2-el integrals
 For citations please refer to: http://libint.valeyev.net

 Your ORCA version has been built with support for libXC version: 6.2.2
 For citations please refer to: https://libxc.gitlab.io

 This ORCA versions uses:
   CBLAS   interface :  Fast vector & matrix operations
   LAPACKE interface :  Fast linear algebra routines
   SCALAPACK package :  Parallel linear algebra routines
   Shared memory     :  Shared parallel matrices
   BLAS/LAPACK       :  OpenBLAS 0.3.27  USE64BITINT DYNAMIC_ARCH NO_AFFINITY SkylakeX SINGLE_THREADED
        Core in use  :  SkylakeX
   Copyright (c) 2011-2014, The OpenBLAS Project




***************************************
The coordinates will be read from file: xtb_opt.xyz
***************************************


Your calculation utilizes the geometrical counterpoise correction gCP
Please cite in your paper:
H.Kruse, S. Grimme J.Chem.Phys., 136, (2012), 154101 
   

Your calculation utilizes the atom-pairwise dispersion correction
based on EEQ partial charges (D4)


Your calculation utilizes the SMD solvation module
Please cite in your paper:
A.V. Marenich, C.J. Cramer, D.G. Truhlar J. Phys. Chem. B, 113, (2009), 6378 

================================================================================

----- Orbital basis set information -----
Your calculation utilizes the basis: def2-mTZVPP
   Stefan Grimme, Andreas Hansen, Sebastian Ehlert, and Jan-Michael Mewes 
   J. Chem. Phys. 154, 064103 (2021). DOI: 10.1063/5.0040021

----- AuxJ basis set information -----
Your calculation utilizes the auxiliary basis: def2/J
   F. Weigend, Phys. Chem. Chem. Phys. 8, 1057 (2006).

================================================================================
                                        WARNINGS
                       Please study these warnings very carefully!
================================================================================

WARNING: Old DensityContainer found on disk!
         Will remove this file - 
         If you want to keep old densities, please start your calculation with a different basename. 

Using LibXC functional ID 497 : Re-regularized SCAN exchange by Furness et al
[ 1]  J. W. Furness, A. D. Kaplan, J. Ning, J. P. Perdew, and J. Sun.,  J. Phys. Chem. Lett. 11, 8208-8215 (2020)
[ 2]  J. W. Furness, A. D. Kaplan, J. Ning, J. P. Perdew, and J. Sun.,  J. Phys. Chem. Lett. 11, 9248-9248 (2020)
Using LibXC functional ID 498 : Re-regularized SCAN correlation by Furness et al
[ 1]  J. W. Furness, A. D. Kaplan, J. Ning, J. P. Perdew, and J. Sun.,  J. Phys. Chem. Lett. 11, 8208-8215 (2020)
[ 2]  J. W. Furness, A. D. Kaplan, J. Ning, J. P. Perdew, and J. Sun.,  J. Phys. Chem. Lett. 11, 9248-9248 (2020)
Using LibXC functional ID 497 : Re-regularized SCAN exchange by Furness et al
[ 1]  J. W. Furness, A. D. Kaplan, J. Ning, J. P. Perdew, and J. Sun.,  J. Phys. Chem. Lett. 11, 8208-8215 (2020)
[ 2]  J. W. Furness, A. D. Kaplan, J. Ning, J. P. Perdew, and J. Sun.,  J. Phys. Chem. Lett. 11, 9248-9248 (2020)
Using LibXC functional ID 498 : Re-regularized SCAN correlation by Furness et al
[ 1]  J. W. Furness, A. D. Kaplan, J. Ning, J. P. Perdew, and J. Sun.,  J. Phys. Chem. Lett. 11, 8208-8215 (2020)
[ 2]  J. W. Furness, A. D. Kaplan, J. Ning, J. P. Perdew, and J. Sun.,  J. Phys. Chem. Lett. 11, 9248-9248 (2020)

================================================================================
                                       INPUT FILE
================================================================================
NAME = xtb_opt.inp
|  1> ! r2scan-3c def2/J RI DEFGRID2 scfconv7 ENGRAD tightSCF miniprint
|  2> %cpcm
|  3>     smd true
|  4>     smdsolvent "water"
|  5> end
|  6> * xyzfile 0 1 xtb_opt.xyz
|  7> 
|  8>                          ****END OF INPUT****
================================================================================

                     *******************************
                     * Energy+Gradient Calculation *
                     *******************************

---------------------------------
CARTESIAN COORDINATES (ANGSTROEM)
---------------------------------
  C      1.315150   -1.620060    0.487272
  O      0.829214   -0.947111   -0.694016
  C     -0.158341    0.016910   -0.460269
  O      0.232206    0.994048    0.477778
  C      1.319511    1.805517    0.002549
  O     -1.302252   -0.616399    0.044856
  C     -2.458419    0.240679    0.058043
  H      0.532172   -2.235986    0.944448
  H      1.700557   -0.904503    1.222427
  H      2.129351   -2.263315    0.146199
  H     -0.358163    0.484394   -1.439050
  H      1.445200    2.612973    0.726371
  H      1.085557    2.231221   -0.981917
  H      2.248411    1.226810   -0.062760
  H     -2.608674    0.700928   -0.927739
  H     -2.366892    1.023677    0.818649
  H     -3.312329   -0.397167    0.294902

----------------------------
CARTESIAN COORDINATES (A.U.)
----------------------------
  NO LB      ZA    FRAG     MASS         X           Y           Z
   0 C     6.0000    0    12.011    2.485273   -3.061470    0.920811
   1 O     8.0000    0    15.999    1.566988   -1.789781   -1.311500
   2 C     6.0000    0    12.011   -0.299221    0.031956   -0.869783
   3 O     8.0000    0    15.999    0.438806    1.878478    0.902869
   4 C     6.0000    0    12.011    2.493514    3.411933    0.004816
   5 O     8.0000    0    15.999   -2.460899   -1.164826    0.084765
   6 C     6.0000    0    12.011   -4.645738    0.454817    0.109685
   7 H     1.0000    0     1.008    1.005658   -4.225401    1.784748
   8 H     1.0000    0     1.008    3.213588   -1.709264    2.310053
   9 H     1.0000    0     1.008    4.023890   -4.277045    0.276276
  10 H     1.0000    0     1.008   -0.676829    0.915372   -2.719411
  11 H     1.0000    0     1.008    2.731032    4.937803    1.372643
  12 H     1.0000    0     1.008    2.051406    4.216396   -1.855553
  13 H     1.0000    0     1.008    4.248882    2.318336   -0.118599
  14 H     1.0000    0     1.008   -4.929679    1.324561   -1.753172
  15 H     1.0000    0     1.008   -4.472777    1.934469    1.547022
  16 H     1.0000    0     1.008   -6.259395   -0.750537    0.557284

------------------------------------------------------------------------------
                   ___                                                        
                  /   \      - P O W E R E D   B Y -                         
                 /     \                                                     
                 |  |  |   _    _      __       _____    __    __             
                 |  |  |  | |  | |    /  \     |  _  \  |  |  /  |          
                  \  \/   | |  | |   /    \    | | | |  |  | /  /          
                 / \  \   | |__| |  /  /\  \   | |_| |  |  |/  /          
                |  |  |   |  __  | /  /__\  \  |    /   |      \           
                |  |  |   | |  | | |   __   |  |    \   |  |\   \          
                \     /   | |  | | |  |  |  |  | |\  \  |  | \   \       
                 \___/    |_|  |_| |__|  |__|  |_| \__\ |__|  \__/        
                                                                              
                      - O R C A' S   B I G   F R I E N D -                    
                                      &                                       
                       - I N T E G R A L  F E E D E R -                       
                                                                              
 v1 FN, 2020, v2 2021, v3 2022-2024                                           
------------------------------------------------------------------------------


----------------------
SHARK INTEGRAL PACKAGE
----------------------

Number of atoms                             ...     17
Number of basis functions                   ...    198
Number of shells                            ...     96
Maximum angular momentum                    ...      2
Integral batch strategy                     ... SHARK/LIBINT Hybrid
RI-J (if used) integral strategy            ... SPLIT-RIJ (Revised 2003 algorithm where possible)
Printlevel                                  ...      1
Contraction scheme used                     ... SEGMENTED contraction
Prescreening option                         ... SCHWARTZ
   Thresh                                   ... 3.000e-11
   Tcut                                     ... 1.000e-12
   Tpresel                                  ... 1.000e-12 
Coulomb Range Separation                    ... NOT USED
Exchange Range Separation                   ... NOT USED
Multipole approximations                    ... NOT USED
Finite Nucleus Model                        ... NOT USED
CABS basis                                  ... NOT available
Auxiliary Coulomb fitting basis             ... AVAILABLE
   # of basis functions in Aux-J            ...    453
   # of shells in Aux-J                     ...    155
   Maximum angular momentum in Aux-J        ...      4
Auxiliary J/K fitting basis                 ... NOT available
Auxiliary Correlation fitting basis         ... NOT available
Auxiliary 'external' fitting basis          ... NOT available

Checking pre-screening integrals            ... done (  0.0 sec) Dimension = 96
Check shell pair data                       ... done (  0.0 sec)
Shell pair information
Shell pair cut-off parameter TPreSel        ...   1.0e-12
Total number of shell pairs                 ...      4656
Shell pairs after pre-screening             ...      4302
Total number of primitive shell pairs       ...     16294
Primitive shell pairs kept                  ...     10868
          la=0 lb=0:   1390 shell pairs
          la=1 lb=0:   1569 shell pairs
          la=1 lb=1:    460 shell pairs
          la=2 lb=0:    526 shell pairs
          la=2 lb=1:    302 shell pairs
          la=2 lb=2:     55 shell pairs

Calculating one electron integrals          ... done (  0.0 sec)
Calculating RI/J V-Matrix + Cholesky decomp.... done (  0.1 sec)
Calculating Nuclear repulsion               ... done (  0.0 sec) ENN=    350.467353144663 Eh

Diagonalization of the overlap matrix:
Smallest eigenvalue                        ... 4.203e-04
Time for diagonalization                   ...    0.009 sec
Threshold for overlap eigenvalues          ... 1.000e-07
Number of eigenvalues below threshold      ... 0
Time for construction of square roots      ...    0.019 sec
Total time needed                          ...    0.039 sec

-------------------
DFT GRID GENERATION
-------------------

General Integration Accuracy     IntAcc      ... 4.388
Radial Grid Type                 RadialGrid  ... OptM3 with GC (2021)
Angular Grid (max. ang.)         AngularGrid ... 4 (Lebedev-302)
Angular grid pruning method      GridPruning ... 4 (adaptive)
Weight generation scheme         WeightScheme... mBecke (2022)
Basis function cutoff            BFCut       ... 1.0000e-11
Integration weight cutoff        WCut        ... 1.0000e-14
Partially contracted basis set               ... off
Rotationally invariant grid construction     ... off
Angular grids for H and He will be reduced by one unit
Diffuse basis detected: some atoms will have their outermost
                        angular grid increased by 1.

Total number of grid points                  ...    75496
Total number of batches                      ...     1189
Average number of points per batch           ...       63
Average number of grid points per atom       ...     4441
Initializing property integral containers    ... done (  0.0 sec)

SHARK setup successfully completed in   1.1 seconds

Maximum memory used throughout the entire STARTUP-calculation: 34.1 MB
Occupation numbers will be reassigned to an Aufbau configuration
             **** ENERGY FILE WAS UPDATED (xtb_opt.en.tmp) ****
Finished Guess after   0.3 sec
Maximum memory used throughout the entire GUESS-calculation: 13.6 MB
--------------------
CPCM SOLVATION MODEL
--------------------
CPCM parameters:
  Epsilon                                         ...      78.3550
  Refrac                                          ...       1.3328
  Rsolv                                           ...       1.3000
  Surface type                                    ... GAUSSIAN VDW
  Discretization scheme                           ... Constant charge density
    Threshold for H atoms                         ...       5.0000 (charges/Ang^2)
    Threshold for non-H atoms                     ...       5.0000 (charges/Ang^2)
  Epsilon function type                           ...         CPCM
Solvent:                                          ... WATER
SMD-CDS solvent descriptors:
  Soln                                            ...       1.3328
  Soln25                                          ...       1.3323
  Sola                                            ...       0.0000
  Solb                                            ...       0.0000
  Solg                                            ...       0.0000
  Solc                                            ...       0.0000
  Solh                                            ...       0.0000
Radii:
  Scheme                                          ... Element-dependent radii
  Radius for C  used is    3.4960 Bohr (=   1.8500 Ang.)
  Radius for O  used is    2.8724 Bohr (=   1.5200 Ang.)
  Radius for H  used is    2.2677 Bohr (=   1.2000 Ang.)
Calculating surface                               ...        done! (  0.0s)
Cavity surface points                             ...         1288
Cavity Volume                                     ...     752.3547
Cavity Surface-area                               ...     516.0603
Calculating surface distance matrix               ...        done! (  0.0s)
Performing Cholesky decomposition & store         ...        done! (  0.1s)
Overall time for CPCM initialization              ...                 0.1s

----------------------------------------D-I-I-S--------------------------------------------
Iteration    Energy (Eh)           Delta-E    RMSDP     MaxDP     DIISErr   Damp  Time(sec)
-------------------------------------------------------------------------------------------
               ***  Starting incremental Fock matrix formation  ***
                              *** Initializing SOSCF ***
---------------------------------------S-O-S-C-F--------------------------------------
Iteration    Energy (Eh)           Delta-E    RMSDP     MaxDP     MaxGrad    Time(sec)
--------------------------------------------------------------------------------------
    1    -384.0262315084501665     0.00e+00  2.70e-06  7.61e-05  5.77e-06     2.6
               *** Restarting incremental Fock matrix formation ***
    2    -384.0262314974965534     1.10e-08  4.28e-06  1.22e-04  3.33e-05     2.5
    3    -384.0262313863863142     1.11e-07  3.01e-06  7.98e-05  6.08e-05     2.0
    4    -384.0262315394613211    -1.53e-07  2.90e-07  6.49e-06  1.59e-06     2.0
                  *** Gradient check signals convergence ***

               *****************************************************
               *                     SUCCESS                       *
               *           SCF CONVERGED AFTER   4 CYCLES          *
               *****************************************************


SMD CDS free energy correction energy :                 5.13449     Kcal/mol
Total Energy after SMD CDS correction =              -384.018049212 Eh
             **** ENERGY FILE WAS UPDATED (xtb_opt.en.tmp) ****

----------------
TOTAL SCF ENERGY
----------------

Total Energy       :       -384.01804921168417 Eh          -10449.66237 eV

Components:
Nuclear Repulsion  :        350.46735314466338 Eh            9536.70152 eV
Electronic Energy  :       -734.47526876669440 Eh          -19986.08814 eV
One Electron Energy:      -1219.53508394937398 Eh          -33185.23674 eV
Two Electron Energy:        485.05981518267964 Eh           13199.14860 eV
CPCM Dielectric    :         -0.01831591743034 Eh              -0.49840 eV
SMD CDS (Gcds)     :          0.00818232777714 Eh               0.22265 eV

Virial components:
Potential Energy   :       -766.27892311518121 Eh          -20851.50957 eV
Kinetic Energy     :        382.26087390349710 Eh           10401.84720 eV
Virial Ratio       :          2.00459679613622

DFT components:
N(Alpha)           :       28.999983434736 electrons
N(Beta)            :       28.999983434736 electrons
N(Total)           :       57.999966869472 electrons
E(X)               :      -49.180913112355 Eh       
E(C)               :       -1.866772367806 Eh       
E(XC)              :      -51.047685480161 Eh       

CPCM Solvation Model Properties:
Surface-charge          :         -0.04170261071463
Corrected charge        :         -0.00000000000000
Outlying charge corr.   :          0.00014057893704 Eh               0.00383 eV
Free-energy (cav+disp)  :          0.00818232777714 Eh               0.22265 eV

---------------
SCF CONVERGENCE
---------------

  Last Energy change         ...    1.5308e-07  Tolerance :   1.0000e-07
  Last MAX-Density change    ...    6.4853e-06  Tolerance :   1.0000e-07
  Last RMS-Density change    ...    2.9036e-07  Tolerance :   5.0000e-09
  Last DIIS Error            ...    1.1377e-04  Tolerance :   1.0000e-07
  Last Orbital Gradient      ...    1.5950e-06  Tolerance :   1.0000e-04
  Last Orbital Rotation      ...    2.4857e-06  Tolerance :   1.0000e-04


----------------
ORBITAL ENERGIES
----------------

  NO   OCC          E(Eh)            E(eV) 
   0   2.0000     -18.972989      -516.2813 
   1   2.0000     -18.972797      -516.2761 
   2   2.0000     -18.970636      -516.2172 
   3   2.0000     -10.179476      -276.9976 
   4   2.0000     -10.071555      -274.0609 
   5   2.0000     -10.070649      -274.0363 
   6   2.0000     -10.069415      -274.0027 
   7   2.0000      -1.068237       -29.0682 
   8   2.0000      -0.983631       -26.7660 
   9   2.0000      -0.980518       -26.6812 
  10   2.0000      -0.702985       -19.1292 
  11   2.0000      -0.658557       -17.9203 
  12   2.0000      -0.647244       -17.6124 
  13   2.0000      -0.565171       -15.3791 
  14   2.0000      -0.491397       -13.3716 
  15   2.0000      -0.486800       -13.2465 
  16   2.0000      -0.483180       -13.1480 
  17   2.0000      -0.419059       -11.4032 
  18   2.0000      -0.411407       -11.1949 
  19   2.0000      -0.393101       -10.6968 
  20   2.0000      -0.389429       -10.5969 
  21   2.0000      -0.383574       -10.4376 
  22   2.0000      -0.362659        -9.8684 
  23   2.0000      -0.333577        -9.0771 
  24   2.0000      -0.312771        -8.5109 
  25   2.0000      -0.295864        -8.0509 
  26   2.0000      -0.261068        -7.1040 
  27   2.0000      -0.252538        -6.8719 
  28   2.0000      -0.244462        -6.6522 
  29   0.0000       0.066090         1.7984 
  30   0.0000       0.079389         2.1603 
  31   0.0000       0.089428         2.4334 
  32   0.0000       0.109200         2.9715 
  33   0.0000       0.117585         3.1996 
  34   0.0000       0.129737         3.5303 
  35   0.0000       0.143959         3.9173 
  36   0.0000       0.157020         4.2727 
  37   0.0000       0.167262         4.5514 
  38   0.0000       0.176919         4.8142 
  39   0.0000       0.182686         4.9711 
*Only the first 10 virtual orbitals were printed.
Total SCF time: 0 days 0 hours 0 min 9 sec 
Finished LeanSCF after   9.8 sec

Maximum memory used throughout the entire LEANSCF-calculation: 24.4 MB


-------------------------------------------------------------------------------
                          DFT DISPERSION CORRECTION                            
                                                                               
                                DFTD4 V3.4.0                                   
-------------------------------------------------------------------------------
-------------------------   ----------------
Dispersion correction           -0.003971003
-------------------------   ----------------

------------------   -----------------
gCP correction             0.017432262
------------------   -----------------

-------------------------   --------------------
FINAL SINGLE POINT ENERGY      -384.004587952925
-------------------------   --------------------

------------------------------------------------------------------------------
                         ORCA SCF GRADIENT CALCULATION
------------------------------------------------------------------------------

Nuc. rep. gradient        (SHARK) ... done (  0.0 sec)
HCore & Overlap gradient  (SHARK) ... done (  0.2 sec)
Split-RIJ-J gradient      (SHARK) ... done (  1.2 sec)
XC gradient                       ... done (  4.6 sec)
CPCM gradient                     ... done (  0.6 sec)
SMD gradient                      ... done (  0.0 sec)
Dispersion correction             ... done (  0.0 sec)

-------------------
DISPERSION GRADIENT
-------------------

   1   C   :    0.000029686   -0.000051808    0.000013046
   2   O   :    0.000029420   -0.000038545   -0.000016253
   3   C   :    0.000000213    0.000018622    0.000012292
   4   O   :    0.000015417    0.000032469   -0.000000404
   5   C   :    0.000031780    0.000043057   -0.000017456
   6   O   :   -0.000052689   -0.000014170   -0.000007225
   7   C   :   -0.000057146    0.000008497   -0.000010378
   8   H   :    0.000017317   -0.000033410    0.000008083
   9   H   :    0.000020096   -0.000026675    0.000010478
  10   H   :    0.000019225   -0.000031577    0.000003496
  11   H   :   -0.000003198   -0.000004453   -0.000005921
  12   H   :    0.000019261    0.000035141    0.000007321
  13   H   :    0.000021464    0.000034375   -0.000005614
  14   H   :    0.000019531    0.000028028    0.000000419
  15   H   :   -0.000038008   -0.000000303   -0.000003169
  16   H   :   -0.000039577    0.000002188    0.000007827
  17   H   :   -0.000032793   -0.000001435    0.000003458

Difference to translation invariance:
           :   -0.0000000000   -0.0000000000    0.0000000000

Difference to rotation invariance:
           :    0.0000000000   -0.0000000000   -0.0000000000

Norm of the Dispersion gradient    ...    0.0001749626
RMS gradient                       ...    0.0000244997
MAX gradient                       ...    0.0000571459
gCP correction                   ... done

------------------
CARTESIAN GRADIENT
------------------

   1   C   :   -0.000189838    0.000392665   -0.000702942
   2   O   :   -0.000146979    0.000030299   -0.000060258
   3   C   :    0.000420472    0.000017572   -0.000148674
   4   O   :   -0.000121711   -0.000033059    0.000007341
   5   C   :   -0.000314415   -0.000333005    0.000041909
   6   O   :   -0.000050605    0.000021372    0.000052143
   7   C   :    0.000356445   -0.000203737    0.000066379
   8   H   :   -0.000690332   -0.000561217    0.000411974
   9   H   :    0.000301282    0.000613279    0.000641002
  10   H   :    0.000609284   -0.000389266   -0.000342871
  11   H   :   -0.000048674   -0.000054187    0.000120982
  12   H   :    0.000042223    0.000196663    0.000119762
  13   H   :    0.000040967    0.000065009   -0.000192818
  14   H   :    0.000199120   -0.000030636   -0.000001478
  15   H   :   -0.000113017    0.000200144   -0.000390850
  16   H   :    0.000015437    0.000284645    0.000254505
  17   H   :   -0.000309662   -0.000216540    0.000123892

Difference to translation invariance:
           :   -0.0000000000   -0.0000000000   -0.0000000000

Difference to rotation invariance:
           :   -0.0000524270    0.0005230958    0.0000955576

Norm of the Cartesian gradient     ...    0.0021126720
RMS gradient                       ...    0.0002958333
MAX gradient                       ...    0.0007029416

-------
TIMINGS
-------

Total SCF gradient time     ....        7.306 sec

Densities                   ....       0.000 sec  (  0.0%)
One electron gradient       ....       0.220 sec  (  3.0%)
RI-J Coulomb gradient       ....       1.183 sec  ( 16.2%)
XC gradient                 ....       4.620 sec  ( 63.2%)
CPCM gradient               ....       0.650 sec  (  8.9%)
   A-Matrix (El+Nuc)        ....       0.056 sec  (  0.8%)
   Potential                ....       0.594 sec  (  8.1%)
SMD gradient                ....       0.014 sec  (  0.2%)

Maximum memory used throughout the entire SCFGRAD-calculation: 33.7 MB

------------------------------------------------------------------------------
                              ORCA PROPERTY CALCULATIONS
------------------------------------------------------------------------------

GBWName                                 ... xtb_opt.gbw
Number of atoms                         ...     17
Number of basis functions               ...    198
Max core memory                         ...   1024 MB

Electric properties:
Dipole moment                           ... YES
Quadrupole moment                       ...  NO
Static polarizability (Dipole/Dipole)   ...  NO
Static polarizability (Dipole/Quad.)    ...  NO
Static polarizability (Quad./Quad.)     ...  NO
Static polarizability (Velocity)        ...  NO

Atomic electric properties:
Dipole moment                           ...  NO
Quadrupole moment                       ...  NO
Static polarizability                   ...  NO

Choice of electric origin               ... Center of mass
Position of electric origin             ...    -0.055895    -0.022981    -0.016781

General magnetic properties:
Magnetizability                         ...  NO

EPR properties:
g-Tensor (aka g-matrix)                 ...  NO
Zero-Field splitting spin-orbit         ...  NO
Zero-field splitting spin-spin          ...  NO
Hyperfine couplings                     ...  NO (   0 nuclei)
Quadrupole couplings                    ...  NO (   0 nuclei)
Contact density                         ...  NO (   0 nuclei)

NMR properties:
Chemical shifts                         ...  NO (   0 nuclei)
Spin-rotation constants                 ...  NO (   0 nuclei)
Spin-spin couplings                     ...  NO (   0 nuclei,    0 pairs)

Choice of magnetic origin               ... GIAO
Position of magnetic origin             ...     0.000000     0.000000     0.000000

Properties with geometric perturbations:
SCF Hessian                             ...  NO
IR spectrum                             ...  NO
VCD spectrum                            ...  NO
X-ray spectroscopy properties:
SCF XES/XAS/RIXS spectra                ...  NO


-------------
DIPOLE MOMENT
-------------

Method             : SCF
Type of density    : Electron Density
Multiplicity       :   1
Irrep              :   0
Energy             :  -384.0180492116841720 Eh
Relativity type    : 
Basis              : AO
                                X                 Y                 Z
Electronic contribution:     -0.627961066      -1.604266629      -0.860259584
Nuclear contribution   :      0.739825552       2.431978064       0.776858705
                        -----------------------------------------
Total Dipole Moment    :      0.111864486       0.827711435      -0.083400879
                        -----------------------------------------
Magnitude (a.u.)       :      0.839390010
Magnitude (Debye)      :      2.133559849



--------------------
Rotational spectrum 
--------------------
 
Rotational constants in cm-1:             0.106427             0.077421             0.051479 
Rotational constants in MHz :          3190.587262          2321.011793          1543.286912 

Dipole components along the rotational axes: 
x,y,z [a.u.] :     0.085187     0.827447    -0.112476 
x,y,z [Debye]:     0.216527     2.103202    -0.285891 

 

Dipole moment calculation done in   0.0 sec 

Maximum memory used throughout the entire PROP-calculation: 12.1 MB

--------------------------------
SUGGESTED CITATIONS FOR THIS RUN
--------------------------------

Below you find a list of papers that are relevant to this ORCA run
We neither can nor want to force you to cite these papers, but we appreciate if you do
You receive ORCA, which is the product of decades of hard work by many enthusiastic individuals, for free
The only thing we kindly ask in return is that you cite our papers,
We deeply appreciate it, if you show your appreciation for ORCA by not just citing the generic ORCA reference.

Please note that relegating all ORCA citations to the supporting information does *not* help us.
SI sections are not indexed - citations you put there will not count into any citation statistics
But we need these citations in order to attract the funding resources that allow us to do what we are doing

Therefore, if you are a happy ORCA user, please consider citing a few of the papers listed below in the main body of your paper

In addition to the list printed below, the program has created the file xtb_opt.bibtex that contains the list in bibtex format
You can import this file easily into all common literature databanks and citation aid programs


List of essential papers. We consider these as the minimum necessary citations

  1. Neese,F.
     Software update: the ORCA program system, version 5.0
     WIRES Comput. Molec. Sci., 2022 12(1)e1606
     doi.org/10.1002/wcms.1606
  2. Grimme,S.; Hansen,A.; Ehlert,S.; Mewes,J.
     r2SCAN-3c: A 'Swiss army knife' composite electronic-structure method
     J. Chem. Phys., 2021 154 064103
     doi.org/10.1063/5.0040021

List of papers to cite with high priority. The work reported in these papers was absolutely
necessary for this run to complete.
Our perspective: the developers of density functionals and basis sets usually get cited in chemistry papers
Good! But without the algorithms to do something with them, the functionals or basis sets would not do anything.
Hence, in our opinion, the algorithm design and method developments papers are equally worthy of getting cited

  1. Neese,F.
     An improvement of the resolution of the identity approximation for the formation of the Coulomb matrix
     J. Comp. Chem., 2003 24(14)1740-1747
     doi.org/10.1002/jcc.10318
  2. Garcia-Rates,M.; Neese,F.
     Effect of the Solute Cavity on the Solvation Energy and its Derivatives within the Framework of the Gaussian Charge Scheme
     J. Comput. Chem., 2020 41 922-939
     doi.org/10.1002/jcc.26139
  3. Neese,F.
     The SHARK Integral Generation and Digestion System
     J. Comp. Chem., 2022  1-16
     doi.org/10.1002/jcc.26942
  4. Lehtola,S.; Steigemann,C.; Oliveira,M.; Marques,M.
     Recent developments in Libxc - A comprehensive library of functionals for density functional theory
     Software X, 2018 7 
     doi.org/10.1016/j.softx.2017.11.002
  5. Caldeweyher,E.; Bannwarth,C.; Grimme,S.
     Extension of the D3 dispersion coefficient model
     J. Chem. Phys., 2017 147 034112-XXXX
     doi.org/10.1063/1.4993215
  6. Caldeweyher,E.; Ehlert,S.; Hansen,A.; Neugebauer,H.; Spicher,S.; Bannwarth,C.; Grimme,S.
     A generally applicable atomic-charge dependent London dispersion correction
     J. Chem. Phys., 2019 150 154122-XXXX
     doi.org/10.1063/1.5090222
  7. Caldeweyher,E.; Mewes,J.; Ehlert,S.; Grimme,S.
     Extension and evaluation of the D4 London-dispersion model for periodic systems
     Phys. Chem. Chem. Phys., 2020 22(16)8499-8512
     doi.org/10.1039/D0CP00502A

List of suggested additional citations. These are papers that are important in the 'surrounding' of 
of this run, or papers that preceded the highly important papers. If you like your results we are grateful for a citation.

  1. Neese,F.
     The ORCA program system
     WIRES Comput. Molec. Sci., 2012 2(1)73-78
     doi.org/10.1002/wcms.81
  2. Neese,F.
     Software update: the ORCA program system, version 4.0
     WIRES Comput. Molec. Sci., 2018 8(1)1-6
     doi.org/10.1002/wcms.1327
  3. Neese,F.; Wennmohs,F.; Becker,U.; Riplinger,C.
     The ORCA quantum chemistry program package
     J. Chem. Phys., 2020 152 Art. No. L224108
     doi.org/10.1063/5.0004608

List of optional additional citations

  1. Neese,F.
     Approximate second-order SCF convergence for spin unrestricted wavefunctions
     Chem. Phys. Lett., 2000 325(1-3)93-98
     doi.org/10.1016/s0009-2614(00)00662-x

Timings for individual modules:

Sum of individual times          ...       18.872 sec (=   0.315 min)
Startup calculation              ...        1.165 sec (=   0.019 min)   6.2 %
SCF iterations                   ...       10.169 sec (=   0.169 min)  53.9 %
Property calculations            ...        0.121 sec (=   0.002 min)   0.6 %
SCF Gradient evaluation          ...        7.417 sec (=   0.124 min)  39.3 %
                             ****ORCA TERMINATED NORMALLY****
TOTAL RUN TIME: 0 days 0 hours 0 minutes 19 seconds 846 msec
  ------------------------------------------------------------------------
          * successful ORCA run, taking over control again...

         :::::::::::::::::::::::::::::::::::::::::::::::::::::
         ::                  ORCA SUMMARY                   ::
         :::::::::::::::::::::::::::::::::::::::::::::::::::::
         :: total energy            -384.004587952925 Eh    ::
         :: gradient norm              0.002112672011 Eh/a0 ::
         :: HOMO-LUMO gap              0.000000000000 eV    ::
         :::::::::::::::::::::::::::::::::::::::::::::::::::::

      ----------------------------------------------------------- 
     |                       L-ANC optimizer                     |
      ----------------------------------------------------------- 
          low memory version by Sebastian Ehlert

          ...................................................
          :                      SETUP                      :
          :.................................................:
          :   energy convergence        0.5000000E-05 Eh    :
          :   grad. convergence         0.1000000E-02 Eh/a0 :
          :   optimization log               true           :
          :   writing optlog all                1     steps :
          :   Hessian reset                     8     steps :
          :   maximium step len.        1.0000000     a0    :
          :   LBFGS images                      8           :
          ...................................................
 * calculating model hessian...
Using Lindh-Hessian (1995)
 Shifting diagonal of input Hessian by   1.000000000000000E-002
 Lowest  eigenvalues of input Hessian
    0.000000    0.000000    0.000000    0.000000    0.000000    0.000000
    0.013175    0.014334    0.014565    0.015926    0.016646    0.017893
    0.030287    0.033892    0.036584    0.059712    0.063315    0.073141
 Highest eigenvalues
    1.183425    1.261126    1.303386    1.417995    1.601110    1.658365
 

........................................................................
.............................. CYCLE    1 ..............................
........................................................................
                         * ORCA takes the control...
  ------------------------------------------------------------------------

                                 *****************
                                 * O   R   C   A *
                                 *****************

                                            #,                                       
                                            ###                                      
                                            ####                                     
                                            #####                                    
                                            ######                                   
                                           ########,                                 
                                     ,,################,,,,,                         
                               ,,#################################,,                 
                          ,,##########################################,,             
                       ,#########################################, ''#####,          
                    ,#############################################,,   '####,        
                  ,##################################################,,,,####,       
                ,###########''''           ''''###############################       
              ,#####''   ,,,,##########,,,,          '''####'''          '####       
            ,##' ,,,,###########################,,,                        '##       
           ' ,,###''''                  '''############,,,                           
         ,,##''                                '''############,,,,        ,,,,,,###''
      ,#''                                            '''#######################'''  
     '                                                          ''''####''''         
             ,#######,   #######,   ,#######,      ##                                
            ,#'     '#,  ##    ##  ,#'     '#,    #''#        ,####,   ,####,        
            ##       ##  ##   ,#'  ##            #'  '#       #'       #'  '#        
            ##       ##  #######   ##           ,######,      #####,   #    #        
            '#,     ,#'  ##    ##  '#,     ,#' ,#      #,     #,   #   #,  ,#        
             '#######'   ##     ##  '#######'  #'      '#     '####' # '####'        



                #########################################################
                #                        -***-                          #
                #          Department of theory and spectroscopy        #
                #                                                       #
                #                      Frank Neese                      #
                #                                                       #
                #     Directorship, Architecture, Infrastructure        #
                #                    SHARK, DRIVERS                     #
                #        Core code/Algorithms in most modules           #
                #                                                       #
                #        Max Planck Institute fuer Kohlenforschung      #
                #                Kaiser Wilhelm Platz 1                 #
                #                 D-45470 Muelheim/Ruhr                 #
                #                      Germany                          #
                #                                                       #
                #                  All rights reserved                  #
                #                        -***-                          #
                #########################################################


                         Program Version 6.0.0  -   RELEASE  -


 With contributions from (in alphabetic order):
   Daniel Aravena         : Magnetic Suceptibility
   Michael Atanasov       : Ab Initio Ligand Field Theory (pilot matlab implementation)
   Alexander A. Auer      : GIAO ZORA, VPT2 properties, NMR spectrum
   Ute Becker             : All parallelization in ORCA, NUMFREQ, NUMCALC
   Giovanni Bistoni       : ED, misc. LED, open-shell LED, HFLD
   Martin Brehm           : Molecular dynamics
   Dmytro Bykov           : pre 5.0 version of the SCF Hessian
   Marcos Casanova-Páez   : Triplet and SCS-CIS(D). UHF-(DLPNO)-IP/EA/STEOM-CCSD. UHF-CVS-IP/STEOM-CCSD
   Vijay G. Chilkuri      : MRCI spin determinant printing, contributions to CSF-ICE
   Pauline Colinet        : FMM embedding
   Dipayan Datta          : RHF DLPNO-CCSD density
   Achintya Kumar Dutta   : EOM-CC, STEOM-CC
   Nicolas Foglia         : Exact transition moments, OPA infrastructure, MCD improvements
   Dmitry Ganyushin       : Spin-Orbit,Spin-Spin,Magnetic field MRCI
   Miquel Garcia          : C-PCM and meta-GGA Hessian, CCSD/C-PCM, Gaussian charge scheme
   Tiago L. C. Gouveia    : GS-ROHF, GS-ROCIS
   Yang Guo               : DLPNO-NEVPT2, F12-NEVPT2, CIM, IAO-localization
   Andreas Hansen         : Spin unrestricted coupled pair/coupled cluster methods
   Ingolf Harden          : AUTO-CI MPn and infrastructure 
   Benjamin Helmich-Paris : MC-RPA, TRAH-(SCF,CASSCF), AVAS, COSX integrals, SCF dyn. polar.
   Lee Huntington         : MR-EOM, pCC
   Robert Izsak           : Overlap fitted RIJCOSX, COSX-SCS-MP3, EOM
   Riya Kayal             : Wick's Theorem for AUTO-CI, AUTO-CI UHF-CCSDT
   Emily Kempfer          : AUTO-CI, RHF CISDT and CCSDT
   Christian Kollmar      : KDIIS, OOCD, Brueckner-CCSD(T), CCSD density, CASPT2, CASPT2-K, improved NEVPT2
   Axel Koslowski         : Symmetry handling
   Simone Kossmann        : Meta GGA functionals, TD-DFT gradient, OOMP2, (MP2 Hessian; deprecated post 5.0)
   Lucas Lang             : DCDCAS
   Marvin Lechner         : AUTO-CI (C++ implementation), FIC-MRCC
   Spencer Leger          : CASSCF response
   Dagmar Lenk            : GEPOL surface, SMD, ORCA-2-JSON
   Dimitrios Liakos       : Extrapolation schemes; Compound Job, initial MDCI parallelization
   Dimitrios Manganas     : Further ROCIS development; embedding schemes. LFT, Crystal Embedding
   Dimitrios Pantazis     : SARC Basis sets
   Anastasios Papadopoulos: AUTO-CI, single reference methods and gradients
   Taras Petrenko         : pre 6.0 DFT Hessian and TD-DFT gradient, (ASA, deprecated), ECA, 1-Electron XAS/XES, NRVS
   Peter Pinski           : DLPNO-MP2, DLPNO-MP2 Gradient
   Christoph Reimann      : Effective Core Potentials
   Marius Retegan         : Local ZFS, SOC
   Christoph Riplinger    : Optimizer, TS searches, QM/MM, DLPNO-CCSD(T), (RO)-DLPNO pert. Triples
   Michael Roemelt        : Original ROCIS implementation
   Masaaki Saitow         : Open-shell DLPNO-CCSD energy and density
   Barbara Sandhoefer     : DKH picture change effects
   Kantharuban Sivalingam : CASSCF convergence/infrastructure, NEVPT2 and variants, FIC-MRCI
   Bernardo de Souza      : ESD, SOC TD-DFT
   Georgi Stoychev        : AutoAux, RI-MP2 NMR, DLPNO-MP2 response, X2C
   Van Anh Tran           : RI-MP2 g-tensors
   Willem Van den Heuvel  : Paramagnetic NMR
   Zikuan Wang            : NOTCH, Electric field optimization 
   Frank Wennmohs         : Technical directorship and infrastructure
   Hang Xu                : AUTO-CI-Response properties 


 We gratefully acknowledge several colleagues who have allowed us to
 interface, adapt or use parts of their codes:
   Stefan Grimme, W. Hujo, H. Kruse, P. Pracht,  : VdW corrections, initial TS optimization,
                  C. Bannwarth, S. Ehlert,         DFT functionals, gCP, sTDA/sTD-DF
                  L. Wittmann, M. Mueller
   Ed Valeev, F. Pavosevic, A. Kumar             : LibInt (2-el integral package), F12 methods
   Garnet Chan, S. Sharma, J. Yang, R. Olivares  : DMRG
   Ulf Ekstrom                                   : XCFun DFT Library
   Mihaly Kallay                                 : mrcc  (arbitrary order and MRCC methods)
   Frank Weinhold                                : gennbo (NPA and NBO analysis)
   Simon Mueller                                 : openCOSMO-RS
   Christopher J. Cramer and Donald G. Truhlar   : smd solvation model
   Lars Goerigk                                  : TD-DFT with DH, B97 family of functionals
   V. Asgeirsson, H. Jonsson                     : NEB implementation
   FAccTs GmbH                                   : IRC, NEB, NEB-TS, DLPNO-Multilevel, CI-OPT
                                                   MM, QMMM, 2- and 3-layer-ONIOM, Crystal-QMMM,
                                                   LR-CPCM, SF, NACMEs, symmetry and pop. for TD-DFT,
                                                   nearIR, NL-DFT gradient (VV10), updates on ESD,
                                                   ML-optimized integration grids, MBIS, APM,
                                                   GOAT, DOCKER, SOLVATOR, interface openCOSMO-RS
   S Lehtola, MJT Oliveira, MAL Marques          : LibXC Library
   Liviu Ungur et al                             : ANISO software


 Your calculation uses the libint2 library for the computation of 2-el integrals
 For citations please refer to: http://libint.valeyev.net

 Your ORCA version has been built with support for libXC version: 6.2.2
 For citations please refer to: https://libxc.gitlab.io

 This ORCA versions uses:
   CBLAS   interface :  Fast vector & matrix operations
   LAPACKE interface :  Fast linear algebra routines
   SCALAPACK package :  Parallel linear algebra routines
   Shared memory     :  Shared parallel matrices
   BLAS/LAPACK       :  OpenBLAS 0.3.27  USE64BITINT DYNAMIC_ARCH NO_AFFINITY SkylakeX SINGLE_THREADED
        Core in use  :  SkylakeX
   Copyright (c) 2011-2014, The OpenBLAS Project




***************************************
The coordinates will be read from file: xtb_opt.xyz
***************************************


Your calculation utilizes the geometrical counterpoise correction gCP
Please cite in your paper:
H.Kruse, S. Grimme J.Chem.Phys., 136, (2012), 154101 
   

Your calculation utilizes the atom-pairwise dispersion correction
based on EEQ partial charges (D4)


Your calculation utilizes the SMD solvation module
Please cite in your paper:
A.V. Marenich, C.J. Cramer, D.G. Truhlar J. Phys. Chem. B, 113, (2009), 6378 

================================================================================

----- Orbital basis set information -----
Your calculation utilizes the basis: def2-mTZVPP
   Stefan Grimme, Andreas Hansen, Sebastian Ehlert, and Jan-Michael Mewes 
   J. Chem. Phys. 154, 064103 (2021). DOI: 10.1063/5.0040021

----- AuxJ basis set information -----
Your calculation utilizes the auxiliary basis: def2/J
   F. Weigend, Phys. Chem. Chem. Phys. 8, 1057 (2006).

================================================================================
                                        WARNINGS
                       Please study these warnings very carefully!
================================================================================

WARNING: Old DensityContainer found on disk!
         Will remove this file - 
         If you want to keep old densities, please start your calculation with a different basename. 

Using LibXC functional ID 497 : Re-regularized SCAN exchange by Furness et al
[ 1]  J. W. Furness, A. D. Kaplan, J. Ning, J. P. Perdew, and J. Sun.,  J. Phys. Chem. Lett. 11, 8208-8215 (2020)
[ 2]  J. W. Furness, A. D. Kaplan, J. Ning, J. P. Perdew, and J. Sun.,  J. Phys. Chem. Lett. 11, 9248-9248 (2020)
Using LibXC functional ID 498 : Re-regularized SCAN correlation by Furness et al
[ 1]  J. W. Furness, A. D. Kaplan, J. Ning, J. P. Perdew, and J. Sun.,  J. Phys. Chem. Lett. 11, 8208-8215 (2020)
[ 2]  J. W. Furness, A. D. Kaplan, J. Ning, J. P. Perdew, and J. Sun.,  J. Phys. Chem. Lett. 11, 9248-9248 (2020)
Using LibXC functional ID 497 : Re-regularized SCAN exchange by Furness et al
[ 1]  J. W. Furness, A. D. Kaplan, J. Ning, J. P. Perdew, and J. Sun.,  J. Phys. Chem. Lett. 11, 8208-8215 (2020)
[ 2]  J. W. Furness, A. D. Kaplan, J. Ning, J. P. Perdew, and J. Sun.,  J. Phys. Chem. Lett. 11, 9248-9248 (2020)
Using LibXC functional ID 498 : Re-regularized SCAN correlation by Furness et al
[ 1]  J. W. Furness, A. D. Kaplan, J. Ning, J. P. Perdew, and J. Sun.,  J. Phys. Chem. Lett. 11, 8208-8215 (2020)
[ 2]  J. W. Furness, A. D. Kaplan, J. Ning, J. P. Perdew, and J. Sun.,  J. Phys. Chem. Lett. 11, 9248-9248 (2020)

================================================================================
                                       INPUT FILE
================================================================================
NAME = xtb_opt.inp
|  1> ! r2scan-3c def2/J RI DEFGRID2 scfconv7 ENGRAD tightSCF miniprint
|  2> %cpcm
|  3>     smd true
|  4>     smdsolvent "water"
|  5> end
|  6> * xyzfile 0 1 xtb_opt.xyz
|  7> 
|  8>                          ****END OF INPUT****
================================================================================

                     *******************************
                     * Energy+Gradient Calculation *
                     *******************************

---------------------------------
CARTESIAN COORDINATES (ANGSTROEM)
---------------------------------
  C      1.314921   -1.620177    0.487538
  O      0.829423   -0.946905   -0.693729
  C     -0.158391    0.017102   -0.460103
  O      0.232696    0.994280    0.477814
  C      1.319711    1.806084    0.002318
  O     -1.302111   -0.616528    0.044865
  C     -2.458378    0.240351    0.058006
  H      0.532342   -2.234554    0.944450
  H      1.700697   -0.905591    1.221655
  H      2.127734   -2.264036    0.147478
  H     -0.357844    0.484598   -1.439122
  H      1.445983    2.612626    0.726615
  H      1.084526    2.232354   -0.981343
  H      2.247992    1.226956   -0.064262
  H     -2.607991    0.700694   -0.927177
  H     -2.367076    1.022708    0.818621
  H     -3.311973   -0.397348    0.294119

----------------------------
CARTESIAN COORDINATES (A.U.)
----------------------------
  NO LB      ZA    FRAG     MASS         X           Y           Z
   0 C     6.0000    0    12.011    2.484841   -3.061691    0.921313
   1 O     8.0000    0    15.999    1.567382   -1.789391   -1.310957
   2 C     6.0000    0    12.011   -0.299316    0.032319   -0.869468
   3 O     8.0000    0    15.999    0.439732    1.878917    0.902938
   4 C     6.0000    0    12.011    2.493891    3.413005    0.004380
   5 O     8.0000    0    15.999   -2.460633   -1.165069    0.084783
   6 C     6.0000    0    12.011   -4.645661    0.454197    0.109615
   7 H     1.0000    0     1.008    1.005980   -4.222695    1.784752
   8 H     1.0000    0     1.008    3.213851   -1.711319    2.308594
   9 H     1.0000    0     1.008    4.020835   -4.278407    0.278693
  10 H     1.0000    0     1.008   -0.676226    0.915757   -2.719547
  11 H     1.0000    0     1.008    2.732511    4.937148    1.373103
  12 H     1.0000    0     1.008    2.049458    4.218538   -1.854470
  13 H     1.0000    0     1.008    4.248089    2.318610   -0.121437
  14 H     1.0000    0     1.008   -4.928390    1.324119   -1.752111
  15 H     1.0000    0     1.008   -4.473125    1.932638    1.546969
  16 H     1.0000    0     1.008   -6.258723   -0.750879    0.555804

------------------------------------------------------------------------------
                   ___                                                        
                  /   \      - P O W E R E D   B Y -                         
                 /     \                                                     
                 |  |  |   _    _      __       _____    __    __             
                 |  |  |  | |  | |    /  \     |  _  \  |  |  /  |          
                  \  \/   | |  | |   /    \    | | | |  |  | /  /          
                 / \  \   | |__| |  /  /\  \   | |_| |  |  |/  /          
                |  |  |   |  __  | /  /__\  \  |    /   |      \           
                |  |  |   | |  | | |   __   |  |    \   |  |\   \          
                \     /   | |  | | |  |  |  |  | |\  \  |  | \   \       
                 \___/    |_|  |_| |__|  |__|  |_| \__\ |__|  \__/        
                                                                              
                      - O R C A' S   B I G   F R I E N D -                    
                                      &                                       
                       - I N T E G R A L  F E E D E R -                       
                                                                              
 v1 FN, 2020, v2 2021, v3 2022-2024                                           
------------------------------------------------------------------------------


----------------------
SHARK INTEGRAL PACKAGE
----------------------

Number of atoms                             ...     17
Number of basis functions                   ...    198
Number of shells                            ...     96
Maximum angular momentum                    ...      2
Integral batch strategy                     ... SHARK/LIBINT Hybrid
RI-J (if used) integral strategy            ... SPLIT-RIJ (Revised 2003 algorithm where possible)
Printlevel                                  ...      1
Contraction scheme used                     ... SEGMENTED contraction
Prescreening option                         ... SCHWARTZ
   Thresh                                   ... 3.000e-11
   Tcut                                     ... 1.000e-12
   Tpresel                                  ... 1.000e-12 
Coulomb Range Separation                    ... NOT USED
Exchange Range Separation                   ... NOT USED
Multipole approximations                    ... NOT USED
Finite Nucleus Model                        ... NOT USED
CABS basis                                  ... NOT available
Auxiliary Coulomb fitting basis             ... AVAILABLE
   # of basis functions in Aux-J            ...    453
   # of shells in Aux-J                     ...    155
   Maximum angular momentum in Aux-J        ...      4
Auxiliary J/K fitting basis                 ... NOT available
Auxiliary Correlation fitting basis         ... NOT available
Auxiliary 'external' fitting basis          ... NOT available

Checking pre-screening integrals            ... done (  0.0 sec) Dimension = 96
Check shell pair data                       ... done (  0.0 sec)
Shell pair information
Shell pair cut-off parameter TPreSel        ...   1.0e-12
Total number of shell pairs                 ...      4656
Shell pairs after pre-screening             ...      4302
Total number of primitive shell pairs       ...     16294
Primitive shell pairs kept                  ...     10866
          la=0 lb=0:   1390 shell pairs
          la=1 lb=0:   1569 shell pairs
          la=1 lb=1:    460 shell pairs
          la=2 lb=0:    526 shell pairs
          la=2 lb=1:    302 shell pairs
          la=2 lb=2:     55 shell pairs

Calculating one electron integrals          ... done (  0.0 sec)
Calculating RI/J V-Matrix + Cholesky decomp.... done (  0.1 sec)
Calculating Nuclear repulsion               ... done (  0.0 sec) ENN=    350.481449802104 Eh

Diagonalization of the overlap matrix:
Smallest eigenvalue                        ... 4.205e-04
Time for diagonalization                   ...    0.008 sec
Threshold for overlap eigenvalues          ... 1.000e-07
Number of eigenvalues below threshold      ... 0
Time for construction of square roots      ...    0.015 sec
Total time needed                          ...    0.036 sec

-------------------
DFT GRID GENERATION
-------------------

General Integration Accuracy     IntAcc      ... 4.388
Radial Grid Type                 RadialGrid  ... OptM3 with GC (2021)
Angular Grid (max. ang.)         AngularGrid ... 4 (Lebedev-302)
Angular grid pruning method      GridPruning ... 4 (adaptive)
Weight generation scheme         WeightScheme... mBecke (2022)
Basis function cutoff            BFCut       ... 1.0000e-11
Integration weight cutoff        WCut        ... 1.0000e-14
Partially contracted basis set               ... off
Rotationally invariant grid construction     ... off
Angular grids for H and He will be reduced by one unit
Diffuse basis detected: some atoms will have their outermost
                        angular grid increased by 1.

Total number of grid points                  ...    75494
Total number of batches                      ...     1189
Average number of points per batch           ...       63
Average number of grid points per atom       ...     4441
Initializing property integral containers    ... done (  0.0 sec)

SHARK setup successfully completed in   1.1 seconds

Maximum memory used throughout the entire STARTUP-calculation: 34.1 MB
Occupation numbers will be reassigned to an Aufbau configuration
             **** ENERGY FILE WAS UPDATED (xtb_opt.en.tmp) ****
Finished Guess after   0.3 sec
Maximum memory used throughout the entire GUESS-calculation: 13.6 MB
--------------------
CPCM SOLVATION MODEL
--------------------
CPCM parameters:
  Epsilon                                         ...      78.3550
  Refrac                                          ...       1.3328
  Rsolv                                           ...       1.3000
  Surface type                                    ... GAUSSIAN VDW
  Discretization scheme                           ... Constant charge density
    Threshold for H atoms                         ...       5.0000 (charges/Ang^2)
    Threshold for non-H atoms                     ...       5.0000 (charges/Ang^2)
  Epsilon function type                           ...         CPCM
Solvent:                                          ... WATER
SMD-CDS solvent descriptors:
  Soln                                            ...       1.3328
  Soln25                                          ...       1.3323
  Sola                                            ...       0.0000
  Solb                                            ...       0.0000
  Solg                                            ...       0.0000
  Solc                                            ...       0.0000
  Solh                                            ...       0.0000
Radii:
  Scheme                                          ... Element-dependent radii
  Radius for C  used is    3.4960 Bohr (=   1.8500 Ang.)
  Radius for O  used is    2.8724 Bohr (=   1.5200 Ang.)
  Radius for H  used is    2.2677 Bohr (=   1.2000 Ang.)
Calculating surface                               ...        done! (  0.0s)
Cavity surface points                             ...         1288
Cavity Volume                                     ...     752.2094
Cavity Surface-area                               ...     515.9718
Calculating surface distance matrix               ...        done! (  0.0s)
Performing Cholesky decomposition & store         ...        done! (  0.1s)
Overall time for CPCM initialization              ...                 0.1s

----------------------------------------D-I-I-S--------------------------------------------
Iteration    Energy (Eh)           Delta-E    RMSDP     MaxDP     DIISErr   Damp  Time(sec)
-------------------------------------------------------------------------------------------
               ***  Starting incremental Fock matrix formation  ***
                              *** Initializing SOSCF ***
---------------------------------------S-O-S-C-F--------------------------------------
Iteration    Energy (Eh)           Delta-E    RMSDP     MaxDP     MaxGrad    Time(sec)
--------------------------------------------------------------------------------------
    1    -384.0262483042493500     0.00e+00  1.33e-05  5.26e-04  3.31e-05     2.6
               *** Restarting incremental Fock matrix formation ***
    2    -384.0262497954684591    -1.49e-06  6.98e-06  2.17e-04  4.18e-05     2.5
    3    -384.0262497520100737     4.35e-08  3.66e-06  9.39e-05  5.53e-05     2.0
                 **** Energy Check signals convergence ****

               *****************************************************
               *                     SUCCESS                       *
               *           SCF CONVERGED AFTER   3 CYCLES          *
               *****************************************************


SMD CDS free energy correction energy :                 5.13536     Kcal/mol
Total Energy after SMD CDS correction =              -384.018066030 Eh
             **** ENERGY FILE WAS UPDATED (xtb_opt.en.tmp) ****

----------------
TOTAL SCF ENERGY
----------------

Total Energy       :       -384.01806603037727 Eh          -10449.66283 eV

Components:
Nuclear Repulsion  :        350.48144980210412 Eh            9537.08511 eV
Electronic Energy  :       -734.48937461261448 Eh          -19986.47198 eV
One Electron Energy:      -1219.56180209865215 Eh          -33185.96378 eV
Two Electron Energy:        485.07242748603772 Eh           13199.49180 eV
CPCM Dielectric    :         -0.01832494149985 Eh              -0.49865 eV
SMD CDS (Gcds)     :          0.00818372163282 Eh               0.22269 eV

Virial components:
Potential Energy   :       -766.28551427625871 Eh          -20851.68892 eV
Kinetic Energy     :        382.26744824588144 Eh           10402.02610 eV
Virial Ratio       :          2.00457956279701

DFT components:
N(Alpha)           :       28.999983197546 electrons
N(Beta)            :       28.999983197546 electrons
N(Total)           :       57.999966395092 electrons
E(X)               :      -49.182822827022 Eh       
E(C)               :       -1.866801850948 Eh       
E(XC)              :      -51.049624677970 Eh       

CPCM Solvation Model Properties:
Surface-charge          :         -0.04168228610565
Corrected charge        :          0.00000000000000
Outlying charge corr.   :          0.00014045173700 Eh               0.00382 eV
Free-energy (cav+disp)  :          0.00818372163282 Eh               0.22269 eV

---------------
SCF CONVERGENCE
---------------

  Last Energy change         ...   -4.3458e-08  Tolerance :   1.0000e-07
  Last MAX-Density change    ...    9.3910e-05  Tolerance :   1.0000e-07
  Last RMS-Density change    ...    3.6606e-06  Tolerance :   5.0000e-09
  Last DIIS Error            ...    4.0883e-04  Tolerance :   1.0000e-07
  Last Orbital Gradient      ...    5.5348e-05  Tolerance :   1.0000e-04
  Last Orbital Rotation      ...    3.6807e-05  Tolerance :   1.0000e-04


----------------
ORBITAL ENERGIES
----------------

  NO   OCC          E(Eh)            E(eV) 
   0   2.0000     -18.972882      -516.2784 
   1   2.0000     -18.972552      -516.2694 
   2   2.0000     -18.970411      -516.2111 
   3   2.0000     -10.179371      -276.9948 
   4   2.0000     -10.071597      -274.0621 
   5   2.0000     -10.070685      -274.0373 
   6   2.0000     -10.069502      -274.0051 
   7   2.0000      -1.068128       -29.0652 
   8   2.0000      -0.983621       -26.7657 
   9   2.0000      -0.980370       -26.6772 
  10   2.0000      -0.703077       -19.1317 
  11   2.0000      -0.658701       -17.9242 
  12   2.0000      -0.647394       -17.6165 
  13   2.0000      -0.565279       -15.3820 
  14   2.0000      -0.491388       -13.3713 
  15   2.0000      -0.486793       -13.2463 
  16   2.0000      -0.483187       -13.1482 
  17   2.0000      -0.419197       -11.4069 
  18   2.0000      -0.411466       -11.1965 
  19   2.0000      -0.393241       -10.7006 
  20   2.0000      -0.389528       -10.5996 
  21   2.0000      -0.383773       -10.4430 
  22   2.0000      -0.362741        -9.8707 
  23   2.0000      -0.333600        -9.0777 
  24   2.0000      -0.312832        -8.5126 
  25   2.0000      -0.295836        -8.0501 
  26   2.0000      -0.261007        -7.1024 
  27   2.0000      -0.252501        -6.8709 
  28   2.0000      -0.244417        -6.6509 
  29   0.0000       0.066092         1.7984 
  30   0.0000       0.079378         2.1600 
  31   0.0000       0.089457         2.4343 
  32   0.0000       0.109255         2.9730 
  33   0.0000       0.117663         3.2018 
  34   0.0000       0.129786         3.5316 
  35   0.0000       0.143982         3.9179 
  36   0.0000       0.157077         4.2743 
  37   0.0000       0.167384         4.5547 
  38   0.0000       0.177072         4.8184 
  39   0.0000       0.182881         4.9764 
*Only the first 10 virtual orbitals were printed.
Total SCF time: 0 days 0 hours 0 min 7 sec 
Finished LeanSCF after   7.9 sec

Maximum memory used throughout the entire LEANSCF-calculation: 24.4 MB


-------------------------------------------------------------------------------
                          DFT DISPERSION CORRECTION                            
                                                                               
                                DFTD4 V3.4.0                                   
-------------------------------------------------------------------------------
-------------------------   ----------------
Dispersion correction           -0.003971019
-------------------------   ----------------

------------------   -----------------
gCP correction             0.017443798
------------------   -----------------

-------------------------   --------------------
FINAL SINGLE POINT ENERGY      -384.004593251185
-------------------------   --------------------

------------------------------------------------------------------------------
                         ORCA SCF GRADIENT CALCULATION
------------------------------------------------------------------------------

Nuc. rep. gradient        (SHARK) ... done (  0.0 sec)
HCore & Overlap gradient  (SHARK) ... done (  0.2 sec)
Split-RIJ-J gradient      (SHARK) ... done (  1.2 sec)
XC gradient                       ... done (  4.6 sec)
CPCM gradient                     ... done (  0.7 sec)
SMD gradient                      ... done (  0.0 sec)
Dispersion correction             ... done (  0.0 sec)

-------------------
DISPERSION GRADIENT
-------------------

   1   C   :    0.000029710   -0.000051826    0.000012985
   2   O   :    0.000029397   -0.000038512   -0.000016252
   3   C   :    0.000000010    0.000018585    0.000012201
   4   O   :    0.000015431    0.000032467   -0.000000429
   5   C   :    0.000031841    0.000043168   -0.000017427
   6   O   :   -0.000052676   -0.000014184   -0.000007222
   7   C   :   -0.000057029    0.000008463   -0.000010388
   8   H   :    0.000017201   -0.000033494    0.000008142
   9   H   :    0.000020148   -0.000026583    0.000010571
[...]
E(X)               :      -49.183782674488 Eh       
E(C)               :       -1.866833422903 Eh       
E(XC)              :      -51.050616097391 Eh       

CPCM Solvation Model Properties:
Surface-charge          :         -0.04166080899405
Corrected charge        :         -0.00000000000000
Outlying charge corr.   :          0.00014031203102 Eh               0.00382 eV
Free-energy (cav+disp)  :          0.00818548350246 Eh               0.22274 eV

---------------
SCF CONVERGENCE
---------------

  Last Energy change         ...    7.5661e-09  Tolerance :   1.0000e-07
  Last MAX-Density change    ...    4.4164e-05  Tolerance :   1.0000e-07
  Last RMS-Density change    ...    1.9689e-06  Tolerance :   5.0000e-09
  Last DIIS Error            ...    5.4124e-05  Tolerance :   1.0000e-07
  Last Orbital Gradient      ...    1.2150e-05  Tolerance :   1.0000e-04
  Last Orbital Rotation      ...    1.5631e-05  Tolerance :   1.0000e-04


----------------
ORBITAL ENERGIES
----------------

  NO   OCC          E(Eh)            E(eV) 
   0   2.0000     -18.972807      -516.2763 
   1   2.0000     -18.972738      -516.2744 
   2   2.0000     -18.970479      -516.2130 
   3   2.0000     -10.179440      -276.9967 
   4   2.0000     -10.071378      -274.0561 
   5   2.0000     -10.070565      -274.0340 
   6   2.0000     -10.068946      -273.9900 
   7   2.0000      -1.068129       -29.0653 
   8   2.0000      -0.983585       -26.7647 
   9   2.0000      -0.980363       -26.6770 
  10   2.0000      -0.703042       -19.1307 
  11   2.0000      -0.658717       -17.9246 
  12   2.0000      -0.647416       -17.6171 
  13   2.0000      -0.565286       -15.3822 
  14   2.0000      -0.491380       -13.3711 
  15   2.0000      -0.486781       -13.2460 
  16   2.0000      -0.483171       -13.1477 
  17   2.0000      -0.419201       -11.4071 
  18   2.0000      -0.411452       -11.1962 
  19   2.0000      -0.393225       -10.7002 
  20   2.0000      -0.389527       -10.5996 
  21   2.0000      -0.383775       -10.4431 
  22   2.0000      -0.362733        -9.8705 
  23   2.0000      -0.333616        -9.0782 
  24   2.0000      -0.312820        -8.5123 
  25   2.0000      -0.295883        -8.0514 
  26   2.0000      -0.261028        -7.1029 
  27   2.0000      -0.252522        -6.8715 
  28   2.0000      -0.244413        -6.6508 
  29   0.0000       0.066088         1.7984 
  30   0.0000       0.079413         2.1609 
  31   0.0000       0.089478         2.4348 
  32   0.0000       0.109294         2.9740 
  33   0.0000       0.117714         3.2032 
  34   0.0000       0.129829         3.5328 
  35   0.0000       0.144006         3.9186 
  36   0.0000       0.157111         4.2752 
  37   0.0000       0.167504         4.5580 
  38   0.0000       0.177146         4.8204 
  39   0.0000       0.183053         4.9811 
*Only the first 10 virtual orbitals were printed.
Total SCF time: 0 days 0 hours 0 min 5 sec 
Finished LeanSCF after   5.7 sec

Maximum memory used throughout the entire LEANSCF-calculation: 24.4 MB


-------------------------------------------------------------------------------
                          DFT DISPERSION CORRECTION                            
                                                                               
                                DFTD4 V3.4.0                                   
-------------------------------------------------------------------------------
-------------------------   ----------------
Dispersion correction           -0.003971089
-------------------------   ----------------

------------------   -----------------
gCP correction             0.017449614
------------------   -----------------

-------------------------   --------------------
FINAL SINGLE POINT ENERGY      -384.004594745275
-------------------------   --------------------

------------------------------------------------------------------------------
                         ORCA SCF GRADIENT CALCULATION
------------------------------------------------------------------------------

Nuc. rep. gradient        (SHARK) ... done (  0.0 sec)
HCore & Overlap gradient  (SHARK) ... done (  0.2 sec)
Split-RIJ-J gradient      (SHARK) ... done (  1.2 sec)
XC gradient                       ... done (  4.4 sec)
CPCM gradient                     ... done (  0.7 sec)
SMD gradient                      ... done (  0.0 sec)
Dispersion correction             ... done (  0.0 sec)

-------------------
DISPERSION GRADIENT
-------------------

   1   C   :    0.000029646   -0.000051764    0.000012915
   2   O   :    0.000029398   -0.000038507   -0.000016245
   3   C   :    0.000000094    0.000018521    0.000012188
   4   O   :    0.000015452    0.000032474   -0.000000437
   5   C   :    0.000031833    0.000043191   -0.000017428
   6   O   :   -0.000052678   -0.000014207   -0.000007207
   7   C   :   -0.000057040    0.000008439   -0.000010376
   8   H   :    0.000017145   -0.000033528    0.000008177
   9   H   :    0.000020174   -0.000026545    0.000010619
  10   H   :    0.000019346   -0.000031675    0.000003455
  11   H   :   -0.000003163   -0.000004480   -0.000005838
  12   H   :    0.000019261    0.000035174    0.000007349
  13   H   :    0.000021459    0.000034410   -0.000005630
  14   H   :    0.000019558    0.000028020    0.000000376
  15   H   :   -0.000038042   -0.000000272   -0.000003261
  16   H   :   -0.000039579    0.000002233    0.000007884
  17   H   :   -0.000032864   -0.000001484    0.000003460

Difference to translation invariance:
           :    0.0000000000   -0.0000000000    0.0000000000

Difference to rotation invariance:
           :   -0.0000000000   -0.0000000000   -0.0000000000

Norm of the Dispersion gradient    ...    0.0001749854
RMS gradient                       ...    0.0000245029
MAX gradient                       ...    0.0000570402
gCP correction                   ... done

------------------
CARTESIAN GRADIENT
------------------

   1   C   :    0.000019911   -0.000015302    0.000065053
   2   O   :   -0.000040501   -0.000006925    0.000024325
   3   C   :    0.000077373    0.000002489    0.000017169
   4   O   :    0.000022303    0.000002864   -0.000003947
   5   C   :    0.000012135    0.000016811   -0.000000364
   6   O   :   -0.000040789    0.000003693    0.000009006
   7   C   :   -0.000067425    0.000033816    0.000003907
   8   H   :    0.000161065    0.000071020   -0.000083367
   9   H   :   -0.000078657   -0.000121853   -0.000116906
  10   H   :   -0.000087156    0.000106289    0.000056424
  11   H   :   -0.000020830   -0.000000605   -0.000012731
  12   H   :   -0.000023240   -0.000019049   -0.000050878
  13   H   :    0.000024074   -0.000039963    0.000011893
  14   H   :   -0.000020835    0.000006531    0.000024776
  15   H   :    0.000001582   -0.000050161    0.000087493
  16   H   :    0.000006522   -0.000041581   -0.000045992
  17   H   :    0.000054468    0.000051925    0.000014139

Difference to translation invariance:
           :   -0.0000000000   -0.0000000000    0.0000000000

Difference to rotation invariance:
           :   -0.0000636640    0.0005115597    0.0001002728

Norm of the Cartesian gradient     ...    0.0003794466
RMS gradient                       ...    0.0000531331
MAX gradient                       ...    0.0001610654

-------
TIMINGS
-------

Total SCF gradient time     ....        7.074 sec

Densities                   ....       0.000 sec  (  0.0%)
One electron gradient       ....       0.205 sec  (  2.9%)
RI-J Coulomb gradient       ....       1.181 sec  ( 16.7%)
XC gradient                 ....       4.359 sec  ( 61.6%)
CPCM gradient               ....       0.682 sec  (  9.6%)
   A-Matrix (El+Nuc)        ....       0.055 sec  (  0.8%)
   Potential                ....       0.627 sec  (  8.9%)
SMD gradient                ....       0.015 sec  (  0.2%)

Maximum memory used throughout the entire SCFGRAD-calculation: 33.7 MB

------------------------------------------------------------------------------
                              ORCA PROPERTY CALCULATIONS
------------------------------------------------------------------------------

GBWName                                 ... xtb_opt.gbw
Number of atoms                         ...     17
Number of basis functions               ...    198
Max core memory                         ...   1024 MB

Electric properties:
Dipole moment                           ... YES
Quadrupole moment                       ...  NO
Static polarizability (Dipole/Dipole)   ...  NO
Static polarizability (Dipole/Quad.)    ...  NO
Static polarizability (Quad./Quad.)     ...  NO
Static polarizability (Velocity)        ...  NO

Atomic electric properties:
Dipole moment                           ...  NO
Quadrupole moment                       ...  NO
Static polarizability                   ...  NO

Choice of electric origin               ... Center of mass
Position of electric origin             ...    -0.055193    -0.022821    -0.016506

General magnetic properties:
Magnetizability                         ...  NO

EPR properties:
g-Tensor (aka g-matrix)                 ...  NO
Zero-Field splitting spin-orbit         ...  NO
Zero-field splitting spin-spin          ...  NO
Hyperfine couplings                     ...  NO (   0 nuclei)
Quadrupole couplings                    ...  NO (   0 nuclei)
Contact density                         ...  NO (   0 nuclei)

NMR properties:
Chemical shifts                         ...  NO (   0 nuclei)
Spin-rotation constants                 ...  NO (   0 nuclei)
Spin-spin couplings                     ...  NO (   0 nuclei,    0 pairs)

Choice of magnetic origin               ... GIAO
Position of magnetic origin             ...     0.000000     0.000000     0.000000

Properties with geometric perturbations:
SCF Hessian                             ...  NO
IR spectrum                             ...  NO
VCD spectrum                            ...  NO
X-ray spectroscopy properties:
SCF XES/XAS/RIXS spectra                ...  NO


-------------
DIPOLE MOMENT
-------------

Method             : SCF
Type of density    : Electron Density
Multiplicity       :   1
Irrep              :   0
Energy             :  -384.0180732700384283 Eh
Relativity type    : 
Basis              : AO
                                X                 Y                 Z
Electronic contribution:     -0.625160484      -1.602923525      -0.857383332
Nuclear contribution   :      0.733865355       2.430499505       0.774433972
                        -----------------------------------------
Total Dipole Moment    :      0.108704871       0.827575980      -0.082949360
                        -----------------------------------------
Magnitude (a.u.)       :      0.838796368
Magnitude (Debye)      :      2.132050932



--------------------
Rotational spectrum 
--------------------
 
Rotational constants in cm-1:             0.106375             0.077450             0.051479 
Rotational constants in MHz :          3189.046160          2321.893861          1543.302466 

Dipole components along the rotational axes: 
x,y,z [a.u.] :     0.082926     0.827190    -0.111620 
x,y,z [Debye]:     0.210782     2.102550    -0.283715 

 

Dipole moment calculation done in   0.0 sec 

Maximum memory used throughout the entire PROP-calculation: 12.1 MB

--------------------------------
SUGGESTED CITATIONS FOR THIS RUN
--------------------------------

Below you find a list of papers that are relevant to this ORCA run
We neither can nor want to force you to cite these papers, but we appreciate if you do
You receive ORCA, which is the product of decades of hard work by many enthusiastic individuals, for free
The only thing we kindly ask in return is that you cite our papers,
We deeply appreciate it, if you show your appreciation for ORCA by not just citing the generic ORCA reference.

Please note that relegating all ORCA citations to the supporting information does *not* help us.
SI sections are not indexed - citations you put there will not count into any citation statistics
But we need these citations in order to attract the funding resources that allow us to do what we are doing

Therefore, if you are a happy ORCA user, please consider citing a few of the papers listed below in the main body of your paper

In addition to the list printed below, the program has created the file xtb_opt.bibtex that contains the list in bibtex format
You can import this file easily into all common literature databanks and citation aid programs


List of essential papers. We consider these as the minimum necessary citations

  1. Neese,F.
     Software update: the ORCA program system, version 5.0
     WIRES Comput. Molec. Sci., 2022 12(1)e1606
     doi.org/10.1002/wcms.1606
  2. Grimme,S.; Hansen,A.; Ehlert,S.; Mewes,J.
     r2SCAN-3c: A 'Swiss army knife' composite electronic-structure method
     J. Chem. Phys., 2021 154 064103
     doi.org/10.1063/5.0040021

List of papers to cite with high priority. The work reported in these papers was absolutely
necessary for this run to complete.
Our perspective: the developers of density functionals and basis sets usually get cited in chemistry papers
Good! But without the algorithms to do something with them, the functionals or basis sets would not do anything.
Hence, in our opinion, the algorithm design and method developments papers are equally worthy of getting cited

  1. Neese,F.
     An improvement of the resolution of the identity approximation for the formation of the Coulomb matrix
     J. Comp. Chem., 2003 24(14)1740-1747
     doi.org/10.1002/jcc.10318
  2. Garcia-Rates,M.; Neese,F.
     Effect of the Solute Cavity on the Solvation Energy and its Derivatives within the Framework of the Gaussian Charge Scheme
     J. Comput. Chem., 2020 41 922-939
     doi.org/10.1002/jcc.26139
  3. Neese,F.
     The SHARK Integral Generation and Digestion System
     J. Comp. Chem., 2022  1-16
     doi.org/10.1002/jcc.26942
  4. Lehtola,S.; Steigemann,C.; Oliveira,M.; Marques,M.
     Recent developments in Libxc - A comprehensive library of functionals for density functional theory
     Software X, 2018 7 
     doi.org/10.1016/j.softx.2017.11.002
  5. Caldeweyher,E.; Bannwarth,C.; Grimme,S.
     Extension of the D3 dispersion coefficient model
     J. Chem. Phys., 2017 147 034112-XXXX
     doi.org/10.1063/1.4993215
  6. Caldeweyher,E.; Ehlert,S.; Hansen,A.; Neugebauer,H.; Spicher,S.; Bannwarth,C.; Grimme,S.
     A generally applicable atomic-charge dependent London dispersion correction
     J. Chem. Phys., 2019 150 154122-XXXX
     doi.org/10.1063/1.5090222
  7. Caldeweyher,E.; Mewes,J.; Ehlert,S.; Grimme,S.
     Extension and evaluation of the D4 London-dispersion model for periodic systems
     Phys. Chem. Chem. Phys., 2020 22(16)8499-8512
     doi.org/10.1039/D0CP00502A

List of suggested additional citations. These are papers that are important in the 'surrounding' of 
of this run, or papers that preceded the highly important papers. If you like your results we are grateful for a citation.

  1. Neese,F.
     The ORCA program system
     WIRES Comput. Molec. Sci., 2012 2(1)73-78
     doi.org/10.1002/wcms.81
  2. Neese,F.
     Software update: the ORCA program system, version 4.0
     WIRES Comput. Molec. Sci., 2018 8(1)1-6
     doi.org/10.1002/wcms.1327
  3. Neese,F.; Wennmohs,F.; Becker,U.; Riplinger,C.
     The ORCA quantum chemistry program package
     J. Chem. Phys., 2020 152 Art. No. L224108
     doi.org/10.1063/5.0004608

List of optional additional citations

  1. Neese,F.
     Approximate second-order SCF convergence for spin unrestricted wavefunctions
     Chem. Phys. Lett., 2000 325(1-3)93-98
     doi.org/10.1016/s0009-2614(00)00662-x

Timings for individual modules:

Sum of individual times          ...       14.477 sec (=   0.241 min)
Startup calculation              ...        1.135 sec (=   0.019 min)   7.8 %
SCF iterations                   ...        6.045 sec (=   0.101 min)  41.8 %
Property calculations            ...        0.117 sec (=   0.002 min)   0.8 %
SCF Gradient evaluation          ...        7.181 sec (=   0.120 min)  49.6 %
                             ****ORCA TERMINATED NORMALLY****
TOTAL RUN TIME: 0 days 0 hours 0 minutes 15 seconds 342 msec
  ------------------------------------------------------------------------
          * successful ORCA run, taking over control again...

         :::::::::::::::::::::::::::::::::::::::::::::::::::::
         ::                  ORCA SUMMARY                   ::
         :::::::::::::::::::::::::::::::::::::::::::::::::::::
         :: total energy            -384.004594745275 Eh    ::
         :: gradient norm              0.000379446562 Eh/a0 ::
         :: HOMO-LUMO gap              0.000000000000 eV    ::
         :::::::::::::::::::::::::::::::::::::::::::::::::::::

           -------------------------------------------------
          |                Property Printout                |
           -------------------------------------------------
           -------------------------------------------------
          |                Geometry Summary                 |
           -------------------------------------------------

      molecular mass/u    :      106.1205659
   center of mass at/Å    :       -0.0292082      -0.0120811      -0.0087357
  moments of inertia/u·Å² :        0.1584711E+03   0.2176541E+03   0.3274603E+03
rotational constants/cm⁻¹ :        0.1063767E+00   0.7745148E-01   0.5147993E-01

 * 16 selected distances

     #   Z          #   Z                                           value/Å
     1   6 C        2   8 O                                       1.4437817 (max)
     2   8 O        3   6 C                                       1.3999906
     3   6 C        4   8 O                                       1.4098344
     4   8 O        5   6 C                                       1.4377863
     3   6 C        6   8 O                                       1.4014695
     6   8 O        7   6 C                                       1.4393292
     1   6 C        8   1 H                                       1.0942371
     1   6 C        9   1 H                                       1.0941538
     1   6 C       10   1 H                                       1.0908317 (min)
     3   6 C       11   1 H                                       1.1031770
     5   6 C       12   1 H                                       1.0911945
     5   6 C       13   1 H                                       1.0974150
     5   6 C       14   1 H                                       1.0960081
     7   6 C       15   1 H                                       1.0973613
     7   6 C       16   1 H                                       1.0947326
     7   6 C       17   1 H                                       1.0911136

 * 2 distinct bonds (by element types)

   Z      Z             #   av. dist./Å        max./Å        min./Å
   1 H    6 C          10     1.0950225     1.1031770     1.0908317
   6 C    8 O           6     1.4220320     1.4437817     1.3999906


optimized geometry written to: xtbopt.coord


           -------------------------------------------------
          | TOTAL ENERGY             -384.004594745275 Eh   |
          | GRADIENT NORM               0.000379446562 Eh/α |
           -------------------------------------------------

------------------------------------------------------------------------
 * finished run on 2025/04/11 at 16:05:57.149     
------------------------------------------------------------------------
 total:
 * wall-time:     0 d,  0 h,  1 min, 10.941 sec
 *  cpu-time:     0 d,  0 h,  0 min,  2.209 sec
 * ratio c/w:     0.031 speedup
 SCF:
 * wall-time:     0 d,  0 h,  0 min, 19.930 sec
 *  cpu-time:     0 d,  0 h,  0 min,  0.652 sec
 * ratio c/w:     0.033 speedup
 ANC optimizer:
 * wall-time:     0 d,  0 h,  0 min, 50.968 sec
 *  cpu-time:     0 d,  0 h,  0 min,  1.458 sec
 * ratio c/w:     0.029 speedup

