
                                 *****************
                                 * O   R   C   A *
                                 *****************

                                            #,                                       
                                            ###                                      
                                            ####                                     
                                            #####                                    
                                            ######                                   
                                           ########,                                 
                                     ,,################,,,,,                         
                               ,,#################################,,                 
                          ,,##########################################,,             
                       ,#########################################, ''#####,          
                    ,#############################################,,   '####,        
                  ,##################################################,,,,####,       
                ,###########''''           ''''###############################       
              ,#####''   ,,,,##########,,,,          '''####'''          '####       
            ,##' ,,,,###########################,,,                        '##       
           ' ,,###''''                  '''############,,,                           
         ,,##''                                '''############,,,,        ,,,,,,###''
      ,#''                                            '''#######################'''  
     '                                                          ''''####''''         
             ,#######,   #######,   ,#######,      ##                                
            ,#'     '#,  ##    ##  ,#'     '#,    #''#        ,####,   ,####,        
            ##       ##  ##   ,#'  ##            #'  '#       #'       #'  '#        
            ##       ##  #######   ##           ,######,      #####,   #    #        
            '#,     ,#'  ##    ##  '#,     ,#' ,#      #,     #,   #   #,  ,#        
             '#######'   ##     ##  '#######'  #'      '#     '####' # '####'        



                #########################################################
                #                        -***-                          #
                #          Department of theory and spectroscopy        #
                #                                                       #
                #                      Frank Neese                      #
                #                                                       #
                #     Directorship, Architecture, Infrastructure        #
                #                    SHARK, DRIVERS                     #
                #        Core code/Algorithms in most modules           #
                #                                                       #
                #        Max Planck Institute fuer Kohlenforschung      #
                #                Kaiser Wilhelm Platz 1                 #
                #                 D-45470 Muelheim/Ruhr                 #
                #                      Germany                          #
                #                                                       #
                #                  All rights reserved                  #
                #                        -***-                          #
                #########################################################


                         Program Version 6.0.0  -   RELEASE  -


 With contributions from (in alphabetic order):
   Daniel Aravena         : Magnetic Suceptibility
   Michael Atanasov       : Ab Initio Ligand Field Theory (pilot matlab implementation)
   Alexander A. Auer      : GIAO ZORA, VPT2 properties, NMR spectrum
   Ute Becker             : All parallelization in ORCA, NUMFREQ, NUMCALC
   Giovanni Bistoni       : ED, misc. LED, open-shell LED, HFLD
   Martin Brehm           : Molecular dynamics
   Dmytro Bykov           : pre 5.0 version of the SCF Hessian
   Marcos Casanova-Páez   : Triplet and SCS-CIS(D). UHF-(DLPNO)-IP/EA/STEOM-CCSD. UHF-CVS-IP/STEOM-CCSD
   Vijay G. Chilkuri      : MRCI spin determinant printing, contributions to CSF-ICE
   Pauline Colinet        : FMM embedding
   Dipayan Datta          : RHF DLPNO-CCSD density
   Achintya Kumar Dutta   : EOM-CC, STEOM-CC
   Nicolas Foglia         : Exact transition moments, OPA infrastructure, MCD improvements
   Dmitry Ganyushin       : Spin-Orbit,Spin-Spin,Magnetic field MRCI
   Miquel Garcia          : C-PCM and meta-GGA Hessian, CCSD/C-PCM, Gaussian charge scheme
   Tiago L. C. Gouveia    : GS-ROHF, GS-ROCIS
   Yang Guo               : DLPNO-NEVPT2, F12-NEVPT2, CIM, IAO-localization
   Andreas Hansen         : Spin unrestricted coupled pair/coupled cluster methods
   Ingolf Harden          : AUTO-CI MPn and infrastructure 
   Benjamin Helmich-Paris : MC-RPA, TRAH-(SCF,CASSCF), AVAS, COSX integrals, SCF dyn. polar.
   Lee Huntington         : MR-EOM, pCC
   Robert Izsak           : Overlap fitted RIJCOSX, COSX-SCS-MP3, EOM
   Riya Kayal             : Wick's Theorem for AUTO-CI, AUTO-CI UHF-CCSDT
   Emily Kempfer          : AUTO-CI, RHF CISDT and CCSDT
   Christian Kollmar      : KDIIS, OOCD, Brueckner-CCSD(T), CCSD density, CASPT2, CASPT2-K, improved NEVPT2
   Axel Koslowski         : Symmetry handling
   Simone Kossmann        : Meta GGA functionals, TD-DFT gradient, OOMP2, (MP2 Hessian; deprecated post 5.0)
   Lucas Lang             : DCDCAS
   Marvin Lechner         : AUTO-CI (C++ implementation), FIC-MRCC
   Spencer Leger          : CASSCF response
   Dagmar Lenk            : GEPOL surface, SMD, ORCA-2-JSON
   Dimitrios Liakos       : Extrapolation schemes; Compound Job, initial MDCI parallelization
   Dimitrios Manganas     : Further ROCIS development; embedding schemes. LFT, Crystal Embedding
   Dimitrios Pantazis     : SARC Basis sets
   Anastasios Papadopoulos: AUTO-CI, single reference methods and gradients
   Taras Petrenko         : pre 6.0 DFT Hessian and TD-DFT gradient, (ASA, deprecated), ECA, 1-Electron XAS/XES, NRVS
   Peter Pinski           : DLPNO-MP2, DLPNO-MP2 Gradient
   Christoph Reimann      : Effective Core Potentials
   Marius Retegan         : Local ZFS, SOC
   Christoph Riplinger    : Optimizer, TS searches, QM/MM, DLPNO-CCSD(T), (RO)-DLPNO pert. Triples
   Michael Roemelt        : Original ROCIS implementation
   Masaaki Saitow         : Open-shell DLPNO-CCSD energy and density
   Barbara Sandhoefer     : DKH picture change effects
   Kantharuban Sivalingam : CASSCF convergence/infrastructure, NEVPT2 and variants, FIC-MRCI
   Bernardo de Souza      : ESD, SOC TD-DFT
   Georgi Stoychev        : AutoAux, RI-MP2 NMR, DLPNO-MP2 response, X2C
   Van Anh Tran           : RI-MP2 g-tensors
   Willem Van den Heuvel  : Paramagnetic NMR
   Zikuan Wang            : NOTCH, Electric field optimization 
   Frank Wennmohs         : Technical directorship and infrastructure
   Hang Xu                : AUTO-CI-Response properties 


 We gratefully acknowledge several colleagues who have allowed us to
 interface, adapt or use parts of their codes:
   Stefan Grimme, W. Hujo, H. Kruse, P. Pracht,  : VdW corrections, initial TS optimization,
                  C. Bannwarth, S. Ehlert,         DFT functionals, gCP, sTDA/sTD-DF
                  L. Wittmann, M. Mueller
   Ed Valeev, F. Pavosevic, A. Kumar             : LibInt (2-el integral package), F12 methods
   Garnet Chan, S. Sharma, J. Yang, R. Olivares  : DMRG
   Ulf Ekstrom                                   : XCFun DFT Library
   Mihaly Kallay                                 : mrcc  (arbitrary order and MRCC methods)
   Frank Weinhold                                : gennbo (NPA and NBO analysis)
   Simon Mueller                                 : openCOSMO-RS
   Christopher J. Cramer and Donald G. Truhlar   : smd solvation model
   Lars Goerigk                                  : TD-DFT with DH, B97 family of functionals
   V. Asgeirsson, H. Jonsson                     : NEB implementation
   FAccTs GmbH                                   : IRC, NEB, NEB-TS, DLPNO-Multilevel, CI-OPT
                                                   MM, QMMM, 2- and 3-layer-ONIOM, Crystal-QMMM,
                                                   LR-CPCM, SF, NACMEs, symmetry and pop. for TD-DFT,
                                                   nearIR, NL-DFT gradient (VV10), updates on ESD,
                                                   ML-optimized integration grids, MBIS, APM,
                                                   GOAT, DOCKER, SOLVATOR, interface openCOSMO-RS
   S Lehtola, MJT Oliveira, MAL Marques          : LibXC Library
   Liviu Ungur et al                             : ANISO software


 Your calculation uses the libint2 library for the computation of 2-el integrals
 For citations please refer to: http://libint.valeyev.net

 Your ORCA version has been built with support for libXC version: 6.2.2
 For citations please refer to: https://libxc.gitlab.io

 This ORCA versions uses:
   CBLAS   interface :  Fast vector & matrix operations
   LAPACKE interface :  Fast linear algebra routines
   SCALAPACK package :  Parallel linear algebra routines
   Shared memory     :  Shared parallel matrices
   BLAS/LAPACK       :  OpenBLAS 0.3.27  USE64BITINT DYNAMIC_ARCH NO_AFFINITY SkylakeX SINGLE_THREADED
        Core in use  :  SkylakeX
   Copyright (c) 2011-2014, The OpenBLAS Project


Your calculation utilizes the geometrical counterpoise correction gCP
Please cite in your paper:
H.Kruse, S. Grimme J.Chem.Phys., 136, (2012), 154101 
   

Your calculation utilizes the atom-pairwise dispersion correction
based on EEQ partial charges (D4)


================================================================================

----- Orbital basis set information -----
Your calculation utilizes the basis: def2-SV(P)
   F. Weigend and R. Ahlrichs, Phys. Chem. Chem. Phys. 7, 3297 (2005).

----- AuxJ basis set information -----
Your calculation utilizes the auxiliary basis: def2/J
   F. Weigend, Phys. Chem. Chem. Phys. 8, 1057 (2006).

================================================================================
                                        WARNINGS
                       Please study these warnings very carefully!
================================================================================


================================================================================
                                       INPUT FILE
================================================================================
NAME = sp.inp
|  1> ! pbe def2-sv(p) def2/J RI DEFGRID1 loosescf d4 GCP(DFT/SV(P)) printgap
|  2> %output
|  3>     printlevel normal
|  4> end
|  5> * xyz 0 1
|  6> C -3.5472402188 0.1307637912 1.8907208799
|  7> C -3.0509896536 0.5492861475 0.5056445029
|  8> H -3.1862285499 1.6287297683 0.3856053026
|  9> C -1.5836278291 0.2112954075 0.3353773883
| 10> C -1.1902529851 -1.1365182734 0.2252415498
| 11> C 0.1277459692 -1.471116184 0.0955061897
| 12> C 1.1292962084 -0.4777546189 0.0733072772
| 13> C 2.4951055753 -0.8038628104 -0.0572486762
| 14> C 3.4459045004 0.1860960568 -0.0738144376
| 15> C 3.054139957 1.5411042907 0.0405890865
| 16> C 1.7404281679 1.8758629834 0.166461937
| 17> C 0.7383756508 0.8802943844 0.1865166353
| 18> C -0.6281941207 1.1948827409 0.313021644
| 19> O 4.7892404674 -0.0096132121 -0.1944080119
| 20> C 5.2711875313 -1.3338469919 -0.3143826553
| 21> C -3.8252677296 -0.1669992153 -0.5867888376
| 22> O -4.4784397572 -1.1681594393 -0.409441983
| 23> O -3.727652784 0.3518141287 -1.810298879
| 24> H -2.9476891259 0.6105820114 2.658985929
| 25> H -4.5889153917 0.4144314109 2.0175601488
| 26> H -3.474254759 -0.9473324042 2.0055349894
| 27> H -1.9491435136 -1.9057368501 0.2372151309
| 28> H 0.418882958 -2.5075152569 0.008386518
| 29> H 2.7610312169 -1.8456351414 -0.1418760987
| 30> H 3.8320926614 2.2878296814 0.0237328105
| 31> H 1.4495018308 2.9116735861 0.2535615446
| 32> H -0.9082572785 2.2345710293 0.4034911859
| 33> H 5.0175589776 -1.9265896036 0.5683588553
| 34> H 6.3516695343 -1.2405861996 -0.3953431996
| 35> H 4.8747447471 -1.8172473341 -1.2111017775
| 36> H -3.183974688 1.1583009667 -1.8609393875
| 37> *
| 38> 
| 39>                          ****END OF INPUT****
================================================================================

                       ****************************
                       * Single Point Calculation *
                       ****************************

---------------------------------
CARTESIAN COORDINATES (ANGSTROEM)
---------------------------------
  C     -3.547240    0.130764    1.890721
  C     -3.050990    0.549286    0.505645
  H     -3.186229    1.628730    0.385605
  C     -1.583628    0.211295    0.335377
  C     -1.190253   -1.136518    0.225242
  C      0.127746   -1.471116    0.095506
  C      1.129296   -0.477755    0.073307
  C      2.495106   -0.803863   -0.057249
  C      3.445905    0.186096   -0.073814
  C      3.054140    1.541104    0.040589
  C      1.740428    1.875863    0.166462
  C      0.738376    0.880294    0.186517
  C     -0.628194    1.194883    0.313022
  O      4.789240   -0.009613   -0.194408
  C      5.271188   -1.333847   -0.314383
  C     -3.825268   -0.166999   -0.586789
  O     -4.478440   -1.168159   -0.409442
  O     -3.727653    0.351814   -1.810299
  H     -2.947689    0.610582    2.658986
  H     -4.588915    0.414431    2.017560
  H     -3.474255   -0.947332    2.005535
  H     -1.949144   -1.905737    0.237215
  H      0.418883   -2.507515    0.008387
  H      2.761031   -1.845635   -0.141876
  H      3.832093    2.287830    0.023733
  H      1.449502    2.911674    0.253562
  H     -0.908257    2.234571    0.403491
  H      5.017559   -1.926590    0.568359
  H      6.351670   -1.240586   -0.395343
  H      4.874745   -1.817247   -1.211102
  H     -3.183975    1.158301   -1.860939

----------------------------
CARTESIAN COORDINATES (A.U.)
----------------------------
  NO LB      ZA    FRAG     MASS         X           Y           Z
   0 C     6.0000    0    12.011   -6.703313    0.247108    3.572945
   1 C     6.0000    0    12.011   -5.765535    1.038000    0.955530
   2 H     1.0000    0     1.008   -6.021099    3.077853    0.728688
   3 C     6.0000    0    12.011   -2.992623    0.399290    0.633771
   4 C     6.0000    0    12.011   -2.249252   -2.147708    0.425645
   5 C     6.0000    0    12.011    0.241405   -2.780007    0.180481
   6 C     6.0000    0    12.011    2.134061   -0.902825    0.138531
   7 C     6.0000    0    12.011    4.715066   -1.519081   -0.108184
   8 C     6.0000    0    12.011    6.511816    0.351671   -0.139489
   9 C     6.0000    0    12.011    5.771488    2.912265    0.076702
  10 C     6.0000    0    12.011    3.288933    3.544867    0.314567
  11 C     6.0000    0    12.011    1.395328    1.663515    0.352465
  12 C     6.0000    0    12.011   -1.187115    2.258001    0.591525
  13 O     8.0000    0    15.999    9.050353   -0.018166   -0.367378
  14 C     6.0000    0    12.011    9.961101   -2.520606   -0.594097
  15 C     6.0000    0    12.011   -7.228708   -0.315583   -1.108870
  16 O     8.0000    0    15.999   -8.463025   -2.207501   -0.773733
  17 O     8.0000    0    15.999   -7.044243    0.664832   -3.420969
  18 H     1.0000    0     1.008   -5.570325    1.153833    5.024755
  19 H     1.0000    0     1.008   -8.671793    0.783162    3.812636
  20 H     1.0000    0     1.008   -6.565390   -1.790199    3.789912
  21 H     1.0000    0     1.008   -3.683347   -3.601321    0.448272
  22 H     1.0000    0     1.008    0.791574   -4.738517    0.015848
  23 H     1.0000    0     1.008    5.217593   -3.487745   -0.268107
  24 H     1.0000    0     1.008    7.241606    4.323372    0.044849
  25 H     1.0000    0     1.008    2.739161    5.502266    0.479162
  26 H     1.0000    0     1.008   -1.716358    4.222727    0.762488
  27 H     1.0000    0     1.008    9.481812   -3.640727    1.074043
  28 H     1.0000    0     1.008   12.002916   -2.344368   -0.747090
  29 H     1.0000    0     1.008    9.211933   -3.434100   -2.288651
  30 H     1.0000    0     1.008   -6.016840    2.188872   -3.516666

--------------------------------
INTERNAL COORDINATES (ANGSTROEM)
--------------------------------
 C      0   0   0     0.000000000000     0.00000000     0.00000000
 C      1   0   0     1.529660797794     0.00000000     0.00000000
 H      2   1   0     1.094485038348   109.21220697     0.00000000
 C      2   1   3     1.515380927239   110.78442181   120.19836538
 C      4   2   1     1.408359112313   119.51831325    70.22484092
 C      5   4   2     1.365982528795   120.75378598   181.20202029
 C      6   5   4     1.410802208807   120.93063793     0.23510638
 C      7   6   5     1.410257648887   121.74760135   179.87536006
 C      8   7   6     1.372702290801   120.34259587   180.08218600
 C      9   8   7     1.415137780475   119.85490009     0.00000000
 C     10   9   8     1.361523419428   120.66478856   359.95559982
 C     11  10   9     1.412681235546   120.82756708     0.03048437
 C      4   2   1     1.371421668516   121.09539168   251.52209608
 O      9   8   7     1.362863327092   125.46666303   179.99083319
 C     14   9   8     1.414306187155   118.54477357     0.00000000
 C      2   1   3     1.518545970121   110.91145227   240.02218413
 O     16   2   1     1.208473168339   124.11027862   341.87676151
 O     16   2   1     1.332543727209   116.07395970   163.56979032
 H      1   2   3     1.086240407600   109.90718474   296.91594689
 H      1   2   3     1.087033892957   110.19020651    57.47275332
 H      1   2   3     1.086646475915   110.20219460   176.70345257
 H      5   4   2     1.080627326895   118.96035953     1.66520793
 H      6   5   4     1.080034083607   120.18600445   180.20656371
 H      8   7   6     1.078502590232   117.99711183     0.05017268
 H     10   9   8     1.078468058609   117.51711879   179.96669607
 H     11  10   9     1.079410987497   120.22903272   179.97971715
 H     13   4   2     1.080542385751   120.54081520   359.16065930
 H     15  14   9     1.093116563553   111.10921792   298.76697564
 H     15  14   9     1.087517146495   105.34213124   180.03816510
 H     15  14   9     1.093136750870   111.10350732    61.31006736
 H     18  16   2     0.973946278312   114.26960214   358.27405750

---------------------------
INTERNAL COORDINATES (A.U.)
---------------------------
 C      0   0   0     0.000000000000     0.00000000     0.00000000
 C      1   0   0     2.890639985626     0.00000000     0.00000000
 H      2   1   0     2.068276980151   109.21220697     0.00000000
 C      2   1   3     2.863654941049   110.78442181   120.19836538
 C      4   2   1     2.661413020484   119.51831325    70.22484092
 C      5   4   2     2.581332883144   120.75378598   181.20202029
 C      6   5   4     2.666029803777   120.93063793     0.23510638
 C      7   6   5     2.665000734663   121.74760135   179.87536006
 C      8   7   6     2.594031393020   120.34259587   180.08218600
 C      9   8   7     2.674222846864   119.85490009     0.00000000
 C     10   9   8     2.572906387639   120.66478856   359.95559982
 C     11  10   9     2.669580649712   120.82756708     0.03048437
 C      4   2   1     2.591611367621   121.09539168   251.52209608
 O      9   8   7     2.575438446168   125.46666303   179.99083319
 C     14   9   8     2.672651363233   118.54477357     0.00000000
 C      2   1   3     2.869636005299   110.91145227   240.02218413
 O     16   2   1     2.283683328353   124.11027862   341.87676151
 O     16   2   1     2.518142705899   116.07395970   163.56979032
 H      1   2   3     2.052696885962   109.90718474   296.91594689
 H      1   2   3     2.054196355979   110.19020651    57.47275332
 H      1   2   3     2.053464243870   110.20219460   176.70345257
 H      5   4   2     2.042089700663   118.96035953     1.66520793
 H      6   5   4     2.040968633318   120.18600445   180.20656371
 H      8   7   6     2.038074530263   117.99711183     0.05017268
 H     10   9   8     2.038009274953   117.51711879   179.96669607
 H     11  10   9     2.039791152314   120.22903272   179.97971715
 H     13   4   2     2.041929185163   120.54081520   359.16065930
 H     15  14   9     2.065690937568   111.10921792   298.76697564
 H     15  14   9     2.055109572819   105.34213124   180.03816510
 H     15  14   9     2.065729086069   111.10350732    61.31006736
 H     18  16   2     1.840491735162   114.26960214   358.27405750

---------------------
BASIS SET INFORMATION
---------------------
There are 3 groups of distinct atoms

 Group   1 Type C   : 7s4p1d contracted to 3s2p1d pattern {511/31/1}
 Group   2 Type H   : 4s contracted to 2s pattern {31}
 Group   3 Type O   : 7s4p1d contracted to 3s2p1d pattern {511/31/1}

Atom   0C    basis set group =>   1
Atom   1C    basis set group =>   1
Atom   2H    basis set group =>   2
Atom   3C    basis set group =>   1
Atom   4C    basis set group =>   1
Atom   5C    basis set group =>   1
Atom   6C    basis set group =>   1
Atom   7C    basis set group =>   1
Atom   8C    basis set group =>   1
Atom   9C    basis set group =>   1
Atom  10C    basis set group =>   1
Atom  11C    basis set group =>   1
Atom  12C    basis set group =>   1
Atom  13O    basis set group =>   3
Atom  14C    basis set group =>   1
Atom  15C    basis set group =>   1
Atom  16O    basis set group =>   3
Atom  17O    basis set group =>   3
Atom  18H    basis set group =>   2
Atom  19H    basis set group =>   2
Atom  20H    basis set group =>   2
Atom  21H    basis set group =>   2
Atom  22H    basis set group =>   2
Atom  23H    basis set group =>   2
Atom  24H    basis set group =>   2
Atom  25H    basis set group =>   2
Atom  26H    basis set group =>   2
Atom  27H    basis set group =>   2
Atom  28H    basis set group =>   2
Atom  29H    basis set group =>   2
Atom  30H    basis set group =>   2
---------------------------------
AUXILIARY/J BASIS SET INFORMATION
---------------------------------
There are 3 groups of distinct atoms

 Group   1 Type C   : 12s5p4d2f1g contracted to 6s4p3d1f1g pattern {711111/2111/211/2/1}
 Group   2 Type H   : 5s2p1d contracted to 3s1p1d pattern {311/2/1}
 Group   3 Type O   : 12s5p4d2f1g contracted to 6s4p3d1f1g pattern {711111/2111/211/2/1}

Atom   0C    basis set group =>   1
Atom   1C    basis set group =>   1
Atom   2H    basis set group =>   2
Atom   3C    basis set group =>   1
Atom   4C    basis set group =>   1
Atom   5C    basis set group =>   1
Atom   6C    basis set group =>   1
Atom   7C    basis set group =>   1
Atom   8C    basis set group =>   1
Atom   9C    basis set group =>   1
Atom  10C    basis set group =>   1
Atom  11C    basis set group =>   1
Atom  12C    basis set group =>   1
Atom  13O    basis set group =>   3
Atom  14C    basis set group =>   1
Atom  15C    basis set group =>   1
Atom  16O    basis set group =>   3
Atom  17O    basis set group =>   3
Atom  18H    basis set group =>   2
Atom  19H    basis set group =>   2
Atom  20H    basis set group =>   2
Atom  21H    basis set group =>   2
Atom  22H    basis set group =>   2
Atom  23H    basis set group =>   2
Atom  24H    basis set group =>   2
Atom  25H    basis set group =>   2
Atom  26H    basis set group =>   2
Atom  27H    basis set group =>   2
Atom  28H    basis set group =>   2
Atom  29H    basis set group =>   2
Atom  30H    basis set group =>   2
------------------------------------------------------------------------------
                             ORCA STARTUP CALCULATIONS
                           -- RI-GTO INTEGRALS CHOSEN --
------------------------------------------------------------------------------
------------------------------------------------------------------------------
                   ___                                                        
                  /   \      - P O W E R E D   B Y -                         
                 /     \                                                     
                 |  |  |   _    _      __       _____    __    __             
                 |  |  |  | |  | |    /  \     |  _  \  |  |  /  |          
                  \  \/   | |  | |   /    \    | | | |  |  | /  /          
                 / \  \   | |__| |  /  /\  \   | |_| |  |  |/  /          
                |  |  |   |  __  | /  /__\  \  |    /   |      \           
                |  |  |   | |  | | |   __   |  |    \   |  |\   \          
                \     /   | |  | | |  |  |  |  | |\  \  |  | \   \       
                 \___/    |_|  |_| |__|  |__|  |_| \__\ |__|  \__/        
                                                                              
                      - O R C A' S   B I G   F R I E N D -                    
                                      &                                       
                       - I N T E G R A L  F E E D E R -                       
                                                                              
 v1 FN, 2020, v2 2021, v3 2022-2024                                           
------------------------------------------------------------------------------


----------------------
SHARK INTEGRAL PACKAGE
----------------------

Number of atoms                             ...     31
Number of basis functions                   ...    266
Number of shells                            ...    130
Maximum angular momentum                    ...      2
Integral batch strategy                     ... SHARK/LIBINT Hybrid
RI-J (if used) integral strategy            ... SPLIT-RIJ (Revised 2003 algorithm where possible)
Printlevel                                  ...      1
Contraction scheme used                     ... SEGMENTED contraction
Prescreening option                         ... SCHWARTZ
   Thresh                                   ... 1.000e-09
   Tcut                                     ... 1.000e-10
   Tpresel                                  ... 1.000e-10 
Coulomb Range Separation                    ... NOT USED
Exchange Range Separation                   ... NOT USED
Multipole approximations                    ... NOT USED
Finite Nucleus Model                        ... NOT USED
CABS basis                                  ... NOT available
Auxiliary Coulomb fitting basis             ... AVAILABLE
   # of basis functions in Aux-J            ...    987
   # of shells in Aux-J                     ...    325
   Maximum angular momentum in Aux-J        ...      4
Auxiliary J/K fitting basis                 ... NOT available
Auxiliary Correlation fitting basis         ... NOT available
Auxiliary 'external' fitting basis          ... NOT available

Checking pre-screening integrals            ... done (  0.0 sec) Dimension = 130
Check shell pair data                       ... done (  0.0 sec)
Shell pair information
Shell pair cut-off parameter TPreSel        ...   1.0e-10
Total number of shell pairs                 ...      8515
Shell pairs after pre-screening             ...      6524
Total number of primitive shell pairs       ...     34193
Primitive shell pairs kept                  ...     16706
          la=0 lb=0:   2351 shell pairs
          la=1 lb=0:   2178 shell pairs
          la=1 lb=1:    517 shell pairs
          la=2 lb=0:    935 shell pairs
          la=2 lb=1:    446 shell pairs
          la=2 lb=2:     97 shell pairs

Calculating one electron integrals          ... done (  0.1 sec)
Calculating RI/J V-Matrix + Cholesky decomp.... done (  0.2 sec)
Calculating Nuclear repulsion               ... done (  0.0 sec) ENN=   1136.967454454754 Eh

Diagonalization of the overlap matrix:
Smallest eigenvalue                        ... 2.249e-04
Time for diagonalization                   ...    0.010 sec
Threshold for overlap eigenvalues          ... 1.000e-07
Number of eigenvalues below threshold      ... 0
Time for construction of square roots      ...    0.023 sec
Total time needed                          ...    0.046 sec

-------------------
DFT GRID GENERATION
-------------------

General Integration Accuracy     IntAcc      ... 4.159
Radial Grid Type                 RadialGrid  ... OptM3 with GC (2021)
Angular Grid (max. ang.)         AngularGrid ... 3 (Lebedev-194)
Angular grid pruning method      GridPruning ... 4 (adaptive)
Weight generation scheme         WeightScheme... mBecke (2022)
Basis function cutoff            BFCut       ... 1.0000e-10
Integration weight cutoff        WCut        ... 1.0000e-14
Partially contracted basis set               ... off
Rotationally invariant grid construction     ... off
Angular grids for H and He will be reduced by one unit

Total number of grid points                  ...    74601
Total number of batches                      ...     1181
Average number of points per batch           ...       63
Average number of grid points per atom       ...     2406
Initializing property integral containers    ... done (  0.1 sec)

SHARK setup successfully completed in   1.6 seconds

Maximum memory used throughout the entire STARTUP-calculation: 38.1 MB
-------------------------------------------------------------------------------
                                 ORCA GUESS
                   Start orbitals & Density for SCF / CASSCF
-------------------------------------------------------------------------------

------------
SCF SETTINGS
------------
Hamiltonian:
 Density Functional     Method          .... DFT(GTOs)
 Exchange Functional    Exchange        .... PBE
   PBE kappa parameter   XKappa         ....  0.804000
   PBE mue parameter    XMuePBE         ....  0.219520
 Correlation Functional Correlation     .... PBE
   PBE beta parameter  CBetaPBE         ....  0.066725
 LDA part of GGA corr.  LDAOpt          .... PW91-LDA
 Gradients option       PostSCFGGA      .... off
   NL short-range parameter             ....  6.400000
 RI-approximation to the Coulomb term is turned on
   Number of AuxJ basis functions       .... 987


General Settings:
 Integral files         IntName         .... sp
 Hartree-Fock type      HFTyp           .... RHF
 Total Charge           Charge          ....    0
 Multiplicity           Mult            ....    1
 Number of Electrons    NEL             ....  122
 Basis Dimension        Dim             ....  266
 Nuclear Repulsion      ENuc            ....   1136.9674544548 Eh

Convergence Acceleration:
 AO-DIIS                CNVDIIS         .... on
   Start iteration      DIISMaxIt       ....    12
   Startup error        DIISStart       ....  0.200000
   # of expansion vecs  DIISMaxEq       ....     5
   Bias factor          DIISBfac        ....   1.050
   Max. coefficient     DIISMaxC        ....  10.000
 MO-DIIS                CNVKDIIS        .... off
 Trust-Rad. Augm. Hess. CNVTRAH         .... auto
   Auto Start mean grad. ratio tolernc. ....  1.125000
   Auto Start start iteration           ....    50
   Auto Start num. interpolation iter.  ....    10
   Max. Number of Micro iterations      ....    24
   Max. Number of Macro iterations      .... Maxiter - #DIIS iter
   Number of Davidson start vectors     ....     2
   Converg. threshold    (grad. norm)   ....   1.000e-04
   Grad. Scal. Fac. for Micro threshold ....   0.100
   Minimum threshold for Micro iter.    ....   1.000e-02
   NR start threshold (gradient norm)   ....   1.000e-04
   Initial trust radius                 ....   0.400
   Minimum AH scaling param. (alpha)    ....   1.000
   Maximum AH scaling param. (alpha)    .... 1000.000
   Quad. conv. algorithm                .... NR
   White noise on init. David. guess    .... on
   Maximum white noise                  ....   0.010
   Pseudo random numbers                .... off
   Inactive MOs                         .... canonical
   Orbital update algorithm             .... Taylor
   Preconditioner                       .... Diag
   Full preconditioner red. dimension   ....   250
 SOSCF                  CNVSOSCF        .... on
   Start iteration      SOSCFMaxIt      ....   150
   Startup grad/error   SOSCFStart      ....  0.003300
   Hessian update       SOSCFHessUp     .... L-BFGS
 Level Shifting         CNVShift        .... on
   Level shift para.    LevelShift      ....    0.2500
   Turn off err/grad.   ShiftErr        ....    0.0010
 Zerner damping         CNVZerner       .... off
 Static damping         CNVDamp         .... on
   Fraction old density DampFac         ....    0.7000
   Max. Damping (<1)    DampMax         ....    0.9800
   Min. Damping (>=0)   DampMin         ....    0.0000
   Turn off err/grad.   DampErr         ....    0.1000

SCF Procedure:
 Maximum # iterations   MaxIter         ....   125
 SCF integral mode      SCFMode         .... Direct
   Integral package                     .... SHARK and LIBINT hybrid scheme
 Reset frequency        DirectResetFreq ....    20
 Integral Threshold     Thresh          ....  1.000e-09 Eh
 Primitive CutOff       TCut            ....  1.000e-10 Eh

Convergence Tolerance:
 Convergence Check Mode ConvCheckMode   .... Total+1el-Energy
 Convergence forced     ConvForced      .... 0
 Energy Change          TolE            ....  1.000e-05 Eh
 1-El. energy change                    ....  1.000e-02 Eh
 Orbital Gradient       TolG            ....  1.000e-04
 Orbital Rotation angle TolX            ....  1.000e-04
 DIIS Error             TolErr          ....  5.000e-04

------------------------------
INITIAL GUESS: MODEL POTENTIAL
------------------------------
Loading Hartree-Fock densities                     ... done
Calculating cut-offs                               ... done
Initializing the effective Hamiltonian             ... done
Setting up the integral package (SHARK)            ... done
Starting the Coulomb interaction                   ... done (   0.6 sec)
Making the grid                                    ... done (   0.5 sec)
Mapping shells                                     ... done
Starting the XC term evaluation                    ... done (   0.5 sec)
  promolecular density results
     # of electrons  =    121.998852843
     EX              =   -100.276472555
     EC              =     -4.096326757
     EX+EC           =   -104.372799312
Transforming the Hamiltonian                       ... done (   0.0 sec)
Diagonalizing the Hamiltonian                      ... done (   0.0 sec)
Back transforming the eigenvectors                 ... done (   0.0 sec)
Now organizing SCF variables                       ... done
                      ------------------
                      INITIAL GUESS DONE (   1.6 sec)
                      ------------------
             **** ENERGY FILE WAS UPDATED (sp.en.tmp) ****
Finished Guess after   1.9 sec
Maximum memory used throughout the entire GUESS-calculation: 29.9 MB

-------------------------------------------------------------------------------------------
                                      ORCA LEAN-SCF
                              memory conserving SCF solver
-------------------------------------------------------------------------------------------

----------------------------------------D-I-I-S--------------------------------------------
Iteration    Energy (Eh)           Delta-E    RMSDP     MaxDP     DIISErr   Damp  Time(sec)
-------------------------------------------------------------------------------------------
               ***  Starting incremental Fock matrix formation  ***
    1    -765.7297808815553708     0.00e+00  3.50e-03  1.61e-01  2.40e-01  0.700   2.5
    2    -765.9037782230236644    -1.74e-01  2.23e-03  9.69e-02  7.87e-02  0.700   2.5
                               ***Turning on AO-DIIS***
    3    -765.9617617167691606    -5.80e-02  9.04e-04  1.52e-02  2.43e-02  0.700   2.4
    4    -765.9990285115936786    -3.73e-02  1.54e-03  3.65e-02  1.46e-02  0.000   2.3
    5    -766.0827563114535224    -8.37e-02  3.85e-04  9.70e-03  6.45e-03  0.000   2.2
                              *** Initializing SOSCF ***
---------------------------------------S-O-S-C-F--------------------------------------
Iteration    Energy (Eh)           Delta-E    RMSDP     MaxDP     MaxGrad    Time(sec)
--------------------------------------------------------------------------------------
    6    -766.0835442160775983    -7.88e-04  1.43e-04  3.10e-03  2.75e-03     2.2
               *** Restarting incremental Fock matrix formation ***
    7    -766.0836013888088019    -5.72e-05  1.12e-04  3.30e-03  5.93e-04     2.2
    8    -766.0835725832039316     2.88e-05  5.75e-05  2.07e-03  1.97e-03     2.1
    9    -766.0836100248202456    -3.74e-05  2.98e-05  9.19e-04  1.66e-04     2.1
   10    -766.0836083193166814     1.71e-06  1.73e-05  7.31e-04  2.18e-04     2.2
                 **** Energy Check signals convergence ****

               *****************************************************
               *                     SUCCESS                       *
               *           SCF CONVERGED AFTER  10 CYCLES          *
               *****************************************************

             **** ENERGY FILE WAS UPDATED (sp.en.tmp) ****

----------------
TOTAL SCF ENERGY
----------------

Total Energy       :       -766.08360831931668 Eh          -20846.19478 eV

Components:
Nuclear Repulsion  :       1136.96745445475381 Eh           30938.45732 eV
Electronic Energy  :      -1903.05106277407049 Eh          -51784.65210 eV
One Electron Energy:      -3298.33323971282107 Eh          -89752.21037 eV
Two Electron Energy:       1395.28217693875058 Eh           37967.55827 eV

Virial components:
Potential Energy   :      -1525.90762659585516 Eh          -41522.05746 eV
Kinetic Energy     :        759.82401827653860 Eh           20675.86268 eV
Virial Ratio       :          2.00823821028582

DFT components:
N(Alpha)           :       60.999904959374 electrons
N(Beta)            :       60.999904959374 electrons
N(Total)           :      121.999809918749 electrons
E(X)               :     -101.935881793592 Eh       
E(C)               :       -4.112402205858 Eh       
E(XC)              :     -106.048283999451 Eh       

---------------
SCF CONVERGENCE
---------------

  Last Energy change         ...   -1.7055e-06  Tolerance :   1.0000e-05
  Last MAX-Density change    ...    7.3107e-04  Tolerance :   1.0000e-03
  Last RMS-Density change    ...    1.7300e-05  Tolerance :   1.0000e-04
  Last DIIS Error            ...    2.7510e-03  Tolerance :   5.0000e-04
  Last Orbital Gradient      ...    2.1804e-04  Tolerance :   1.0000e-04
  Last Orbital Rotation      ...    2.2817e-04  Tolerance :   1.0000e-04


----------------
ORBITAL ENERGIES
----------------

  NO   OCC          E(Eh)            E(eV) 
   0   2.0000     -18.797754      -511.5129 
   1   2.0000     -18.797342      -511.5017 
   2   2.0000     -18.732764      -509.7444 
   3   2.0000     -10.011448      -272.4253 
   4   2.0000      -9.959673      -271.0165 
   5   2.0000      -9.946794      -270.6660 
   6   2.0000      -9.920186      -269.9420 
   7   2.0000      -9.912181      -269.7241 
   8   2.0000      -9.908440      -269.6223 
   9   2.0000      -9.905139      -269.5325 
  10   2.0000      -9.901792      -269.4415 
  11   2.0000      -9.900659      -269.4106 
  12   2.0000      -9.898329      -269.3472 
  13   2.0000      -9.897552      -269.3261 
  14   2.0000      -9.896235      -269.2902 
  15   2.0000      -9.895328      -269.2656 
  16   2.0000      -9.882497      -268.9164 
  17   2.0000      -1.002123       -27.2692 
  18   2.0000      -0.977200       -26.5910 
  19   2.0000      -0.914112       -24.8742 
  20   2.0000      -0.802620       -21.8404 
  21   2.0000      -0.763123       -20.7656 
  22   2.0000      -0.722458       -19.6591 
  23   2.0000      -0.701456       -19.0876 
  24   2.0000      -0.676524       -18.4091 
  25   2.0000      -0.654465       -17.8089 
  26   2.0000      -0.631630       -17.1875 
  27   2.0000      -0.593764       -16.1571 
  28   2.0000      -0.568095       -15.4587 
  29   2.0000      -0.563577       -15.3357 
  30   2.0000      -0.547925       -14.9098 
  31   2.0000      -0.537124       -14.6159 
  32   2.0000      -0.489470       -13.3192 
  33   2.0000      -0.477631       -12.9970 
  34   2.0000      -0.472705       -12.8630 
  35   2.0000      -0.440704       -11.9922 
  36   2.0000      -0.428280       -11.6541 
  37   2.0000      -0.425704       -11.5840 
  38   2.0000      -0.420593       -11.4449 
  39   2.0000      -0.405945       -11.0463 
  40   2.0000      -0.396606       -10.7922 
  41   2.0000      -0.389598       -10.6015 
  42   2.0000      -0.380726       -10.3601 
  43   2.0000      -0.373867       -10.1734 
  44   2.0000      -0.369035       -10.0420 
  45   2.0000      -0.363057        -9.8793 
  46   2.0000      -0.361831        -9.8459 
  47   2.0000      -0.350327        -9.5329 
  48   2.0000      -0.340526        -9.2662 
  49   2.0000      -0.325482        -8.8568 
  50   2.0000      -0.318787        -8.6746 
  51   2.0000      -0.312266        -8.4972 
  52   2.0000      -0.307200        -8.3593 
  53   2.0000      -0.298478        -8.1220 
  54   2.0000      -0.287892        -7.8339 
  55   2.0000      -0.274318        -7.4646 
  56   2.0000      -0.269830        -7.3425 
  57   2.0000      -0.258382        -7.0309 
  58   2.0000      -0.219618        -5.9761 
  59   2.0000      -0.215155        -5.8547 
  60   2.0000      -0.192101        -5.2273 
  61   0.0000      -0.071754        -1.9525 
  62   0.0000      -0.043545        -1.1849 
  63   0.0000      -0.020823        -0.5666 
  64   0.0000      -0.009507        -0.2587 
  65   0.0000       0.012077         0.3286 
  66   0.0000       0.039656         1.0791 
  67   0.0000       0.048000         1.3061 
  68   0.0000       0.052173         1.4197 
  69   0.0000       0.060288         1.6405 
  70   0.0000       0.062034         1.6880 
  71   0.0000       0.081486         2.2174 
*Only the first 10 virtual orbitals were printed.

                    ********************************
                    * MULLIKEN POPULATION ANALYSIS *
                    ********************************

-----------------------
MULLIKEN ATOMIC CHARGES
-----------------------
   0 C :   -0.209185
   1 C :   -0.199599
   2 H :    0.067062
   3 C :    0.100156
   4 C :   -0.092951
   5 C :   -0.124458
   6 C :    0.170310
   7 C :   -0.299002
   8 C :    0.294708
   9 C :   -0.091897
  10 C :   -0.129923
  11 C :    0.179668
  12 C :   -0.229867
  13 O :   -0.266701
  14 C :   -0.115407
  15 C :    0.150345
  16 O :   -0.175619
  17 O :   -0.281169
  18 H :    0.102768
  19 H :    0.110155
  20 H :    0.120276
  21 H :    0.069162
  22 H :    0.038350
  23 H :    0.027102
  24 H :    0.048525
  25 H :    0.040470
  26 H :    0.021335
  27 H :    0.113353
  28 H :    0.128313
  29 H :    0.113542
  30 H :    0.320178
Sum of atomic charges:   -0.0000000

--------------------------------
MULLIKEN REDUCED ORBITAL CHARGES
--------------------------------
  0 C s       :     3.068361  s :     3.068361
      pz      :     0.988127  p :     3.112155
      px      :     1.041665
      py      :     1.082363
      dz2     :     0.006795  d :     0.028669
      dxz     :     0.005916
      dyz     :     0.004864
      dx2y2   :     0.008393
      dxy     :     0.002702

  1 C s       :     3.101152  s :     3.101152
      pz      :     1.054341  p :     3.057252
      px      :     1.013981
      py      :     0.988930
      dz2     :     0.009077  d :     0.041195
      dxz     :     0.010473
      dyz     :     0.006549
      dx2y2   :     0.010226
      dxy     :     0.004871

  2 H s       :     0.932938  s :     0.932938

  3 C s       :     2.991294  s :     2.991294
      pz      :     0.994160  p :     2.867271
      px      :     0.921284
      py      :     0.951826
      dz2     :     0.002817  d :     0.041279
      dxz     :     0.006006
      dyz     :     0.006791
      dx2y2   :     0.013138
      dxy     :     0.012526

  4 C s       :     3.256497  s :     3.256497
      pz      :     0.989824  p :     2.801921
      px      :     0.877541
      py      :     0.934556
      dz2     :     0.003204  d :     0.034533
      dxz     :     0.004550
      dyz     :     0.004231
      dx2y2   :     0.008914
      dxy     :     0.013634

  5 C s       :     3.287216  s :     3.287216
      pz      :     1.002112  p :     2.802596
      px      :     0.967063
      py      :     0.833421
      dz2     :     0.003136  d :     0.034646
      dxz     :     0.006584
      dyz     :     0.002168
      dx2y2   :     0.011932
      dxy     :     0.010827

  6 C s       :     3.012730  s :     3.012730
      pz      :     0.963415  p :     2.775156
      px      :     0.832092
      py      :     0.979648
      dz2     :     0.002919  d :     0.041804
      dxz     :     0.007782
      dyz     :     0.005789
      dx2y2   :     0.012787
      dxy     :     0.012528

  7 C s       :     3.405718  s :     3.405718
      pz      :     1.092470  p :     2.861200
      px      :     1.009230
      py      :     0.759500
      dz2     :     0.003371  d :     0.032083
      dxz     :     0.005936
      dyz     :     0.002559
      dx2y2   :     0.010209
      dxy     :     0.010010

  8 C s       :     2.891794  s :     2.891794
      pz      :     0.982325  p :     2.741225
      px      :     0.807489
      py      :     0.951411
      dz2     :     0.005113  d :     0.072274
      dxz     :     0.016882
      dyz     :     0.007115
      dx2y2   :     0.024235
      dxy     :     0.018929

  9 C s       :     3.281992  s :     3.281992
      pz      :     1.018268  p :     2.777250
      px      :     0.831188
      py      :     0.927795
      dz2     :     0.003280  d :     0.032655
      dxz     :     0.004507
      dyz     :     0.003982
      dx2y2   :     0.008528
      dxy     :     0.012359

 10 C s       :     3.291289  s :     3.291289
      pz      :     0.995784  p :     2.803476
      px      :     0.962415
      py      :     0.845277
      dz2     :     0.003165  d :     0.035158
      dxz     :     0.007174
      dyz     :     0.002161
      dx2y2   :     0.012045
      dxy     :     0.010613

 11 C s       :     3.009091  s :     3.009091
      pz      :     0.984048  p :     2.770407
      px      :     0.820533
      py      :     0.965825
      dz2     :     0.002884  d :     0.040835
      dxz     :     0.006930
      dyz     :     0.005729
      dx2y2   :     0.012652
      dxy     :     0.012640

 12 C s       :     3.389974  s :     3.389974
      pz      :     1.022276  p :     2.805276
      px      :     0.997008
      py      :     0.785993
      dz2     :     0.003177  d :     0.034616
      dxz     :     0.006635
      dyz     :     0.002450
      dx2y2   :     0.012622
      dxy     :     0.009732

 13 O s       :     3.736798  s :     3.736798
      pz      :     1.758162  p :     4.513290
      px      :     1.339828
      py      :     1.415301
      dz2     :     0.002250  d :     0.016613
      dxz     :     0.002658
      dyz     :     0.001967
      dx2y2   :     0.006688
      dxy     :     0.003049

 14 C s       :     3.129958  s :     3.129958
      pz      :     1.082978  p :     2.931208
      px      :     1.060579
      py      :     0.787651
      dz2     :     0.008349  d :     0.054241
      dxz     :     0.003037
      dyz     :     0.016721
      dx2y2   :     0.016035
      dxy     :     0.010099

 15 C s       :     3.048318  s :     3.048318
      pz      :     0.876546  p :     2.670756
      px      :     0.879623
      py      :     0.914587
      dz2     :     0.027415  d :     0.130582
      dxz     :     0.023561
      dyz     :     0.040323
      dx2y2   :     0.021771
      dxy     :     0.017511

 16 O s       :     3.743521  s :     3.743521
      pz      :     1.711160  p :     4.414271
      px      :     1.376088
      py      :     1.327023
      dz2     :     0.002105  d :     0.017827
      dxz     :     0.001455
      dyz     :     0.002959
      dx2y2   :     0.005581
      dxy     :     0.005727

 17 O s       :     3.733433  s :     3.733433
      pz      :     1.481067  p :     4.531774
      px      :     1.638760
      py      :     1.411947
      dz2     :     0.006237  d :     0.015962
      dxz     :     0.002322
      dyz     :     0.002069
      dx2y2   :     0.000933
      dxy     :     0.004400

 18 H s       :     0.897232  s :     0.897232

 19 H s       :     0.889845  s :     0.889845

 20 H s       :     0.879724  s :     0.879724

 21 H s       :     0.930838  s :     0.930838

 22 H s       :     0.961650  s :     0.961650

 23 H s       :     0.972898  s :     0.972898

 24 H s       :     0.951475  s :     0.951475

 25 H s       :     0.959530  s :     0.959530

 26 H s       :     0.978665  s :     0.978665

 27 H s       :     0.886647  s :     0.886647

 28 H s       :     0.871687  s :     0.871687

 29 H s       :     0.886458  s :     0.886458

 30 H s       :     0.679822  s :     0.679822


------------------------
MULLIKEN OVERLAP CHARGES
------------------------
B(  0-C ,  1-C ) :   0.6017 B(  0-C ,  3-C ) :  -0.0686 B(  0-C , 18-H ) :   0.7169 
B(  0-C , 19-H ) :   0.7362 B(  0-C , 20-H ) :   0.7519 B(  1-C ,  2-H ) :   0.5718 
B(  1-C ,  3-C ) :   0.5980 B(  1-C ,  4-C ) :  -0.2224 B(  1-C , 12-C ) :  -0.1967 
B(  1-C , 15-C ) :   0.2698 B(  1-C , 16-O ) :  -0.2601 B(  1-C , 17-O ) :  -0.3093 
B(  2-H ,  3-C ) :  -0.0770 B(  3-C ,  4-C ) :   0.0936 B(  3-C ,  5-C ) :   0.3287 
B(  3-C ,  6-C ) :  -0.3842 B(  3-C , 11-C ) :   0.3422 B(  3-C , 12-C ) :   0.3226 
B(  3-C , 15-C ) :  -0.0532 B(  3-C , 21-H ) :  -0.1834 B(  3-C , 26-H ) :  -0.1928 
B(  4-C ,  5-C ) :   0.3114 B(  4-C ,  6-C ) :   0.3407 B(  4-C , 11-C ) :  -0.3083 
B(  4-C , 12-C ) :   0.1801 B(  4-C , 21-H ) :   0.8558 B(  4-C , 22-H ) :  -0.1872 
B(  5-C ,  6-C ) :   0.3566 B(  5-C ,  7-C ) :  -0.3147 B(  5-C , 10-C ) :   0.0567 
B(  5-C , 11-C ) :   0.0909 B(  5-C , 12-C ) :  -0.3321 B(  5-C , 21-H ) :  -0.1470 
B(  5-C , 22-H ) :   0.8884 B(  6-C ,  7-C ) :   0.2662 B(  6-C ,  8-C ) :   0.4469 
B(  6-C ,  9-C ) :  -0.3192 B(  6-C , 10-C ) :   0.1131 B(  6-C , 11-C ) :  -0.1837 
B(  6-C , 12-C ) :   0.1038 B(  6-C , 22-H ) :  -0.1703 B(  6-C , 23-H ) :  -0.1383 
B(  7-C ,  9-C ) :   0.1927 B(  7-C , 10-C ) :  -0.3483 B(  7-C , 11-C ) :   0.1018 
B(  7-C , 13-O ) :  -0.1941 B(  7-C , 22-H ) :  -0.0510 B(  7-C , 23-H ) :   0.8769 
B(  7-C , 24-H ) :   0.0514 B(  8-C ,  9-C ) :   0.2069 B(  8-C , 10-C ) :   0.4277 
B(  8-C , 11-C ) :  -0.4105 B(  8-C , 13-O ) :   0.8418 B(  8-C , 14-C ) :  -0.1308 
B(  8-C , 23-H ) :  -0.2297 B(  8-C , 24-H ) :  -0.1638 B(  9-C , 10-C ) :   0.2650 
B(  9-C , 11-C ) :   0.3820 B(  9-C , 13-O ) :  -0.1581 B(  9-C , 24-H ) :   0.8463 
B(  9-C , 25-H ) :  -0.1962 B( 10-C , 11-C ) :   0.2846 B( 10-C , 12-C ) :  -0.3228 
B( 10-C , 24-H ) :  -0.1848 B( 10-C , 25-H ) :   0.8985 B( 11-C , 12-C ) :   0.3799 
B( 11-C , 25-H ) :  -0.1687 B( 11-C , 26-H ) :  -0.1539 B( 12-C , 26-H ) :   0.8632 
B( 13-O , 14-C ) :   0.6266 B( 13-O , 27-H ) :  -0.0616 B( 13-O , 28-H ) :  -0.0507 
B( 13-O , 29-H ) :  -0.0616 B( 14-C , 27-H ) :   0.7532 B( 14-C , 28-H ) :   0.7677 
B( 14-C , 29-H ) :   0.7535 B( 15-C , 16-O ) :   1.4316 B( 15-C , 17-O ) :   0.7952 
B( 15-C , 30-H ) :  -0.0549 B( 16-O , 17-O ) :  -0.1465 B( 17-O , 30-H ) :   0.4953 
B( 27-H , 29-H ) :  -0.0944 


                     *******************************
                     * LOEWDIN POPULATION ANALYSIS *
                     *******************************

----------------------
LOEWDIN ATOMIC CHARGES
----------------------
   0 C :   -0.316979
   1 C :   -0.173948
   2 H :    0.124484
   3 C :   -0.046277
   4 C :   -0.116566
   5 C :   -0.108988
   6 C :   -0.017100
   7 C :   -0.172220
   8 C :    0.030494
   9 C :   -0.131135
  10 C :   -0.106363
  11 C :   -0.034985
  12 C :   -0.120786
  13 O :   -0.087449
  14 C :   -0.201906
  15 C :    0.037304
  16 O :   -0.146035
  17 O :   -0.199875
  18 H :    0.123012
  19 H :    0.125451
  20 H :    0.129963
  21 H :    0.133204
  22 H :    0.124973
  23 H :    0.127153
  24 H :    0.132398
  25 H :    0.125435
  26 H :    0.119368
  27 H :    0.111377
  28 H :    0.123940
  29 H :    0.111446
  30 H :    0.300608

-------------------------------
LOEWDIN REDUCED ORBITAL CHARGES
-------------------------------
  0 C s       :     2.946853  s :     2.946853
      pz      :     1.051626  p :     3.299670
      px      :     1.112837
      py      :     1.135207
      dz2     :     0.018136  d :     0.070456
      dxz     :     0.014701
      dyz     :     0.010989
      dx2y2   :     0.020071
      dxy     :     0.006560

  1 C s       :     2.884217  s :     2.884217
      pz      :     1.067179  p :     3.186118
      px      :     1.050287
      py      :     1.068652
      dz2     :     0.024094  d :     0.103612
      dxz     :     0.025353
      dyz     :     0.016083
      dx2y2   :     0.026315
      dxy     :     0.011767

  2 H s       :     0.875516  s :     0.875516

  3 C s       :     2.850138  s :     2.850138
      pz      :     0.974640  p :     3.085260
      px      :     1.021080
      py      :     1.089540
      dz2     :     0.007556  d :     0.110878
      dxz     :     0.012035
      dyz     :     0.014879
      dx2y2   :     0.039309
      dxy     :     0.037100

  4 C s       :     2.889954  s :     2.889954
      pz      :     0.986946  p :     3.134996
      px      :     1.083424
      py      :     1.064627
      dz2     :     0.007290  d :     0.091615
      dxz     :     0.009616
      dyz     :     0.008885
      dx2y2   :     0.027795
      dxy     :     0.038029

  5 C s       :     2.890035  s :     2.890035
      pz      :     0.991146  p :     3.127633
      px      :     1.079806
      py      :     1.056680
      dz2     :     0.007068  d :     0.091321
      dxz     :     0.014095
      dyz     :     0.003811
      dx2y2   :     0.034144
      dxy     :     0.032203

  6 C s       :     2.834439  s :     2.834439
      pz      :     0.957122  p :     3.068782
      px      :     1.048337
      py      :     1.063323
      dz2     :     0.007678  d :     0.113880
      dxz     :     0.016281
      dyz     :     0.012000
      dx2y2   :     0.039034
      dxy     :     0.038886

  7 C s       :     2.889408  s :     2.889408
      pz      :     1.075922  p :     3.196004
      px      :     1.059814
      py      :     1.060268
      dz2     :     0.007514  d :     0.086808
      dxz     :     0.012668
      dyz     :     0.004488
      dx2y2   :     0.031424
      dxy     :     0.030714

  8 C s       :     2.836868  s :     2.836868
      pz      :     0.972257  p :     2.959709
      px      :     0.893028
      py      :     1.094424
      dz2     :     0.011699  d :     0.172930
      dxz     :     0.033666
      dyz     :     0.014737
      dx2y2   :     0.063057
      dxy     :     0.049771

  9 C s       :     2.895889  s :     2.895889
      pz      :     1.009148  p :     3.147537
      px      :     1.085655
      py      :     1.052734
      dz2     :     0.007440  d :     0.087708
      dxz     :     0.009419
      dyz     :     0.008235
      dx2y2   :     0.027576
      dxy     :     0.035038

 10 C s       :     2.889637  s :     2.889637
      pz      :     0.986178  p :     3.124460
      px      :     1.080053
      py      :     1.058228
      dz2     :     0.007079  d :     0.092266
      dxz     :     0.015478
      dyz     :     0.003810
      dx2y2   :     0.034353
      dxy     :     0.031547

 11 C s       :     2.834483  s :     2.834483
      pz      :     0.976940  p :     3.088386
      px      :     1.051365
      py      :     1.060081
      dz2     :     0.007683  d :     0.112116
      dxz     :     0.014373
      dyz     :     0.011852
      dx2y2   :     0.038929
      dxy     :     0.039280

 12 C s       :     2.891855  s :     2.891855
      pz      :     1.013845  p :     3.137162
      px      :     1.063514
      py      :     1.059803
      dz2     :     0.007055  d :     0.091769
      dxz     :     0.014330
      dyz     :     0.004541
      dx2y2   :     0.036188
      dxy     :     0.029655

 13 O s       :     3.443996  s :     3.443996
      pz      :     1.749035  p :     4.611476
      px      :     1.394629
      py      :     1.467813
      dz2     :     0.003987  d :     0.031977
      dxz     :     0.004343
      dyz     :     0.003020
      dx2y2   :     0.013875
      dxy     :     0.006753

 14 C s       :     2.961502  s :     2.961502
      pz      :     1.140288  p :     3.121121
      px      :     1.103704
      py      :     0.877129
      dz2     :     0.018716  d :     0.119283
      dxz     :     0.006117
      dyz     :     0.038360
      dx2y2   :     0.036453
      dxy     :     0.019638

 15 C s       :     2.859014  s :     2.859014
      pz      :     0.940834  p :     2.807453
      px      :     0.899452
      py      :     0.967167
      dz2     :     0.063218  d :     0.296229
      dxz     :     0.053104
      dyz     :     0.096218
      dx2y2   :     0.042748
      dxy     :     0.040941

 16 O s       :     3.549260  s :     3.549260
      pz      :     1.721501  p :     4.565608
      px      :     1.414138
      py      :     1.429969
      dz2     :     0.004422  d :     0.031167
      dxz     :     0.002189
      dyz     :     0.004699
      dx2y2   :     0.007916
      dxy     :     0.011942

 17 O s       :     3.509334  s :     3.509334
      pz      :     1.546626  p :     4.660883
      px      :     1.652389
      py      :     1.461868
      dz2     :     0.012333  d :     0.029658
      dxz     :     0.003278
      dyz     :     0.004684
      dx2y2   :     0.001776
      dxy     :     0.007588

 18 H s       :     0.876988  s :     0.876988

 19 H s       :     0.874549  s :     0.874549

 20 H s       :     0.870037  s :     0.870037

 21 H s       :     0.866796  s :     0.866796

 22 H s       :     0.875027  s :     0.875027

 23 H s       :     0.872847  s :     0.872847

 24 H s       :     0.867602  s :     0.867602

 25 H s       :     0.874565  s :     0.874565

 26 H s       :     0.880632  s :     0.880632

 27 H s       :     0.888623  s :     0.888623

 28 H s       :     0.876060  s :     0.876060

 29 H s       :     0.888554  s :     0.888554

 30 H s       :     0.699392  s :     0.699392


---------------------------------
LOEWDIN BOND ORDERS (THRESH 0.050000)
---------------------------------
B(  0-C ,  1-C ) :   1.0729 B(  0-C ,  3-C ) :   0.0575 B(  0-C , 15-C ) :   0.0589 
B(  0-C , 18-H ) :   0.9326 B(  0-C , 19-H ) :   0.9330 B(  0-C , 20-H ) :   0.9313 
B(  1-C ,  2-H ) :   0.8554 B(  1-C ,  3-C ) :   1.0052 B(  1-C ,  4-C ) :   0.0635 
B(  1-C , 12-C ) :   0.0797 B(  1-C , 15-C ) :   1.0028 B(  1-C , 16-O ) :   0.0963 
B(  1-C , 17-O ) :   0.0798 B(  3-C ,  4-C ) :   1.3162 B(  3-C ,  5-C ) :   0.0864 
B(  3-C ,  6-C ) :   0.0649 B(  3-C , 11-C ) :   0.0885 B(  3-C , 12-C ) :   1.5317 
B(  3-C , 15-C ) :   0.0696 B(  4-C ,  5-C ) :   1.6162 B(  4-C ,  6-C ) :   0.0868 
B(  4-C , 11-C ) :   0.0694 B(  4-C , 12-C ) :   0.0822 B(  4-C , 21-H ) :   0.8734 
B(  5-C ,  6-C ) :   1.3097 B(  5-C ,  7-C ) :   0.0823 B(  5-C , 11-C ) :   0.0751 
B(  5-C , 12-C ) :   0.1152 B(  5-C , 22-H ) :   0.8808 B(  6-C ,  7-C ) :   1.3101 
B(  6-C ,  8-C ) :   0.0912 B(  6-C ,  9-C ) :   0.0670 B(  6-C , 10-C ) :   0.0744 
B(  6-C , 11-C ) :   1.2395 B(  6-C , 12-C ) :   0.0740 B(  7-C ,  8-C ) :   1.5032 
B(  7-C ,  9-C ) :   0.0845 B(  7-C , 10-C ) :   0.1061 B(  7-C , 11-C ) :   0.0748 
B(  7-C , 13-O ) :   0.1241 B(  7-C , 23-H ) :   0.8694 B(  8-C ,  9-C ) :   1.2893 
B(  8-C , 10-C ) :   0.0882 B(  8-C , 11-C ) :   0.0583 B(  8-C , 13-O ) :   1.2851 
B(  8-C , 14-C ) :   0.0685 B(  9-C , 10-C ) :   1.6437 B(  9-C , 11-C ) :   0.0874 
B(  9-C , 13-O ) :   0.0826 B(  9-C , 24-H ) :   0.8798 B( 10-C , 11-C ) :   1.2955 
B( 10-C , 12-C ) :   0.0819 B( 10-C , 25-H ) :   0.8810 B( 11-C , 12-C ) :   1.3223 
B( 12-C , 26-H ) :   0.8768 B( 13-O , 14-C ) :   1.1550 B( 14-C , 27-H ) :   0.9406 
B( 14-C , 28-H ) :   0.9493 B( 14-C , 29-H ) :   0.9406 B( 15-C , 16-O ) :   2.2359 
B( 15-C , 17-O ) :   1.4410 B( 16-O , 17-O ) :   0.2014 B( 17-O , 30-H ) :   0.8565 


------------------------------------------
LOEWDIN REDUCED ORBITAL POPULATIONS PER MO
-------------------------------------------
THRESHOLD FOR PRINTING IS 0.1%%
                      0         1         2         3         4         5   
                 -18.79775 -18.79734 -18.73276 -10.01145  -9.95967  -9.94679
                   2.00000   2.00000   2.00000   2.00000   2.00000   2.00000
                  --------  --------  --------  --------  --------  --------
 8 C  s               0.0       0.0       0.0       0.0      99.5       0.0
 9 C  py              0.0       0.0       0.0       0.0       0.1       0.0
13 O  s               0.0      99.9       0.0       0.0       0.0       0.0
13 O  px              0.0       0.0       0.0       0.0       0.1       0.0
13 O  py              0.0       0.0       0.0       0.0       0.0       0.1
14 C  s               0.0       0.0       0.0       0.0       0.0      99.7
15 C  s               0.0       0.0       0.0      99.3       0.0       0.0
16 O  s               0.0       0.0      99.9       0.0       0.0       0.0
16 O  py              0.0       0.0       0.0       0.2       0.0       0.0
17 O  s              99.9       0.0       0.0       0.0       0.0       0.0
17 O  pz              0.0       0.0       0.0       0.1       0.0       0.0

                      6         7         8         9        10        11   
                  -9.92019  -9.91218  -9.90844  -9.90514  -9.90179  -9.90066
                   2.00000   2.00000   2.00000   2.00000   2.00000   2.00000
                  --------  --------  --------  --------  --------  --------
 1 C  s              99.6       0.0       0.0       0.0       0.0       0.0
 3 C  s               0.0      99.5       0.0       0.0       0.0       0.0
 3 C  px              0.1       0.0       0.0       0.0       0.0       0.1
 4 C  py              0.0       0.1       0.0       0.0       0.0       0.0
 6 C  s               0.0       0.0      99.5       0.0       0.0       0.0
 6 C  py              0.0       0.0       0.0       0.1       0.0       0.0
 7 C  px              0.0       0.0       0.1       0.0       0.0       0.0
 9 C  s               0.0       0.0       0.0       0.0       0.3       0.0
 9 C  px              0.0       0.0       0.0       0.0       0.1       0.0
10 C  s               0.0       0.0       0.0       0.1      99.2       0.0
11 C  s               0.0       0.0       0.0      99.4       0.1       0.1
11 C  px              0.0       0.0       0.0       0.0       0.1       0.1
11 C  py              0.0       0.0       0.1       0.0       0.1       0.0
12 C  s               0.0       0.0       0.0       0.0       0.0      99.5
12 C  px              0.0       0.1       0.0       0.1       0.0       0.0

                     12        13        14        15        16        17   
                  -9.89833  -9.89755  -9.89623  -9.89533  -9.88250  -1.00212
                   2.00000   2.00000   2.00000   2.00000   2.00000   2.00000
                  --------  --------  --------  --------  --------  --------
 0 C  s               0.0       0.0       0.0       0.0      99.7       0.1
 0 C  pz              0.0       0.0       0.0       0.0       0.0       0.1
 1 C  s               0.0       0.0       0.0       0.0       0.0       1.2
 1 C  pz              0.0       0.0       0.0       0.0       0.1       1.3
 1 C  px              0.0       0.0       0.0       0.0       0.0       0.4
 1 C  py              0.0       0.0       0.0       0.0       0.0       0.3
 2 H  s               0.0       0.0       0.0       0.0       0.0       0.2
 3 C  px              0.0       0.0       0.0       0.0       0.0       0.2
 3 C  py              0.0       0.0       0.1       0.0       0.0       0.0
 4 C  s               0.0       1.7      97.9       0.0       0.0       0.0
 4 C  px              0.0       0.1       0.0       0.0       0.0       0.0
 5 C  s               0.0      97.8       1.7       0.0       0.0       0.0
 5 C  px              0.0       0.0       0.1       0.0       0.0       0.0
 6 C  px              0.0       0.1       0.0       0.1       0.0       0.0
 7 C  s               0.0       0.0       0.0      99.5       0.0       0.0
 8 C  py              0.1       0.0       0.0       0.1       0.0       0.0
 9 C  s              99.3       0.0       0.0       0.0       0.0       0.0
10 C  s               0.3       0.0       0.0       0.0       0.0       0.0
10 C  px              0.1       0.0       0.0       0.0       0.0       0.0
15 C  s               0.0       0.0       0.0       0.0       0.0      19.9
15 C  pz              0.0       0.0       0.0       0.0       0.0       4.9
15 C  px              0.0       0.0       0.0       0.0       0.0       0.2
15 C  dz2             0.0       0.0       0.0       0.0       0.0       0.2
15 C  dyz             0.0       0.0       0.0       0.0       0.0       0.5
15 C  dx2y2           0.0       0.0       0.0       0.0       0.0       0.1
15 C  dxy             0.0       0.0       0.0       0.0       0.0       0.3
16 O  s               0.0       0.0       0.0       0.0       0.0      11.2
16 O  pz              0.0       0.0       0.0       0.0       0.0       0.2
16 O  px              0.0       0.0       0.0       0.0       0.0       0.7
16 O  py              0.0       0.0       0.0       0.0       0.0       1.8
17 O  s               0.0       0.0       0.0       0.0       0.0      44.5
17 O  pz              0.0       0.0       0.0       0.0       0.0       3.0
17 O  px              0.0       0.0       0.0       0.0       0.0       0.2
30 H  s               0.0       0.0       0.0       0.0       0.0       7.8

                     18        19        20        21        22        23   
                  -0.97720  -0.91411  -0.80262  -0.76312  -0.72246  -0.70146
                   2.00000   2.00000   2.00000   2.00000   2.00000   2.00000
                  --------  --------  --------  --------  --------  --------
 0 C  s               0.0       0.1       0.3       2.7       7.2       1.0
 0 C  pz              0.0       0.1       0.1       0.8       1.3       0.1
 0 C  px              0.0       0.0       0.1       0.2       0.2       0.0
 0 C  py              0.0       0.0       0.0       0.1       0.1       0.0
 1 C  s               0.0       0.2       1.8       9.3      14.1       1.1
 1 C  pz              0.0       0.0       0.0       0.0       0.2       0.1
 1 C  px              0.0       0.2       0.7       1.0       0.0       0.2
 1 C  py              0.0       0.4       0.0       0.2       0.1       0.1
 2 H  s               0.0       0.0       0.3       1.7       2.9       0.2
 3 C  s               0.0       0.0       7.6      13.2       1.1       0.1
 3 C  pz              0.0       0.0       0.0       0.0       0.1       0.0
 3 C  px              0.0       0.0       0.8       0.2       5.0       1.5
 3 C  py              0.0       0.0       0.0       0.0       0.8       2.4
 3 C  dz2             0.0       0.0       0.1       0.1       0.0       0.0
 4 C  s               0.0       0.0       5.9       6.3       1.9       2.3
 4 C  px              0.0       0.0       0.7       0.1       3.0       0.5
 4 C  py              0.0       0.0       0.9       1.6       0.4       0.4
 5 C  s               0.0       0.0       6.9       0.9       8.4       5.9
 5 C  px              0.0       0.0       0.0       1.8       0.0       0.1
 5 C  py              0.0       0.0       1.8       0.0       0.6       0.0
 6 C  s               0.0       0.0      13.4       1.2       5.1       2.9
 6 C  px              0.1       0.0       0.1       2.7       1.9       1.1
 6 C  py              0.0       0.0       0.5       0.3       0.6       6.2
 6 C  dz2             0.0       0.0       0.2       0.0       0.1       0.0
 6 C  dx2y2           0.0       0.0       0.0       0.0       0.0       0.2
 7 C  s               0.8       0.0       5.5       4.7       0.0       9.8
 7 C  px              0.9       0.0       1.0       0.0       2.0       0.0
 7 C  py              0.4       0.0       0.8       1.3       0.6       0.1
 8 C  s               9.5       0.0       2.7       5.9       3.8       4.1
 8 C  px              8.2       0.0       2.1       2.4       0.2       0.8
 8 C  py              0.3       0.0       0.1       0.4       1.6       1.4
 8 C  dz2             0.3       0.0       0.0       0.1       0.0       0.0
 8 C  dx2y2           0.6       0.0       0.0       0.0       0.0       0.0
 8 C  dxy             0.1       0.0       0.0       0.0       0.0       0.1
 9 C  s               0.7       0.0       3.7       7.5       6.8       0.4
 9 C  px              0.3       0.0       0.9       0.5       0.0       2.2
 9 C  py              0.9       0.0       0.3       0.7       0.3       1.7
 9 C  dx2y2           0.0       0.0       0.0       0.0       0.0       0.1
10 C  s               0.1       0.0       6.1       4.9       2.2       9.4
10 C  px              0.1       0.0       0.1       0.9       1.6       1.1
10 C  py              0.0       0.0       1.6       0.6       0.0       0.2
11 C  s               0.0       0.0      14.1       0.7       0.6       9.9
11 C  px              0.0       0.0       0.0       4.1       0.6       0.5
11 C  py              0.0       0.0       0.5       0.0       2.1       4.8
11 C  dz2             0.0       0.0       0.2       0.0       0.0       0.1
12 C  s               0.0       0.0       8.4       3.2       0.0       8.9
12 C  px              0.0       0.0       0.4       2.1       0.9       1.7
12 C  py              0.0       0.0       1.3       1.1       0.1       0.1
13 O  s              54.8       0.0       0.4       0.7       0.2       0.3
13 O  px              1.5       0.0       0.3       1.0       1.5       1.8
13 O  py              1.4       0.0       0.2       0.7       1.2       0.7
14 C  s               7.5       0.0       0.2       1.0       1.8       1.8
14 C  px              1.2       0.0       0.0       0.0       0.0       0.1
14 C  py              6.2       0.0       0.1       0.2       0.1       0.1
14 C  dz2             0.2       0.0       0.0       0.0       0.0       0.0
14 C  dx2y2           0.3       0.0       0.0       0.0       0.0       0.0
14 C  dxy             0.3       0.0       0.0       0.0       0.0       0.0
15 C  s               0.0       5.0       0.1       0.4       0.8       0.1
15 C  pz              0.0       5.3       0.2       1.3       2.4       0.3
15 C  px              0.0       4.7       0.2       1.2       1.4       0.2
15 C  py              0.0      15.0       0.1       0.7       1.4       0.1
15 C  dz2             0.0       0.9       0.0       0.0       0.0       0.0
15 C  dx2y2           0.0       0.1       0.0       0.0       0.0       0.0
15 C  dxy             0.0       0.8       0.0       0.0       0.0       0.0
16 O  s               0.0      40.8       0.1       0.4       0.6       0.1
16 O  px              0.0       1.4       0.0       0.0       0.0       0.0
16 O  py              0.0       3.1       0.0       0.0       0.0       0.0
16 O  dxy             0.0       0.1       0.0       0.0       0.0       0.0
17 O  s               0.0      15.6       0.1       0.3       0.4       0.0
17 O  pz              0.0       0.2       0.0       0.0       0.1       0.0
17 O  px              0.0       0.6       0.0       0.0       0.0       0.0
17 O  py              0.0       1.2       0.0       0.0       0.0       0.0
18 H  s               0.0       0.0       0.1       0.5       1.3       0.2
19 H  s               0.0       0.0       0.0       0.4       1.3       0.2
20 H  s               0.0       0.1       0.1       0.5       1.3       0.2
21 H  s               0.0       0.0       0.7       1.0       0.2       0.5
22 H  s               0.0       0.0       0.9       0.1       1.4       1.4
23 H  s               0.1       0.0       0.7       0.5       0.0       2.0
24 H  s               0.2       0.0       0.4       1.0       1.2       0.1
25 H  s               0.0       0.0       0.8       0.6       0.4       2.1
26 H  s               0.0       0.0       1.2       0.5       0.0       2.0
27 H  s               0.9       0.0       0.0       0.1       0.3       0.2
28 H  s               0.9       0.0       0.0       0.2       0.4       0.5
29 H  s               0.9       0.0       0.0       0.1       0.3       0.2
30 H  s               0.0       3.7       0.0       0.0       0.1       0.0

                     24        25        26        27        28        29   
                  -0.67652  -0.65447  -0.63163  -0.59376  -0.56810  -0.56358
                   2.00000   2.00000   2.00000   2.00000   2.00000   2.00000
                  --------  --------  --------  --------  --------  --------
 0 C  s               5.1       0.6       7.7      15.9       0.1       4.0
 0 C  pz              0.3       0.0       0.0       1.6       0.0       1.0
 0 C  px              0.0       0.0       0.1       0.1       0.0       0.1
 0 C  py              0.1       0.0       0.0       0.1       0.2       0.0
 1 C  s               3.6       0.1       0.3       3.4       0.3       1.2
 1 C  pz              0.5       0.1       1.7      11.1       0.0       0.8
 1 C  px              1.4       0.4       3.1       0.0       0.0       1.1
 1 C  py              0.0       0.2       0.0       0.1       1.5       0.1
 1 C  dz2             0.0       0.0       0.1       0.0       0.0       0.1
 1 C  dxz             0.0       0.0       0.0       0.1       0.0       0.0
 1 C  dyz             0.0       0.0       0.0       0.1       0.0       0.0
 2 H  s               0.9       0.0       0.1       1.2       0.7       0.6
 3 C  s               2.5       0.7       5.8       0.0       0.0       0.6
 3 C  pz              0.1       0.0       0.1       0.3       0.0       0.0
 3 C  px              2.2       0.8       0.1       2.8       0.3       2.0
 3 C  py              1.0       6.0       0.0       0.0       9.4       0.0
 3 C  dxy             0.0       0.2       0.0       0.0       0.1       0.0
 4 C  s               6.6       6.7       1.0       0.4       7.1       0.1
 4 C  px              0.0       0.7       1.7       0.0       3.1       0.5
 4 C  py              0.2       1.2       1.4       0.0       0.1       0.2
 4 C  dx2y2           0.0       0.1       0.1       0.0       0.0       0.0
 5 C  s               0.5       6.0       2.3       0.1       2.1       0.1
 5 C  px              4.4       2.1       0.9       0.8       5.7       0.6
 5 C  py              0.1       0.1       0.1       0.0       0.1       0.0
 6 C  s               5.0       0.3       2.0       1.0       1.6       0.8
 6 C  px              1.7       1.7       3.9       0.0       2.1       0.3
 6 C  py              0.1       0.7       0.1       0.0       3.1       0.0
 6 C  dx2y2           0.0       0.0       0.1       0.0       0.0       0.0
 6 C  dxy             0.0       0.1       0.0       0.0       0.0       0.0
 7 C  s               3.6       4.2       4.9       0.2       1.7       0.0
 7 C  px              1.8       0.2       2.0       1.2       2.0       1.5
 7 C  py              0.1       0.1       0.2       0.1       0.1       0.1
 8 C  s               2.6       1.5       1.2       0.7       0.0       1.0
 8 C  px              2.2       0.1       6.7       0.5       0.1       0.1
 8 C  py              3.4       4.0       0.7       0.0       9.1       0.0
 8 C  dx2y2           0.0       0.1       0.3       0.0       0.1       0.0
 8 C  dxy             0.0       0.1       0.0       0.0       0.0       0.0
 9 C  s               3.1       7.4       1.1       0.1       7.8       0.1
 9 C  px              1.0       2.0       0.1       0.1       3.1       0.6
 9 C  py              0.2       1.6       0.2       0.2       0.1       0.5
10 C  s               0.0       7.9       0.1       0.3       2.3       0.6
10 C  px              1.2       3.4       1.8       0.1       6.4       0.0
10 C  py              0.2       0.1       0.0       0.0       0.2       0.0
11 C  s               1.5       0.9       3.2       0.1       2.0       0.0
11 C  px              1.1       4.9       0.0       1.0       2.6       1.8
11 C  py              0.5       0.4       0.2       0.1       2.6       0.1
11 C  dxy             0.0       0.1       0.0       0.0       0.0       0.0
12 C  s               0.6       9.3       0.5       1.1       2.4       1.1
12 C  px              0.8       0.0       3.8       0.0       2.3       0.6
12 C  py              0.4       0.1       0.3       0.0       0.0       0.0
13 O  s               0.2       0.0       3.1       0.6       0.1       0.7
13 O  pz              0.1       0.0       0.0       0.0       0.0       0.0
13 O  px              5.2       2.8       1.3       0.0       0.3       0.3
13 O  py              5.6       1.1       3.5       0.1       0.3       0.0
13 O  dx2y2           0.1       0.1       0.0       0.0       0.0       0.0
14 C  s              10.7       4.7      11.1       0.9       1.6       0.9
14 C  px              0.0       0.2       0.1       0.0       0.6       0.0
14 C  py              0.1       0.0       1.1       0.4       0.3       0.9
15 C  s               0.3       0.0       0.0       6.1       0.0       2.3
15 C  pz              0.8       0.1       0.2       0.2       0.0       8.5
15 C  px              0.2       0.1       0.0       2.4       0.1       0.2
15 C  py              0.6       0.0       0.1       3.4       0.1       0.8
15 C  dz2             0.0       0.0       0.0       0.1       0.0       0.5
15 C  dxy             0.0       0.0       0.0       0.0       0.0       0.1
16 O  s               0.2       0.1       0.0       2.0       0.1       2.4
16 O  pz              0.0       0.0       0.0       0.1       0.0       1.5
16 O  px              0.0       0.0       0.0       0.3       0.0       0.1
16 O  py              0.0       0.0       0.0       0.6       0.0       0.7
17 O  s               0.1       0.0       0.0       2.1       0.0       0.1
17 O  pz              0.1       0.0       0.0       8.3       0.0      11.9
17 O  px              0.0       0.0       0.0       0.7       0.0       6.2
17 O  py              0.0       0.0       0.0       4.9       0.2      20.6
17 O  dz2             0.0       0.0       0.0       0.2       0.0       0.3
17 O  dxy             0.0       0.0       0.0       0.0       0.0       0.1
18 H  s               1.0       0.1       1.8       5.4       0.0       1.5
19 H  s               1.1       0.1       2.1       4.7       0.0       1.5
20 H  s               0.9       0.2       1.7       4.9       0.1       1.1
21 H  s               1.2       1.8       0.3       0.1       3.9       0.0
22 H  s               0.0       1.4       0.5       0.0       0.8       0.0
23 H  s               1.0       0.8       1.5       0.1       0.4       0.0
24 H  s               1.0       1.6       0.1       0.0       4.2       0.0
25 H  s               0.0       1.6       0.0       0.1       0.8       0.2
26 H  s               0.1       2.2       0.1       0.2       0.9       0.3
27 H  s               2.4       0.9       3.5       0.4       0.5       0.6
28 H  s               2.7       1.5       3.2       0.3       1.0       0.3
29 H  s               2.4       0.9       3.5       0.4       0.5       0.6
30 H  s               0.0       0.0       0.0       4.2       0.1      11.7

[...]
14 C  dz2             0.0       0.3       0.0       0.5       0.5       0.0
14 C  dx2y2           0.0       0.5       0.0       2.7       1.7       0.0
14 C  dxy             0.0       1.0       0.0       0.1       0.3       0.0
15 C  s               0.0       0.0       4.7       0.0       0.0       0.7
15 C  pz              0.0       0.0       3.0       0.0       0.0       1.2
15 C  px              0.4       0.0       0.1       0.0       0.0       0.1
15 C  py              0.2       0.0       0.1       0.0       0.0       0.5
15 C  dz2             0.2       0.0       5.2       0.0       0.0       3.2
15 C  dxz             2.2       0.1       3.5       0.0       0.1       4.5
15 C  dyz             0.0       0.0       2.3       0.0       0.0      14.9
15 C  dx2y2          14.8       0.0       0.0       0.0       0.0       0.4
15 C  dxy             3.1       0.0       0.1       0.0       0.0       0.5
16 O  s               0.0       0.0       0.4       0.0       0.0       0.2
16 O  pz              0.0       0.0       0.4       0.0       0.0       0.9
16 O  px              0.8       0.0       0.0       0.0       0.0       0.0
16 O  py              0.3       0.0       0.1       0.0       0.0       0.1
16 O  dz2             0.0       0.0       0.8       0.0       0.0       0.7
16 O  dxz             1.7       0.0       3.9       0.0       0.0       7.4
16 O  dyz             0.3       0.1      13.4       0.1       0.1      19.9
16 O  dx2y2          56.4       0.0       0.7       0.0       0.0       0.7
16 O  dxy             9.1       0.0       1.2       0.0       0.0       0.4
17 O  s               0.0       0.0       4.4       0.0       0.0       1.4
17 O  pz              0.0       0.0       1.4       0.0       0.0       2.1
17 O  px              0.0       0.0       0.1       0.0       0.0       0.0
17 O  py              0.0       0.0       0.9       0.0       0.0       0.4
17 O  dz2             0.3       0.0       7.0       0.0       0.0      29.7
17 O  dxz             5.0       0.1       5.1       0.0       0.0       0.2
17 O  dyz             3.3       0.0      31.0       0.1       0.0       4.3
17 O  dx2y2           0.0       0.0       3.5       0.0       0.0       0.0
17 O  dxy             0.2       0.0       3.3       0.0       0.0       0.9
21 H  s               0.0       0.1       0.0       0.1       0.3       0.0
22 H  s               0.0       0.0       0.0       0.1       0.3       0.0
23 H  s               0.0       0.2       0.0       0.0       0.0       0.0
24 H  s               0.0       0.1       0.0       0.0       0.0       0.0
25 H  s               0.0       0.3       0.0       0.0       0.0       0.0
26 H  s               0.0       0.0       0.0       0.1       0.3       0.0
30 H  s               0.0       0.0       0.2       0.0       0.0       0.5

                    264       265   
                   3.49310   3.53558
                   0.00000   0.00000
                  --------  --------
 1 C  py              0.0       0.1
 1 C  dz2             0.0       0.3
 3 C  dx2y2           0.7       0.0
 4 C  dxy             0.5       0.0
 5 C  s               0.2       0.0
 5 C  px              0.1       0.0
 5 C  py              0.1       0.0
 5 C  dx2y2           0.2       0.0
 5 C  dxy             0.9       0.0
 6 C  px              0.1       0.0
 6 C  dx2y2           0.2       0.0
 6 C  dxy             6.1       0.0
 7 C  s               0.4       0.0
 7 C  dx2y2           5.0       0.0
 7 C  dxy             1.4       0.0
 8 C  s               0.4       0.0
 8 C  px              2.1       0.0
 8 C  py              0.1       0.0
 8 C  dz2             0.1       0.0
 8 C  dxz             0.2       0.0
 8 C  dx2y2          13.2       0.0
 8 C  dxy             2.6       0.0
 9 C  s               0.5       0.0
 9 C  dz2             0.2       0.0
 9 C  dxy             6.3       0.0
10 C  s               0.4       0.0
10 C  dz2             0.1       0.0
10 C  dx2y2           2.9       0.0
10 C  dxy             1.7       0.0
11 C  px              0.2       0.0
11 C  dx2y2           3.3       0.0
11 C  dxy             2.4       0.0
12 C  s               0.2       0.0
12 C  px              0.2       0.0
12 C  dx2y2           1.1       0.0
13 O  s               0.6       0.0
13 O  px              2.6       0.0
13 O  py              1.0       0.0
13 O  dz2             1.1       0.0
13 O  dxz             0.4       0.0
13 O  dx2y2          34.3       0.0
14 C  s               0.5       0.0
14 C  px              0.2       0.0
14 C  py              0.5       0.0
14 C  dz2             0.2       0.0
14 C  dx2y2           0.2       0.0
14 C  dxy             1.1       0.0
15 C  s               0.0       5.8
15 C  pz              0.0       0.4
15 C  px              0.0       2.1
15 C  py              0.0       4.9
15 C  dz2             0.0       2.4
15 C  dxz             0.1       0.6
15 C  dyz             0.2       0.8
15 C  dx2y2           0.0       0.8
15 C  dxy             0.0       3.3
16 O  s               0.0       5.8
16 O  px              0.0       1.3
16 O  py              0.0       2.9
16 O  dz2             0.1      16.3
16 O  dxz             0.1       0.6
16 O  dyz             0.2       1.1
16 O  dx2y2           0.0       6.7
16 O  dxy             0.1      39.8
17 O  py              0.0       0.2
17 O  dz2             0.4       0.5
17 O  dxz             0.0       1.1
17 O  dyz             0.1       1.3
17 O  dx2y2           0.0       0.2
23 H  s               0.3       0.0
24 H  s               0.3       0.0
25 H  s               0.2       0.0


                      *****************************
                      * MAYER POPULATION ANALYSIS *
                      *****************************

  NA   - Mulliken gross atomic population
  ZA   - Total nuclear charge
  QA   - Mulliken gross atomic charge
  VA   - Mayer's total valence
  BVA  - Mayer's bonded valence
  FA   - Mayer's free valence

  ATOM       NA         ZA         QA         VA         BVA        FA
  0 C      6.2092     6.0000    -0.2092     3.9759     3.9759     0.0000
  1 C      6.1996     6.0000    -0.1996     3.8909     3.8909     0.0000
  2 H      0.9329     1.0000     0.0671     0.9592     0.9592    -0.0000
  3 C      5.8998     6.0000     0.1002     3.8712     3.8712    -0.0000
  4 C      6.0930     6.0000    -0.0930     3.7810     3.7810    -0.0000
  5 C      6.1245     6.0000    -0.1245     3.7590     3.7590    -0.0000
  6 C      5.8297     6.0000     0.1703     3.8078     3.8078    -0.0000
  7 C      6.2990     6.0000    -0.2990     3.6866     3.6866     0.0000
  8 C      5.7053     6.0000     0.2947     3.8611     3.8611     0.0000
  9 C      6.0919     6.0000    -0.0919     3.7794     3.7794     0.0000
 10 C      6.1299     6.0000    -0.1299     3.7299     3.7299    -0.0000
 11 C      5.8203     6.0000     0.1797     3.7796     3.7796     0.0000
 12 C      6.2299     6.0000    -0.2299     3.7445     3.7445    -0.0000
 13 O      8.2667     8.0000    -0.2667     2.2729     2.2729    -0.0000
 14 C      6.1154     6.0000    -0.1154     3.8912     3.8912    -0.0000
 15 C      5.8497     6.0000     0.1503     4.3596     4.3596    -0.0000
 16 O      8.1756     8.0000    -0.1756     2.3271     2.3271     0.0000
 17 O      8.2812     8.0000    -0.2812     2.1832     2.1832    -0.0000
 18 H      0.8972     1.0000     0.1028     0.9565     0.9565     0.0000
 19 H      0.8898     1.0000     0.1102     0.9566     0.9566     0.0000
 20 H      0.8797     1.0000     0.1203     0.9791     0.9791     0.0000
 21 H      0.9308     1.0000     0.0692     0.9762     0.9762    -0.0000
 22 H      0.9616     1.0000     0.0384     0.9586     0.9586    -0.0000
 23 H      0.9729     1.0000     0.0271     0.9788     0.9788    -0.0000
 24 H      0.9515     1.0000     0.0485     0.9694     0.9694     0.0000
 25 H      0.9595     1.0000     0.0405     0.9579     0.9579    -0.0000
 26 H      0.9787     1.0000     0.0213     0.9679     0.9679     0.0000
 27 H      0.8866     1.0000     0.1134     0.9519     0.9519    -0.0000
 28 H      0.8717     1.0000     0.1283     0.9540     0.9540    -0.0000
 29 H      0.8865     1.0000     0.1135     0.9519     0.9519    -0.0000
 30 H      0.6798     1.0000     0.3202     0.8839     0.8839    -0.0000

  Mayer bond orders larger than 0.100000
B(  0-C ,  1-C ) :   1.1055 B(  0-C , 18-H ) :   0.9439 B(  0-C , 19-H ) :   0.9472 
B(  0-C , 20-H ) :   0.9390 B(  1-C ,  2-H ) :   0.8680 B(  1-C ,  3-C ) :   0.9949 
B(  1-C , 15-C ) :   0.9332 B(  3-C ,  4-C ) :   1.2639 B(  3-C , 12-C ) :   1.4314 
B(  4-C ,  5-C ) :   1.4474 B(  4-C , 21-H ) :   0.9463 B(  5-C ,  6-C ) :   1.2260 
B(  5-C , 22-H ) :   0.9667 B(  6-C ,  7-C ) :   1.2039 B(  6-C , 11-C ) :   1.2572 
B(  7-C ,  8-C ) :   1.3327 B(  7-C , 23-H ) :   0.9647 B(  8-C ,  9-C ) :   1.2456 
B(  8-C , 13-O ) :   1.1435 B(  9-C , 10-C ) :   1.4590 B(  9-C , 24-H ) :   0.9614 
B( 10-C , 11-C ) :   1.2030 B( 10-C , 25-H ) :   0.9679 B( 11-C , 12-C ) :   1.2238 
B( 12-C , 26-H ) :   0.9671 B( 13-O , 14-C ) :   0.9861 B( 14-C , 27-H ) :   0.9415 
B( 14-C , 28-H ) :   0.9583 B( 14-C , 29-H ) :   0.9415 B( 15-C , 16-O ) :   2.1157 
B( 15-C , 17-O ) :   1.2369 B( 17-O , 30-H ) :   0.8237 

-------
TIMINGS
-------

Total SCF time: 0 days 0 hours 0 min 23 sec 

Total time                  ....      23.239 sec
Sum of individual times     ....      22.433 sec  ( 96.5%)

SCF preparation             ....       0.243 sec  (  1.0%)
Fock matrix formation       ....      20.744 sec  ( 89.3%)
  Startup                   ....       0.092 sec  (  0.4% of F)
  Split-RI-J                ....      10.633 sec  ( 51.3% of F)
  XC integration            ....       9.270 sec  ( 44.7% of F)
    Basis function eval.    ....       3.346 sec  ( 36.1% of XC)
    Density eval.           ....       1.624 sec  ( 17.5% of XC)
    XC-Functional eval.     ....       0.649 sec  (  7.0% of XC)
    XC-Potential eval.      ....       2.201 sec  ( 23.7% of XC)
Diagonalization             ....       0.000 sec  (  0.0%)
Density matrix formation    ....       0.322 sec  (  1.4%)
Total Energy calculation    ....       0.049 sec  (  0.2%)
Population analysis         ....       0.193 sec  (  0.8%)
Orbital Transformation      ....       0.091 sec  (  0.4%)
Orbital Orthonormalization  ....       0.000 sec  (  0.0%)
DIIS solution               ....       0.528 sec  (  2.3%)
  MO trafo                  ....       0.000 sec  (  0.0 % of DIIS)
  Orb grad                  ....       0.000 sec  (  0.0 % of DIIS)
  Energy W gradient         ....       0.000 sec  (  0.0 % of DIIS)
  DIIS error                ....       0.024 sec  (  4.6 % of DIIS)
  DIIS work                 ....       0.425 sec  ( 80.6 % of DIIS)
  Form Q                    ....       0.000 sec  (  0.0 % of DIIS)
  Form QpQm                 ....       0.000 sec  (  0.0 % of DIIS)
  Exp/Cayley                ....       0.000 sec  (  0.0 % of DIIS)
  Orb update                ....       0.000 sec  (  0.0 % of DIIS)
  Wake-sleep                ....       0.032 sec  (  6.1 % of DIIS)
SOSCF solution              ....       0.264 sec  (  1.1%)
  MO trafo                  ....       0.101 sec  ( 38.1 % of SOSCF)
  Orb grad                  ....       0.004 sec  (  1.6 % of SOSCF)
  Rot update                ....       0.081 sec  ( 30.6 % of SOSCF)
  Step                      ....       0.078 sec  ( 29.5 % of SOSCF)
Finished LeanSCF after  23.3 sec

Maximum memory used throughout the entire LEANSCF-calculation: 25.2 MB


-------------------------------------------------------------------------------
                          DFT DISPERSION CORRECTION                            
                                                                               
                                DFTD4 V3.4.0                                   
-------------------------------------------------------------------------------
The PBE functional is recognized
Active option DFTDOPT                   ...         5   

-------------------------   ----------------
Dispersion correction           -0.039095466
-------------------------   ----------------

------------------   -----------------
gCP correction             0.132787375
------------------   -----------------

-------------------------   --------------------
FINAL SINGLE POINT ENERGY      -765.989916410296
-------------------------   --------------------


------------------------------------------------------------------------------
                              ORCA PROPERTY CALCULATIONS
------------------------------------------------------------------------------

GBWName                                 ... sp.gbw
Number of atoms                         ...     31
Number of basis functions               ...    266
Max core memory                         ...   1024 MB

Electric properties:
Dipole moment                           ... YES
Quadrupole moment                       ...  NO
Static polarizability (Dipole/Dipole)   ...  NO
Static polarizability (Dipole/Quad.)    ...  NO
Static polarizability (Quad./Quad.)     ...  NO
Static polarizability (Velocity)        ...  NO

Atomic electric properties:
Dipole moment                           ...  NO
Quadrupole moment                       ...  NO
Static polarizability                   ...  NO

Choice of electric origin               ... Center of mass
Position of electric origin             ...     0.000015     0.000002     0.000012

General magnetic properties:
Magnetizability                         ...  NO

EPR properties:
g-Tensor (aka g-matrix)                 ...  NO
Zero-Field splitting spin-orbit         ...  NO
Zero-field splitting spin-spin          ...  NO
Hyperfine couplings                     ...  NO (   0 nuclei)
Quadrupole couplings                    ...  NO (   0 nuclei)
Contact density                         ...  NO (   0 nuclei)

NMR properties:
Chemical shifts                         ...  NO (   0 nuclei)
Spin-rotation constants                 ...  NO (   0 nuclei)
Spin-spin couplings                     ...  NO (   0 nuclei,    0 pairs)

Choice of magnetic origin               ... GIAO
Position of magnetic origin             ...     0.000000     0.000000     0.000000

Properties with geometric perturbations:
SCF Hessian                             ...  NO
IR spectrum                             ...  NO
VCD spectrum                            ...  NO
X-ray spectroscopy properties:
SCF XES/XAS/RIXS spectra                ...  NO


-------------
DIPOLE MOMENT
-------------

Method             : SCF
Type of density    : Electron Density
Multiplicity       :   1
Irrep              :   0
Energy             :  -766.0836083193166814 Eh
Relativity type    : 
Basis              : AO
                                X                 Y                 Z
Electronic contribution:     -2.732908134       1.598563116      -4.444890261
Nuclear contribution   :      4.140214887      -0.898359306       4.611161927
                        -----------------------------------------
Total Dipole Moment    :      1.407306753       0.700203810       0.166271666
                        -----------------------------------------
Magnitude (a.u.)       :      1.580646683
Magnitude (Debye)      :      4.017684579



--------------------
Rotational spectrum 
--------------------
 
Rotational constants in cm-1:             0.044564             0.006927             0.006602 
Rotational constants in MHz :          1336.008724           207.655152           197.916595 

Dipole components along the rotational axes: 
x,y,z [a.u.] :     1.411607     0.709100     0.054659 
x,y,z [Debye]:     3.588019     1.802390     0.138932 

 

Dipole moment calculation done in   0.0 sec 

Maximum memory used throughout the entire PROP-calculation: 17.1 MB

--------------------------------
SUGGESTED CITATIONS FOR THIS RUN
--------------------------------

Below you find a list of papers that are relevant to this ORCA run
We neither can nor want to force you to cite these papers, but we appreciate if you do
You receive ORCA, which is the product of decades of hard work by many enthusiastic individuals, for free
The only thing we kindly ask in return is that you cite our papers,
We deeply appreciate it, if you show your appreciation for ORCA by not just citing the generic ORCA reference.

Please note that relegating all ORCA citations to the supporting information does *not* help us.
SI sections are not indexed - citations you put there will not count into any citation statistics
But we need these citations in order to attract the funding resources that allow us to do what we are doing

Therefore, if you are a happy ORCA user, please consider citing a few of the papers listed below in the main body of your paper

In addition to the list printed below, the program has created the file sp.bibtex that contains the list in bibtex format
You can import this file easily into all common literature databanks and citation aid programs


List of essential papers. We consider these as the minimum necessary citations

  1. Neese,F.
     Software update: the ORCA program system, version 5.0
     WIRES Comput. Molec. Sci., 2022 12(1)e1606
     doi.org/10.1002/wcms.1606

List of papers to cite with high priority. The work reported in these papers was absolutely
necessary for this run to complete.
Our perspective: the developers of density functionals and basis sets usually get cited in chemistry papers
Good! But without the algorithms to do something with them, the functionals or basis sets would not do anything.
Hence, in our opinion, the algorithm design and method developments papers are equally worthy of getting cited

  1. Neese,F.
     An improvement of the resolution of the identity approximation for the formation of the Coulomb matrix
     J. Comp. Chem., 2003 24(14)1740-1747
     doi.org/10.1002/jcc.10318
  2. Neese,F.
     The SHARK Integral Generation and Digestion System
     J. Comp. Chem., 2022  1-16
     doi.org/10.1002/jcc.26942
  3. Caldeweyher,E.; Bannwarth,C.; Grimme,S.
     Extension of the D3 dispersion coefficient model
     J. Chem. Phys., 2017 147 034112-XXXX
     doi.org/10.1063/1.4993215
  4. Caldeweyher,E.; Ehlert,S.; Hansen,A.; Neugebauer,H.; Spicher,S.; Bannwarth,C.; Grimme,S.
     A generally applicable atomic-charge dependent London dispersion correction
     J. Chem. Phys., 2019 150 154122-XXXX
     doi.org/10.1063/1.5090222
  5. Caldeweyher,E.; Mewes,J.; Ehlert,S.; Grimme,S.
     Extension and evaluation of the D4 London-dispersion model for periodic systems
     Phys. Chem. Chem. Phys., 2020 22(16)8499-8512
     doi.org/10.1039/D0CP00502A

List of suggested additional citations. These are papers that are important in the 'surrounding' of 
of this run, or papers that preceded the highly important papers. If you like your results we are grateful for a citation.

  1. Neese,F.
     The ORCA program system
     WIRES Comput. Molec. Sci., 2012 2(1)73-78
     doi.org/10.1002/wcms.81
  2. Neese,F.
     Software update: the ORCA program system, version 4.0
     WIRES Comput. Molec. Sci., 2018 8(1)1-6
     doi.org/10.1002/wcms.1327
  3. Neese,F.; Wennmohs,F.; Becker,U.; Riplinger,C.
     The ORCA quantum chemistry program package
     J. Chem. Phys., 2020 152 Art. No. L224108
     doi.org/10.1063/5.0004608

List of optional additional citations

  1. Neese,F.
     Approximate second-order SCF convergence for spin unrestricted wavefunctions
     Chem. Phys. Lett., 2000 325(1-3)93-98
     doi.org/10.1016/s0009-2614(00)00662-x

Timings for individual modules:

Sum of individual times          ...       27.068 sec (=   0.451 min)
Startup calculation              ...        1.617 sec (=   0.027 min)   6.0 %
SCF iterations                   ...       25.323 sec (=   0.422 min)  93.6 %
Property calculations            ...        0.129 sec (=   0.002 min)   0.5 %
                             ****ORCA TERMINATED NORMALLY****
TOTAL RUN TIME: 0 days 0 hours 0 minutes 27 seconds 992 msec
