
                                 *****************
                                 * O   R   C   A *
                                 *****************

                                            #,                                       
                                            ###                                      
                                            ####                                     
                                            #####                                    
                                            ######                                   
                                           ########,                                 
                                     ,,################,,,,,                         
                               ,,#################################,,                 
                          ,,##########################################,,             
                       ,#########################################, ''#####,          
                    ,#############################################,,   '####,        
                  ,##################################################,,,,####,       
                ,###########''''           ''''###############################       
              ,#####''   ,,,,##########,,,,          '''####'''          '####       
            ,##' ,,,,###########################,,,                        '##       
           ' ,,###''''                  '''############,,,                           
         ,,##''                                '''############,,,,        ,,,,,,###''
      ,#''                                            '''#######################'''  
     '                                                          ''''####''''         
             ,#######,   #######,   ,#######,      ##                                
            ,#'     '#,  ##    ##  ,#'     '#,    #''#        ,####,   ,####,        
            ##       ##  ##   ,#'  ##            #'  '#       #'       #'  '#        
            ##       ##  #######   ##           ,######,      #####,   #    #        
            '#,     ,#'  ##    ##  '#,     ,#' ,#      #,     #,   #   #,  ,#        
             '#######'   ##     ##  '#######'  #'      '#     '####' # '####'        



                #########################################################
                #                        -***-                          #
                #          Department of theory and spectroscopy        #
                #                                                       #
                #                      Frank Neese                      #
                #                                                       #
                #     Directorship, Architecture, Infrastructure        #
                #                    SHARK, DRIVERS                     #
                #        Core code/Algorithms in most modules           #
                #                                                       #
                #        Max Planck Institute fuer Kohlenforschung      #
                #                Kaiser Wilhelm Platz 1                 #
                #                 D-45470 Muelheim/Ruhr                 #
                #                      Germany                          #
                #                                                       #
                #                  All rights reserved                  #
                #                        -***-                          #
                #########################################################


                         Program Version 6.0.0  -   RELEASE  -


 With contributions from (in alphabetic order):
   Daniel Aravena         : Magnetic Suceptibility
   Michael Atanasov       : Ab Initio Ligand Field Theory (pilot matlab implementation)
   Alexander A. Auer      : GIAO ZORA, VPT2 properties, NMR spectrum
   Ute Becker             : All parallelization in ORCA, NUMFREQ, NUMCALC
   Giovanni Bistoni       : ED, misc. LED, open-shell LED, HFLD
   Martin Brehm           : Molecular dynamics
   Dmytro Bykov           : pre 5.0 version of the SCF Hessian
   Marcos Casanova-Páez   : Triplet and SCS-CIS(D). UHF-(DLPNO)-IP/EA/STEOM-CCSD. UHF-CVS-IP/STEOM-CCSD
   Vijay G. Chilkuri      : MRCI spin determinant printing, contributions to CSF-ICE
   Pauline Colinet        : FMM embedding
   Dipayan Datta          : RHF DLPNO-CCSD density
   Achintya Kumar Dutta   : EOM-CC, STEOM-CC
   Nicolas Foglia         : Exact transition moments, OPA infrastructure, MCD improvements
   Dmitry Ganyushin       : Spin-Orbit,Spin-Spin,Magnetic field MRCI
   Miquel Garcia          : C-PCM and meta-GGA Hessian, CCSD/C-PCM, Gaussian charge scheme
   Tiago L. C. Gouveia    : GS-ROHF, GS-ROCIS
   Yang Guo               : DLPNO-NEVPT2, F12-NEVPT2, CIM, IAO-localization
   Andreas Hansen         : Spin unrestricted coupled pair/coupled cluster methods
   Ingolf Harden          : AUTO-CI MPn and infrastructure 
   Benjamin Helmich-Paris : MC-RPA, TRAH-(SCF,CASSCF), AVAS, COSX integrals, SCF dyn. polar.
   Lee Huntington         : MR-EOM, pCC
   Robert Izsak           : Overlap fitted RIJCOSX, COSX-SCS-MP3, EOM
   Riya Kayal             : Wick's Theorem for AUTO-CI, AUTO-CI UHF-CCSDT
   Emily Kempfer          : AUTO-CI, RHF CISDT and CCSDT
   Christian Kollmar      : KDIIS, OOCD, Brueckner-CCSD(T), CCSD density, CASPT2, CASPT2-K, improved NEVPT2
   Axel Koslowski         : Symmetry handling
   Simone Kossmann        : Meta GGA functionals, TD-DFT gradient, OOMP2, (MP2 Hessian; deprecated post 5.0)
   Lucas Lang             : DCDCAS
   Marvin Lechner         : AUTO-CI (C++ implementation), FIC-MRCC
   Spencer Leger          : CASSCF response
   Dagmar Lenk            : GEPOL surface, SMD, ORCA-2-JSON
   Dimitrios Liakos       : Extrapolation schemes; Compound Job, initial MDCI parallelization
   Dimitrios Manganas     : Further ROCIS development; embedding schemes. LFT, Crystal Embedding
   Dimitrios Pantazis     : SARC Basis sets
   Anastasios Papadopoulos: AUTO-CI, single reference methods and gradients
   Taras Petrenko         : pre 6.0 DFT Hessian and TD-DFT gradient, (ASA, deprecated), ECA, 1-Electron XAS/XES, NRVS
   Peter Pinski           : DLPNO-MP2, DLPNO-MP2 Gradient
   Christoph Reimann      : Effective Core Potentials
   Marius Retegan         : Local ZFS, SOC
   Christoph Riplinger    : Optimizer, TS searches, QM/MM, DLPNO-CCSD(T), (RO)-DLPNO pert. Triples
   Michael Roemelt        : Original ROCIS implementation
   Masaaki Saitow         : Open-shell DLPNO-CCSD energy and density
   Barbara Sandhoefer     : DKH picture change effects
   Kantharuban Sivalingam : CASSCF convergence/infrastructure, NEVPT2 and variants, FIC-MRCI
   Bernardo de Souza      : ESD, SOC TD-DFT
   Georgi Stoychev        : AutoAux, RI-MP2 NMR, DLPNO-MP2 response, X2C
   Van Anh Tran           : RI-MP2 g-tensors
   Willem Van den Heuvel  : Paramagnetic NMR
   Zikuan Wang            : NOTCH, Electric field optimization 
   Frank Wennmohs         : Technical directorship and infrastructure
   Hang Xu                : AUTO-CI-Response properties 


 We gratefully acknowledge several colleagues who have allowed us to
 interface, adapt or use parts of their codes:
   Stefan Grimme, W. Hujo, H. Kruse, P. Pracht,  : VdW corrections, initial TS optimization,
                  C. Bannwarth, S. Ehlert,         DFT functionals, gCP, sTDA/sTD-DF
                  L. Wittmann, M. Mueller
   Ed Valeev, F. Pavosevic, A. Kumar             : LibInt (2-el integral package), F12 methods
   Garnet Chan, S. Sharma, J. Yang, R. Olivares  : DMRG
   Ulf Ekstrom                                   : XCFun DFT Library
   Mihaly Kallay                                 : mrcc  (arbitrary order and MRCC methods)
   Frank Weinhold                                : gennbo (NPA and NBO analysis)
   Simon Mueller                                 : openCOSMO-RS
   Christopher J. Cramer and Donald G. Truhlar   : smd solvation model
   Lars Goerigk                                  : TD-DFT with DH, B97 family of functionals
   V. Asgeirsson, H. Jonsson                     : NEB implementation
   FAccTs GmbH                                   : IRC, NEB, NEB-TS, DLPNO-Multilevel, CI-OPT
                                                   MM, QMMM, 2- and 3-layer-ONIOM, Crystal-QMMM,
                                                   LR-CPCM, SF, NACMEs, symmetry and pop. for TD-DFT,
                                                   nearIR, NL-DFT gradient (VV10), updates on ESD,
                                                   ML-optimized integration grids, MBIS, APM,
                                                   GOAT, DOCKER, SOLVATOR, interface openCOSMO-RS
   S Lehtola, MJT Oliveira, MAL Marques          : LibXC Library
   Liviu Ungur et al                             : ANISO software


 Your calculation uses the libint2 library for the computation of 2-el integrals
 For citations please refer to: http://libint.valeyev.net

 Your ORCA version has been built with support for libXC version: 6.2.2
 For citations please refer to: https://libxc.gitlab.io

 This ORCA versions uses:
   CBLAS   interface :  Fast vector & matrix operations
   LAPACKE interface :  Fast linear algebra routines
   SCALAPACK package :  Parallel linear algebra routines
   Shared memory     :  Shared parallel matrices
   BLAS/LAPACK       :  OpenBLAS 0.3.27  USE64BITINT DYNAMIC_ARCH NO_AFFINITY SkylakeX SINGLE_THREADED
        Core in use  :  SkylakeX
   Copyright (c) 2011-2014, The OpenBLAS Project


Your calculation utilizes the geometrical counterpoise correction gCP
Please cite in your paper:
H.Kruse, S. Grimme J.Chem.Phys., 136, (2012), 154101 
   

Your calculation utilizes the atom-pairwise dispersion correction
based on EEQ partial charges (D4)


================================================================================

----- Orbital basis set information -----
Your calculation utilizes the basis: def2-mTZVPP
   Stefan Grimme, Andreas Hansen, Sebastian Ehlert, and Jan-Michael Mewes 
   J. Chem. Phys. 154, 064103 (2021). DOI: 10.1063/5.0040021

----- AuxJ basis set information -----
Your calculation utilizes the auxiliary basis: def2/J
   F. Weigend, Phys. Chem. Chem. Phys. 8, 1057 (2006).

================================================================================
                                        WARNINGS
                       Please study these warnings very carefully!
================================================================================

Using LibXC functional ID 497 : Re-regularized SCAN exchange by Furness et al
[ 1]  J. W. Furness, A. D. Kaplan, J. Ning, J. P. Perdew, and J. Sun.,  J. Phys. Chem. Lett. 11, 8208-8215 (2020)
[ 2]  J. W. Furness, A. D. Kaplan, J. Ning, J. P. Perdew, and J. Sun.,  J. Phys. Chem. Lett. 11, 9248-9248 (2020)
Using LibXC functional ID 498 : Re-regularized SCAN correlation by Furness et al
[ 1]  J. W. Furness, A. D. Kaplan, J. Ning, J. P. Perdew, and J. Sun.,  J. Phys. Chem. Lett. 11, 8208-8215 (2020)
[ 2]  J. W. Furness, A. D. Kaplan, J. Ning, J. P. Perdew, and J. Sun.,  J. Phys. Chem. Lett. 11, 9248-9248 (2020)
Using LibXC functional ID 497 : Re-regularized SCAN exchange by Furness et al
[ 1]  J. W. Furness, A. D. Kaplan, J. Ning, J. P. Perdew, and J. Sun.,  J. Phys. Chem. Lett. 11, 8208-8215 (2020)
[ 2]  J. W. Furness, A. D. Kaplan, J. Ning, J. P. Perdew, and J. Sun.,  J. Phys. Chem. Lett. 11, 9248-9248 (2020)
Using LibXC functional ID 498 : Re-regularized SCAN correlation by Furness et al
[ 1]  J. W. Furness, A. D. Kaplan, J. Ning, J. P. Perdew, and J. Sun.,  J. Phys. Chem. Lett. 11, 8208-8215 (2020)
[ 2]  J. W. Furness, A. D. Kaplan, J. Ning, J. P. Perdew, and J. Sun.,  J. Phys. Chem. Lett. 11, 9248-9248 (2020)

================================================================================
                                       INPUT FILE
================================================================================
NAME = sp_gas.inp
|  1> ! r2scan-3c def2/J RI DEFGRID2 scfconv6 printgap
|  2> %output
|  3>     printlevel normal
|  4> end
|  5> * xyz 0 1
|  6> C 2.7154853797 -1.0326068545 -0.3352341399
|  7> C 2.3669841082 0.1980968251 0.4962811648
|  8> C 1.4179989576 1.1683100796 -0.2209951652
|  9> C -0.056834424 1.01262243 0.1638387336
| 10> C -0.6336979066 -0.3285006598 -0.2515105436
| 11> Cl -2.4048326394 -0.3765551173 0.0731464609
| 12> H 3.3861828968 -1.6835914832 0.2208695665
| 13> H 3.2154369644 -0.7362577706 -1.2546221713
| 14> H 1.8277230886 -1.600317254 -0.5980984826
| 15> H 1.9233191087 -0.1122564645 1.4437577859
| 16> H 3.2967818689 0.7196425667 0.731297298
| 17> H 1.5242298376 1.0482224579 -1.3001592247
| 18> H 1.7027813797 2.1925083895 0.0238464048
| 19> H -0.6294350394 1.805697706 -0.3213246221
| 20> H -0.1676830821 1.1344576078 1.2428974376
| 21> H -0.5171808414 -0.5016876407 -1.3200306112
| 22> H -0.2080646166 -1.1514765639 0.3177971442
| 23> *
| 24> 
| 25>                          ****END OF INPUT****
================================================================================

                       ****************************
                       * Single Point Calculation *
                       ****************************

---------------------------------
CARTESIAN COORDINATES (ANGSTROEM)
---------------------------------
  C      2.715485   -1.032607   -0.335234
  C      2.366984    0.198097    0.496281
  C      1.417999    1.168310   -0.220995
  C     -0.056834    1.012622    0.163839
  C     -0.633698   -0.328501   -0.251511
  Cl    -2.404833   -0.376555    0.073146
  H      3.386183   -1.683591    0.220870
  H      3.215437   -0.736258   -1.254622
  H      1.827723   -1.600317   -0.598098
  H      1.923319   -0.112256    1.443758
  H      3.296782    0.719643    0.731297
  H      1.524230    1.048222   -1.300159
  H      1.702781    2.192508    0.023846
  H     -0.629435    1.805698   -0.321325
  H     -0.167683    1.134458    1.242897
  H     -0.517181   -0.501688   -1.320031
  H     -0.208065   -1.151477    0.317797

----------------------------
CARTESIAN COORDINATES (A.U.)
----------------------------
  NO LB      ZA    FRAG     MASS         X           Y           Z
   0 C     6.0000    0    12.011    5.131524   -1.951344   -0.633501
   1 C     6.0000    0    12.011    4.472952    0.374349    0.937835
   2 C     6.0000    0    12.011    2.679630    2.207786   -0.417620
   3 C     6.0000    0    12.011   -0.107401    1.913579    0.309610
   4 C     6.0000    0    12.011   -1.197515   -0.620776   -0.475286
   5 Cl   17.0000    0    35.453   -4.544475   -0.711586    0.138227
   6 H     1.0000    0     1.008    6.398958   -3.181527    0.417383
   7 H     1.0000    0     1.008    6.076295   -1.391326   -2.370892
   8 H     1.0000    0     1.008    3.453896   -3.024161   -1.130242
   9 H     1.0000    0     1.008    3.634546   -0.212134    2.728307
  10 H     1.0000    0     1.008    6.230015    1.359927    1.381952
  11 H     1.0000    0     1.008    2.880377    1.980853   -2.456945
  12 H     1.0000    0     1.008    3.217790    4.143240    0.045063
  13 H     1.0000    0     1.008   -1.189460    3.412274   -0.607216
  14 H     1.0000    0     1.008   -0.316875    2.143814    2.348736
  15 H     1.0000    0     1.008   -0.977330   -0.948052   -2.494496
  16 H     1.0000    0     1.008   -0.393185   -2.175975    0.600550

--------------------------------
INTERNAL COORDINATES (ANGSTROEM)
--------------------------------
 C      0   0   0     0.000000000000     0.00000000     0.00000000
 C      1   0   0     1.525615411946     0.00000000     0.00000000
 C      2   1   0     1.535047852298   113.35371837     0.00000000
 C      3   2   1     1.532145318625   114.42475836    97.62402684
 C      4   3   2     1.517859559255   112.76083400   295.05853683
 Cl     5   4   3     1.801285552928   110.36140396   185.95206507
 H      1   2   3     1.087597112225   110.18387170   180.12338874
 H      1   2   3     1.087680430482   110.23751135    60.80814711
 H      1   2   3     1.086054623793   111.52290431   300.50094970
 H      2   1   3     1.091269785011   109.67406512   122.74234725
 H      2   1   3     1.091680548168   107.94896855   239.19066903
 H      3   2   1     1.091009213558   109.41630102   334.56405672
 H      3   2   1     1.090885237016   109.09533195   217.27009753
 H      4   3   2     1.091889802074   108.62577950   174.48763165
 H      4   3   2     1.091558025132   109.55475480    57.02415467
 H      5   4   3     1.088717177094   111.61963675   303.72167854
 H      5   4   3     1.087457713970   112.12695219    68.42646985

---------------------------
INTERNAL COORDINATES (A.U.)
---------------------------
 C      0   0   0     0.000000000000     0.00000000     0.00000000
 C      1   0   0     2.882995314268     0.00000000     0.00000000
 C      2   1   0     2.900820043307   113.35371837     0.00000000
 C      3   2   1     2.895335049571   114.42475836    97.62402684
 C      4   3   2     2.868338876747   112.76083400   295.05853683
 Cl     5   4   3     3.403936384023   110.36140396   185.95206507
 H      1   2   3     2.055260686148   110.18387170   180.12338874
 H      1   2   3     2.055418134837   110.23751135    60.80814711
 H      1   2   3     2.052345805448   111.52290431   300.50094970
 H      2   1   3     2.062201031894   109.67406512   122.74234725
 H      2   1   3     2.062977261766   107.94896855   239.19066903
 H      3   2   1     2.061708623209   109.41630102   334.56405672
 H      3   2   1     2.061474341498   109.09533195   217.27009753
 H      4   3   2     2.063372694341   108.62577950   174.48763165
 H      4   3   2     2.062745726784   109.55475480    57.02415467
 H      5   4   3     2.057377302004   111.61963675   303.72167854
 H      5   4   3     2.054997261624   112.12695219    68.42646985

---------------------
BASIS SET INFORMATION
---------------------
There are 3 groups of distinct atoms

 Group   1 Type C   : 11s6p1d contracted to 5s3p1d pattern {62111/411/1}
 Group   2 Type Cl  : 14s9p2d contracted to 5s4p2d pattern {73211/6111/11}
 Group   3 Type H   : 4s1p contracted to 2s1p pattern {31/1}

Atom   0C    basis set group =>   1
Atom   1C    basis set group =>   1
Atom   2C    basis set group =>   1
Atom   3C    basis set group =>   1
Atom   4C    basis set group =>   1
Atom   5Cl   basis set group =>   2
Atom   6H    basis set group =>   3
Atom   7H    basis set group =>   3
Atom   8H    basis set group =>   3
Atom   9H    basis set group =>   3
Atom  10H    basis set group =>   3
Atom  11H    basis set group =>   3
Atom  12H    basis set group =>   3
Atom  13H    basis set group =>   3
Atom  14H    basis set group =>   3
Atom  15H    basis set group =>   3
Atom  16H    basis set group =>   3
---------------------------------
AUXILIARY/J BASIS SET INFORMATION
---------------------------------
There are 3 groups of distinct atoms

 Group   1 Type C   : 12s5p4d2f1g contracted to 6s4p3d1f1g pattern {711111/2111/211/2/1}
 Group   2 Type Cl  : 14s5p5d2f1g contracted to 8s4p3d1f1g pattern {71111111/2111/311/2/1}
 Group   3 Type H   : 5s2p1d contracted to 3s1p1d pattern {311/2/1}

Atom   0C    basis set group =>   1
Atom   1C    basis set group =>   1
Atom   2C    basis set group =>   1
Atom   3C    basis set group =>   1
Atom   4C    basis set group =>   1
Atom   5Cl   basis set group =>   2
Atom   6H    basis set group =>   3
Atom   7H    basis set group =>   3
Atom   8H    basis set group =>   3
Atom   9H    basis set group =>   3
Atom  10H    basis set group =>   3
Atom  11H    basis set group =>   3
Atom  12H    basis set group =>   3
Atom  13H    basis set group =>   3
Atom  14H    basis set group =>   3
Atom  15H    basis set group =>   3
Atom  16H    basis set group =>   3

Checking for AutoStart:
The File: sp_gas.gbw exists
Trying to determine its content:
     ... Fine, the file contains calculation information
     ... Fine, the calculation information was read
     ... Fine, the file contains a basis set
     ... Fine, the basis set was read
     ... Fine, the file contains a geometry
     ... Fine, the geometry was read
     ... Fine, the file contains a set of orbitals
     ... Fine, the orbitals can be read
     => possible old guess file was deleted
     => GBW file was renamed to GES file
     => GES file is set as startup file
     => Guess is set to MORead
     ... now leaving AutoStart

------------------------------------------------------------------------------
                             ORCA STARTUP CALCULATIONS
                           -- RI-GTO INTEGRALS CHOSEN --
------------------------------------------------------------------------------
------------------------------------------------------------------------------
                   ___                                                        
                  /   \      - P O W E R E D   B Y -                         
                 /     \                                                     
                 |  |  |   _    _      __       _____    __    __             
                 |  |  |  | |  | |    /  \     |  _  \  |  |  /  |          
                  \  \/   | |  | |   /    \    | | | |  |  | /  /          
                 / \  \   | |__| |  /  /\  \   | |_| |  |  |/  /          
                |  |  |   |  __  | /  /__\  \  |    /   |      \           
                |  |  |   | |  | | |   __   |  |    \   |  |\   \          
                \     /   | |  | | |  |  |  |  | |\  \  |  | \   \       
                 \___/    |_|  |_| |__|  |__|  |_| \__\ |__|  \__/        
                                                                              
                      - O R C A' S   B I G   F R I E N D -                    
                                      &                                       
                       - I N T E G R A L  F E E D E R -                       
                                                                              
 v1 FN, 2020, v2 2021, v3 2022-2024                                           
------------------------------------------------------------------------------


----------------------
SHARK INTEGRAL PACKAGE
----------------------

Number of atoms                             ...     17
Number of basis functions                   ...    177
Number of shells                            ...     89
Maximum angular momentum                    ...      2
Integral batch strategy                     ... SHARK/LIBINT Hybrid
RI-J (if used) integral strategy            ... SPLIT-RIJ (Revised 2003 algorithm where possible)
Printlevel                                  ...      1
Contraction scheme used                     ... SEGMENTED contraction
Prescreening option                         ... SCHWARTZ
   Thresh                                   ... 1.000e-10
   Tcut                                     ... 1.000e-11
   Tpresel                                  ... 1.000e-11 
Coulomb Range Separation                    ... NOT USED
Exchange Range Separation                   ... NOT USED
Multipole approximations                    ... NOT USED
Finite Nucleus Model                        ... NOT USED
CABS basis                                  ... NOT available
Auxiliary Coulomb fitting basis             ... AVAILABLE
   # of basis functions in Aux-J            ...    417
   # of shells in Aux-J                     ...    147
   Maximum angular momentum in Aux-J        ...      4
Auxiliary J/K fitting basis                 ... NOT available
Auxiliary Correlation fitting basis         ... NOT available
Auxiliary 'external' fitting basis          ... NOT available

Checking pre-screening integrals            ... done (  0.0 sec) Dimension = 89
Check shell pair data                       ... done (  0.0 sec)
Shell pair information
Shell pair cut-off parameter TPreSel        ...   1.0e-11
Total number of shell pairs                 ...      4005
Shell pairs after pre-screening             ...      3677
Total number of primitive shell pairs       ...     14718
Primitive shell pairs kept                  ...      9729
          la=0 lb=0:   1259 shell pairs
          la=1 lb=0:   1427 shell pairs
          la=1 lb=1:    431 shell pairs
          la=2 lb=0:    338 shell pairs
          la=2 lb=1:    196 shell pairs
          la=2 lb=2:     26 shell pairs

Calculating one electron integrals          ... done (  0.0 sec)
Calculating RI/J V-Matrix + Cholesky decomp.... done (  0.1 sec)
Calculating Nuclear repulsion               ... done (  0.0 sec) ENN=    293.764344630782 Eh

Diagonalization of the overlap matrix:
Smallest eigenvalue                        ... 2.328e-04
Time for diagonalization                   ...    0.003 sec
Threshold for overlap eigenvalues          ... 1.000e-07
Number of eigenvalues below threshold      ... 0
Time for construction of square roots      ...    0.013 sec
Total time needed                          ...    0.023 sec

-------------------
DFT GRID GENERATION
-------------------

General Integration Accuracy     IntAcc      ... 4.388
Radial Grid Type                 RadialGrid  ... OptM3 with GC (2021)
Angular Grid (max. ang.)         AngularGrid ... 4 (Lebedev-302)
Angular grid pruning method      GridPruning ... 4 (adaptive)
Weight generation scheme         WeightScheme... mBecke (2022)
Basis function cutoff            BFCut       ... 1.0000e-10
Integration weight cutoff        WCut        ... 1.0000e-14
Partially contracted basis set               ... off
Rotationally invariant grid construction     ... off
Angular grids for H and He will be reduced by one unit

Total number of grid points                  ...    72547
Total number of batches                      ...     1144
Average number of points per batch           ...       63
Average number of grid points per atom       ...     4267
Initializing property integral containers    ... done (  0.0 sec)

SHARK setup successfully completed in   1.0 seconds

Maximum memory used throughout the entire STARTUP-calculation: 32.7 MB
-------------------------------------------------------------------------------
                                 ORCA GUESS
                   Start orbitals & Density for SCF / CASSCF
-------------------------------------------------------------------------------

------------
SCF SETTINGS
------------
Hamiltonian:
 Density Functional     Method          .... DFT(GTOs)
  Functional kind                       .... Exchange
  Functional name                       .... Re-regularized SCAN exchange by Furness et al
  Functional family                     .... MGGA
  Functional refs                              
    [ 0] J. W. Furness, A. D. Kaplan, J. Ning, J. P. Perdew, and J. Sun.,  J. Phys. Chem. Lett. 11, 8208-8215 (2020), doi: 10.1021/acs.jpclett.0c02405
    [ 1] J. W. Furness, A. D. Kaplan, J. Ning, J. P. Perdew, and J. Sun.,  J. Phys. Chem. Lett. 11, 9248-9248 (2020), doi: 10.1021/acs.jpclett.0c03077
  Functional external parameters        .... 6
    Parameter  0 _c1        =  6.670000e-01 : c1 parameter        
    Parameter  1 _c2        =  8.000000e-01 : c2 parameter        
    Parameter  2 _d         =  1.240000e+00 : d parameter         
    Parameter  3 _k1        =  6.500000e-02 : k1 parameter        
    Parameter  4 _eta       =  1.000000e-03 : eta parameter       
    Parameter  5 _dp2       =  3.610000e-01 : dp2 parameter       
  Functional kind                       .... Correlation
  Functional name                       .... Re-regularized SCAN correlation by Furness et al
  Functional family                     .... MGGA
  Functional refs                              
    [ 0] J. W. Furness, A. D. Kaplan, J. Ning, J. P. Perdew, and J. Sun.,  J. Phys. Chem. Lett. 11, 8208-8215 (2020), doi: 10.1021/acs.jpclett.0c02405
    [ 1] J. W. Furness, A. D. Kaplan, J. Ning, J. P. Perdew, and J. Sun.,  J. Phys. Chem. Lett. 11, 9248-9248 (2020), doi: 10.1021/acs.jpclett.0c03077
  Functional external parameters        .... 1
    Parameter  0 _eta       =  1.000000e-03 : Regularization parameter
 Gradients option       PostSCFGGA      .... off
 RI-approximation to the Coulomb term is turned on
   Number of AuxJ basis functions       .... 417


General Settings:
 Integral files         IntName         .... sp_gas
 Hartree-Fock type      HFTyp           .... RHF
 Total Charge           Charge          ....    0
 Multiplicity           Mult            ....    1
 Number of Electrons    NEL             ....   58
 Basis Dimension        Dim             ....  177
 Nuclear Repulsion      ENuc            ....    293.7643446308 Eh

Convergence Acceleration:
 AO-DIIS                CNVDIIS         .... on
   Start iteration      DIISMaxIt       ....    12
   Startup error        DIISStart       ....  0.200000
   # of expansion vecs  DIISMaxEq       ....     5
   Bias factor          DIISBfac        ....   1.050
   Max. coefficient     DIISMaxC        ....  10.000
 MO-DIIS                CNVKDIIS        .... off
 Trust-Rad. Augm. Hess. CNVTRAH         .... auto
   Auto Start mean grad. ratio tolernc. ....  1.125000
   Auto Start start iteration           ....     1
   Auto Start num. interpolation iter.  ....    10
   Max. Number of Micro iterations      ....    24
   Max. Number of Macro iterations      .... Maxiter - #DIIS iter
   Number of Davidson start vectors     ....     2
   Converg. threshold    (grad. norm)   ....   3.330e-04
   Grad. Scal. Fac. for Micro threshold ....   0.100
   Minimum threshold for Micro iter.    ....   1.000e-02
   NR start threshold (gradient norm)   ....   1.000e-04
   Initial trust radius                 ....   0.400
   Minimum AH scaling param. (alpha)    ....   1.000
   Maximum AH scaling param. (alpha)    .... 1000.000
   Quad. conv. algorithm                .... NR
   White noise on init. David. guess    .... on
   Maximum white noise                  ....   0.010
   Pseudo random numbers                .... off
   Inactive MOs                         .... canonical
   Orbital update algorithm             .... Taylor
   Preconditioner                       .... Diag
   Full preconditioner red. dimension   ....   250
   COSX micro iterations for RIJONX calc.... off
 SOSCF                  CNVSOSCF        .... on
   Start iteration      SOSCFMaxIt      ....   150
   Startup grad/error   SOSCFStart      ....  0.003300
   Hessian update       SOSCFHessUp     .... L-BFGS
 Level Shifting         CNVShift        .... on
   Level shift para.    LevelShift      ....    0.2500
   Turn off err/grad.   ShiftErr        ....    0.0010
 Zerner damping         CNVZerner       .... off
 Static damping         CNVDamp         .... on
   Fraction old density DampFac         ....    0.7000
   Max. Damping (<1)    DampMax         ....    0.9800
   Min. Damping (>=0)   DampMin         ....    0.0000
   Turn off err/grad.   DampErr         ....    0.1000

SCF Procedure:
 Maximum # iterations   MaxIter         ....   125
 SCF integral mode      SCFMode         .... Direct
   Integral package                     .... SHARK and LIBINT hybrid scheme
 Reset frequency        DirectResetFreq ....    20
 Integral Threshold     Thresh          ....  1.000e-10 Eh
 Primitive CutOff       TCut            ....  1.000e-11 Eh

Convergence Tolerance:
 Convergence Check Mode ConvCheckMode   .... Total+1el-Energy
 Convergence forced     ConvForced      .... 0
 Energy Change          TolE            ....  1.000e-06 Eh
 1-El. energy change                    ....  1.000e-03 Eh
 Orbital Gradient       TolG            ....  3.330e-04
 Orbital Rotation angle TolX            ....  3.330e-04
 DIIS Error             TolErr          ....  1.000e-06

---------------------
INITIAL GUESS: MOREAD
---------------------
Guess MOs are being read from file: sp_gas.ges
Input Geometry matches current geometry (good)
Atom 0: N(Shells)= 9 and 6 - projection required
Input basis set needs projection
NBasis(read)= 110
NBasis(calc)= 177
Basis set overlap was calculated
Using GuessMode=FMatrix for the initial guess
C*T matrix was formed
Effective Fockian was calculated
Effective Fockian was diagonalized
Initial density was built
                      ------------------
                      INITIAL GUESS DONE (   0.0 sec)
                      ------------------
             **** ENERGY FILE WAS UPDATED (sp_gas.en.tmp) ****
Finished Guess after   0.2 sec
Maximum memory used throughout the entire GUESS-calculation: 12.0 MB

-------------------------------------------------------------------------------------------
                                      ORCA LEAN-SCF
                              memory conserving SCF solver
-------------------------------------------------------------------------------------------

----------------------------------------D-I-I-S--------------------------------------------
Iteration    Energy (Eh)           Delta-E    RMSDP     MaxDP     DIISErr   Damp  Time(sec)
-------------------------------------------------------------------------------------------
               ***  Starting incremental Fock matrix formation  ***
    1    -657.1408087906306719     0.00e+00  4.13e-03  1.27e-01  5.39e-01  0.700   1.8
    2    -657.1791752011977223    -3.84e-02  3.32e-03  7.99e-02  3.77e-01  0.700   1.7
    3    -657.2063664243735275    -2.72e-02  2.43e-03  5.82e-02  2.64e-01  0.700   1.7
                               ***Turning on AO-DIIS***
    4    -657.2254661374615807    -1.91e-02  1.76e-03  4.14e-02  1.85e-01  0.700   1.8
    5    -657.2388671237092694    -1.34e-02  1.25e-03  2.91e-02  1.29e-01  0.700   1.8
    6    -657.2482649041530749    -9.40e-03  8.83e-04  2.05e-02  9.06e-02  0.700   1.7
    7    -657.2548524723379160    -6.59e-03  2.07e-03  4.80e-02  6.34e-02  0.000   1.8
                              *** Initializing SOSCF ***
---------------------------------------S-O-S-C-F--------------------------------------
Iteration    Energy (Eh)           Delta-E    RMSDP     MaxDP     MaxGrad    Time(sec)
--------------------------------------------------------------------------------------
    8    -657.2702534977156574    -1.54e-02  1.32e-05  3.86e-04  1.15e-04     1.8
               *** Restarting incremental Fock matrix formation ***
    9    -657.2702536175770547    -1.20e-07  7.19e-06  2.16e-04  1.45e-05     2.0
                  *** Gradient check signals convergence ***

               *****************************************************
               *                     SUCCESS                       *
               *           SCF CONVERGED AFTER   9 CYCLES          *
               *****************************************************

             **** ENERGY FILE WAS UPDATED (sp_gas.en.tmp) ****

----------------
TOTAL SCF ENERGY
----------------

Total Energy       :       -657.27025361757705 Eh          -17885.23287 eV

Components:
Nuclear Repulsion  :        293.76434463078186 Eh            7993.73421 eV
Electronic Energy  :       -951.03459824835886 Eh          -25878.96708 eV
One Electron Energy:      -1482.36711542671264 Eh          -40337.25992 eV
Two Electron Energy:        531.33251717835378 Eh           14458.29284 eV

Virial components:
Potential Energy   :      -1312.54709988990408 Eh          -35716.22237 eV
Kinetic Energy     :        655.27684627232713 Eh           17830.98950 eV
Virial Ratio       :          2.00304208420699

DFT components:
N(Alpha)           :       29.000023825887 electrons
N(Beta)            :       29.000023825887 electrons
N(Total)           :       58.000047651774 electrons
E(X)               :      -57.488662224776 Eh       
E(C)               :       -1.922166407666 Eh       
E(XC)              :      -59.410828632443 Eh       

---------------
SCF CONVERGENCE
---------------

  Last Energy change         ...    1.1986e-07  Tolerance :   1.0000e-06
  Last MAX-Density change    ...    2.1627e-04  Tolerance :   1.0000e-05
  Last RMS-Density change    ...    7.1853e-06  Tolerance :   1.0000e-06
  Last DIIS Error            ...    1.1480e-04  Tolerance :   1.0000e-06
  Last Orbital Gradient      ...    1.4486e-05  Tolerance :   3.3300e-04
  Last Orbital Rotation      ...    2.9299e-05  Tolerance :   3.3300e-04


----------------
ORBITAL ENERGIES
----------------

  NO   OCC          E(Eh)            E(eV) 
   0   2.0000    -101.196267     -2753.6904 
   1   2.0000     -10.090907      -274.5875 
   2   2.0000     -10.040547      -273.2172 
   3   2.0000     -10.036274      -273.1009 
   4   2.0000     -10.033846      -273.0348 
   5   2.0000     -10.024565      -272.7823 
   6   2.0000      -9.352286      -254.4886 
   7   2.0000      -7.098472      -193.1592 
   8   2.0000      -7.088368      -192.8843 
   9   2.0000      -7.088318      -192.8829 
  10   2.0000      -0.820905       -22.3380 
  11   2.0000      -0.771111       -20.9830 
  12   2.0000      -0.711354       -19.3569 
  13   2.0000      -0.643749       -17.5173 
  14   2.0000      -0.583235       -15.8706 
  15   2.0000      -0.546396       -14.8682 
  16   2.0000      -0.457475       -12.4485 
  17   2.0000      -0.437307       -11.8997 
  18   2.0000      -0.423628       -11.5275 
  19   2.0000      -0.390423       -10.6240 
  20   2.0000      -0.385446       -10.4885 
  21   2.0000      -0.369538       -10.0556 
  22   2.0000      -0.353125        -9.6090 
  23   2.0000      -0.334405        -9.0996 
  24   2.0000      -0.309640        -8.4257 
  25   2.0000      -0.303663        -8.2631 
  26   2.0000      -0.296313        -8.0631 
  27   2.0000      -0.262967        -7.1557 
  28   2.0000      -0.260665        -7.0930 
  29   0.0000       0.006803         0.1851 
  30   0.0000       0.089818         2.4441 
  31   0.0000       0.095294         2.5931 
  32   0.0000       0.105828         2.8797 
  33   0.0000       0.108378         2.9491 
  34   0.0000       0.125483         3.4146 
  35   0.0000       0.131157         3.5690 
  36   0.0000       0.143111         3.8942 
  37   0.0000       0.159445         4.3387 
  38   0.0000       0.161944         4.4067 
  39   0.0000       0.175550         4.7769 
*Only the first 10 virtual orbitals were printed.

                    ********************************
                    * MULLIKEN POPULATION ANALYSIS *
                    ********************************

-----------------------
MULLIKEN ATOMIC CHARGES
-----------------------
   0 C :   -0.472500
   1 C :   -0.257555
   2 C :   -0.255347
   3 C :   -0.295855
   4 C :   -0.198266
   5 Cl:   -0.201862
   6 H :    0.147963
   7 H :    0.150827
   8 H :    0.141549
   9 H :    0.144842
  10 H :    0.142750
  11 H :    0.145318
  12 H :    0.152275
  13 H :    0.156846
  14 H :    0.163864
  15 H :    0.167108
  16 H :    0.168042
Sum of atomic charges:    0.0000000

--------------------------------
MULLIKEN REDUCED ORBITAL CHARGES
--------------------------------
  0 C s       :     3.331156  s :     3.331156
      pz      :     1.038921  p :     3.113981
      px      :     1.071903
      py      :     1.003156
      dz2     :     0.004601  d :     0.027363
      dxz     :     0.005686
      dyz     :     0.006331
      dx2y2   :     0.002951
      dxy     :     0.007795

  1 C s       :     3.200776  s :     3.200776
      pz      :     0.995233  p :     3.020300
      px      :     1.070165
      py      :     0.954902
      dz2     :     0.007069  d :     0.036479
      dxz     :     0.006209
      dyz     :     0.007851
      dx2y2   :     0.006268
      dxy     :     0.009082

  2 C s       :     3.209661  s :     3.209661
      pz      :     1.030510  p :     3.009569
      px      :     0.916539
      py      :     1.062519
      dz2     :     0.009980  d :     0.036116
      dxz     :     0.005745
      dyz     :     0.003269
      dx2y2   :     0.009882
      dxy     :     0.007240

  3 C s       :     3.266598  s :     3.266598
      pz      :     1.078019  p :     2.992535
      px      :     0.962536
      py      :     0.951980
      dz2     :     0.009221  d :     0.036722
      dxz     :     0.005178
      dyz     :     0.004984
      dx2y2   :     0.008143
      dxy     :     0.009197

  4 C s       :     3.280088  s :     3.280088
      pz      :     1.083666  p :     2.877053
      px      :     0.774966
      py      :     1.018421
      dz2     :     0.009166  d :     0.041126
      dxz     :     0.005757
      dyz     :     0.006350
      dx2y2   :     0.010655
      dxy     :     0.009198

  5 Cls       :     5.947873  s :     5.947873
      pz      :     3.940872  p :    11.209625
      px      :     3.303661
      py      :     3.965093
      dz2     :     0.006192  d :     0.044364
      dxz     :     0.011232
      dyz     :     0.000516
      dx2y2   :     0.015103
      dxy     :     0.011321

  6 H s       :     0.833769  s :     0.833769
      pz      :     0.005460  p :     0.018267
      px      :     0.006460
      py      :     0.006348

  7 H s       :     0.830950  s :     0.830950
      pz      :     0.008946  p :     0.018224
      px      :     0.005236
      py      :     0.004042

  8 H s       :     0.840004  s :     0.840004
      pz      :     0.004217  p :     0.018447
      px      :     0.008490
      py      :     0.005740

  9 H s       :     0.837254  s :     0.837254
      pz      :     0.009171  p :     0.017903
      px      :     0.004626
      py      :     0.004107

 10 H s       :     0.839315  s :     0.839315
      pz      :     0.003939  p :     0.017935
      px      :     0.008883
      py      :     0.005114

 11 H s       :     0.836705  s :     0.836705
      pz      :     0.010850  p :     0.017976
      px      :     0.003560
      py      :     0.003567

 12 H s       :     0.829715  s :     0.829715
      pz      :     0.003895  p :     0.018010
      px      :     0.004013
      py      :     0.010102

 13 H s       :     0.825319  s :     0.825319
      pz      :     0.004840  p :     0.017835
      px      :     0.005598
      py      :     0.007397

 14 H s       :     0.818350  s :     0.818350
      pz      :     0.010921  p :     0.017786
      px      :     0.003425
      py      :     0.003440

 15 H s       :     0.814899  s :     0.814899
      pz      :     0.011395  p :     0.017993
      px      :     0.002913
      py      :     0.003685

 16 H s       :     0.813762  s :     0.813762
      pz      :     0.005615  p :     0.018196
      px      :     0.004312
      py      :     0.008268


------------------------
MULLIKEN OVERLAP CHARGES
------------------------
B(  0-C ,  1-C ) :   0.3677 B(  0-C ,  2-C ) :  -0.1266 B(  0-C ,  6-H ) :   0.8073 
B(  0-C ,  7-H ) :   0.8725 B(  0-C ,  8-H ) :   0.8300 B(  0-C , 10-H ) :  -0.0568 
B(  1-C ,  2-C ) :   0.2449 B(  1-C ,  3-C ) :  -0.0972 B(  1-C ,  6-H ) :  -0.0805 
B(  1-C ,  7-H ) :  -0.1006 B(  1-C ,  8-H ) :  -0.0883 B(  1-C ,  9-H ) :   0.8161 
B(  1-C , 10-H ) :   0.7986 B(  1-C , 11-H ) :  -0.1641 B(  1-C , 16-H ) :   0.0550 
B(  2-C ,  3-C ) :   0.3054 B(  2-C ,  4-C ) :  -0.1229 B(  2-C ,  9-H ) :  -0.1580 
B(  2-C , 10-H ) :  -0.0509 B(  2-C , 11-H ) :   0.8439 B(  2-C , 12-H ) :   0.7966 
B(  2-C , 13-H ) :  -0.0981 B(  2-C , 14-H ) :  -0.0802 B(  3-C ,  4-C ) :   0.3691 
B(  3-C ,  5-Cl) :  -0.1002 B(  3-C ,  9-H ) :   0.0538 B(  3-C , 12-H ) :  -0.0763 
B(  3-C , 13-H ) :   0.8446 B(  3-C , 14-H ) :   0.8978 B(  3-C , 15-H ) :  -0.1057 
B(  3-C , 16-H ) :  -0.0764 B(  4-C ,  5-Cl) :   0.4458 B(  4-C , 13-H ) :  -0.0677 
B(  4-C , 14-H ) :  -0.0902 B(  4-C , 15-H ) :   0.8411 B(  4-C , 16-H ) :   0.8348 
B(  5-Cl, 15-H ) :  -0.0842 B(  5-Cl, 16-H ) :  -0.0828 B(  7-H ,  8-H ) :  -0.0504 
B( 15-H , 16-H ) :  -0.0635 


                     *******************************
                     * LOEWDIN POPULATION ANALYSIS *
                     *******************************

----------------------
LOEWDIN ATOMIC CHARGES
----------------------
   0 C :   -0.425444
   1 C :   -0.320757
   2 C :   -0.308575
   3 C :   -0.327784
   4 C :   -0.327448
   5 Cl:   -0.003038
   6 H :    0.152132
   7 H :    0.150209
   8 H :    0.147954
   9 H :    0.153001
  10 H :    0.154709
  11 H :    0.156661
  12 H :    0.160072
  13 H :    0.162301
  14 H :    0.160371
  15 H :    0.157519
  16 H :    0.158115

-------------------------------
LOEWDIN REDUCED ORBITAL CHARGES
-------------------------------
  0 C s       :     2.974652  s :     2.974652
      pz      :     1.135907  p :     3.387006
      px      :     1.148220
      py      :     1.102880
      dz2     :     0.010254  d :     0.063785
      dxz     :     0.013667
      dyz     :     0.015074
      dx2y2   :     0.006500
      dxy     :     0.018290

  1 C s       :     2.938462  s :     2.938462
      pz      :     1.107883  p :     3.303707
      px      :     1.115199
      py      :     1.080625
      dz2     :     0.014697  d :     0.078588
      dxz     :     0.013838
      dyz     :     0.017590
      dx2y2   :     0.012354
      dxy     :     0.020110

  2 C s       :     2.937006  s :     2.937006
      pz      :     1.123969  p :     3.293574
      px      :     1.052693
      py      :     1.116911
      dz2     :     0.023087  d :     0.077995
      dxz     :     0.011495
      dyz     :     0.006953
      dx2y2   :     0.021557
      dxy     :     0.014903

  3 C s       :     2.947050  s :     2.947050
      pz      :     1.141615  p :     3.300433
      px      :     1.080305
      py      :     1.078514
      dz2     :     0.021526  d :     0.080300
      dxz     :     0.010206
      dyz     :     0.010779
      dx2y2   :     0.017865
      dxy     :     0.019925

  4 C s       :     2.994934  s :     2.994934
      pz      :     1.155960  p :     3.242438
      px      :     0.954294
      py      :     1.132184
      dz2     :     0.021635  d :     0.090076
      dxz     :     0.011967
      dyz     :     0.013284
      dx2y2   :     0.023359
      dxy     :     0.019831

  5 Cls       :     5.696907  s :     5.696907
      pz      :     3.931410  p :    11.207707
      px      :     3.339256
      py      :     3.937042
      dz2     :     0.014295  d :     0.098424
      dxz     :     0.023606
      dyz     :     0.000958
      dx2y2   :     0.035799
      dxy     :     0.023767

  6 H s       :     0.804426  s :     0.804426
      pz      :     0.012967  p :     0.043442
      px      :     0.015390
      py      :     0.015086

  7 H s       :     0.806450  s :     0.806450
      pz      :     0.021912  p :     0.043342
      px      :     0.012152
      py      :     0.009277

  8 H s       :     0.807884  s :     0.807884
      pz      :     0.009447  p :     0.044162
      px      :     0.021080
      py      :     0.013634

  9 H s       :     0.803564  s :     0.803564
      pz      :     0.022714  p :     0.043435
      px      :     0.010944
      py      :     0.009777

 10 H s       :     0.802057  s :     0.802057
      pz      :     0.009058  p :     0.043235
      px      :     0.021842
      py      :     0.012334

 11 H s       :     0.799707  s :     0.799707
      pz      :     0.027117  p :     0.043632
      px      :     0.008285
      py      :     0.008230

 12 H s       :     0.796265  s :     0.796265
      pz      :     0.009087  p :     0.043663
      px      :     0.009581
      py      :     0.024995

 13 H s       :     0.794173  s :     0.794173
      pz      :     0.011660  p :     0.043525
      px      :     0.013580
      py      :     0.018286

 14 H s       :     0.796171  s :     0.796171
      pz      :     0.027497  p :     0.043458
      px      :     0.007978
      py      :     0.007983

 15 H s       :     0.797977  s :     0.797977
      pz      :     0.029235  p :     0.044504
      px      :     0.006494
      py      :     0.008775

 16 H s       :     0.796833  s :     0.796833
      pz      :     0.013997  p :     0.045052
      px      :     0.010152
      py      :     0.020903


---------------------------------
LOEWDIN BOND ORDERS (THRESH 0.050000)
---------------------------------
B(  0-C ,  1-C ) :   1.1454 B(  0-C ,  2-C ) :   0.0693 B(  0-C ,  6-H ) :   0.9292 
B(  0-C ,  7-H ) :   0.9298 B(  0-C ,  8-H ) :   0.9250 B(  1-C ,  2-C ) :   1.0978 
B(  1-C ,  3-C ) :   0.0655 B(  1-C ,  9-H ) :   0.8946 B(  1-C , 10-H ) :   0.8981 
B(  2-C ,  3-C ) :   1.1033 B(  2-C ,  4-C ) :   0.0712 B(  2-C , 11-H ) :   0.8893 
B(  2-C , 12-H ) :   0.8890 B(  3-C ,  4-C ) :   1.1181 B(  3-C ,  5-Cl) :   0.1282 
B(  3-C , 13-H ) :   0.8888 B(  3-C , 14-H ) :   0.8909 B(  4-C ,  5-Cl) :   1.3545 
B(  4-C , 15-H ) :   0.8957 B(  4-C , 16-H ) :   0.8931 

------------------------------------------
LOEWDIN REDUCED ORBITAL POPULATIONS PER MO
-------------------------------------------
THRESHOLD FOR PRINTING IS 0.1%%
                      0         1         2         3         4         5   
                 -101.19627 -10.09091 -10.04055 -10.03627 -10.03385 -10.02457
                   2.00000   2.00000   2.00000   2.00000   2.00000   2.00000
                  --------  --------  --------  --------  --------  --------
 0 C  s               0.0       0.0       0.0       0.0       0.0      99.7
 1 C  s               0.0       0.0       0.0       0.1      99.6       0.0
 2 C  s               0.0       0.0       0.0      99.6       0.1       0.0
 3 C  s               0.0       0.0      99.7       0.0       0.0       0.0
 4 C  s               0.0      99.7       0.0       0.0       0.0       0.0
 5 Cl s             100.0       0.0       0.0       0.0       0.0       0.0

                      6         7         8         9        10        11   
                  -9.35229  -7.09847  -7.08837  -7.08832  -0.82091  -0.77111
                   2.00000   2.00000   2.00000   2.00000   2.00000   2.00000
                  --------  --------  --------  --------  --------  --------
 0 C  s               0.0       0.0       0.0       0.0       0.4       9.0
 0 C  pz              0.0       0.0       0.0       0.0       0.0       0.5
 0 C  px              0.0       0.0       0.0       0.0       0.1       0.2
 0 C  py              0.0       0.0       0.0       0.0       0.1       1.6
 1 C  s               0.0       0.0       0.0       0.0       1.3      19.1
 1 C  pz              0.0       0.0       0.0       0.0       0.1       1.0
 1 C  px              0.0       0.0       0.0       0.0       0.4       0.5
 2 C  s               0.0       0.0       0.0       0.0       3.6      18.5
 2 C  pz              0.0       0.0       0.0       0.0       0.1       0.5
 2 C  px              0.0       0.0       0.0       0.0       0.9       0.1
 2 C  py              0.0       0.0       0.0       0.0       0.3       0.9
 3 C  s               0.0       0.0       0.0       0.0      10.3       6.2
 3 C  pz              0.0       0.0       0.0       0.0       0.2       0.1
 3 C  px              0.0       0.0       0.0       0.0       0.4       4.1
 3 C  py              0.0       0.0       0.0       0.0       2.1       0.1
 4 C  s               0.0       0.0       0.0       0.0      24.0       0.2
 4 C  pz              0.0       0.0       0.0       0.0       0.4       0.0
 4 C  px              0.1       0.0       0.0       0.0       3.6       5.3
 4 C  py              0.0       0.0       0.0       0.0       0.4       1.0
 4 C  dx2y2           0.0       0.0       0.0       0.0       0.1       0.1
 5 Cl s              99.8       0.0       0.0       0.0      37.8      13.5
 5 Cl pz              0.0       3.4      96.5       0.1       0.1       0.0
 5 Cl px              0.0      96.6       3.4       0.0       2.4       0.1
 5 Cl py              0.0       0.0       0.1      99.9       0.0       0.0
 5 Cl dz2             0.0       0.0       0.0       0.0       0.1       0.0
 5 Cl dx2y2           0.0       0.0       0.0       0.0       0.4       0.0
 6 H  s               0.0       0.0       0.0       0.0       0.0       1.2
 7 H  s               0.0       0.0       0.0       0.0       0.0       1.2
 8 H  s               0.0       0.0       0.0       0.0       0.1       1.2
 9 H  s               0.0       0.0       0.0       0.0       0.1       2.6
 9 H  pz              0.0       0.0       0.0       0.0       0.0       0.2
10 H  s               0.0       0.0       0.0       0.0       0.1       2.6
10 H  px              0.0       0.0       0.0       0.0       0.0       0.2
11 H  s               0.0       0.0       0.0       0.0       0.4       2.6
11 H  pz              0.0       0.0       0.0       0.0       0.0       0.2
12 H  s               0.0       0.0       0.0       0.0       0.4       2.5
12 H  py              0.0       0.0       0.0       0.0       0.0       0.2
13 H  s               0.0       0.0       0.0       0.0       1.2       0.8
14 H  s               0.0       0.0       0.0       0.0       1.1       0.9
15 H  s               0.0       0.0       0.0       0.0       2.8       0.0
15 H  pz              0.0       0.0       0.0       0.0       0.2       0.0
16 H  s               0.0       0.0       0.0       0.0       2.8       0.0
16 H  py              0.0       0.0       0.0       0.0       0.1       0.0

                     12        13        14        15        16        17   
                  -0.71135  -0.64375  -0.58324  -0.54640  -0.45747  -0.43731
                   2.00000   2.00000   2.00000   2.00000   2.00000   2.00000
                  --------  --------  --------  --------  --------  --------
 0 C  s              17.4      11.2       7.9       1.5       0.0       0.2
 0 C  pz              0.3       0.1       1.5       3.6       0.1       0.5
 0 C  px              0.0       0.0       0.4       0.1       2.8       8.6
 0 C  py              0.4       1.0       2.8       1.3       2.1       0.1
 1 C  s               9.4       0.9       7.3       7.2       0.5       0.2
 1 C  pz              0.2       0.1       1.7       7.6       0.1       0.0
 1 C  px              1.4       1.2       0.0       0.7       9.3       8.4
 1 C  py              2.9       7.2       1.9       0.3       0.3       5.3
 1 C  dyz             0.1       0.1       0.1       0.0       0.0       0.0
 2 C  s               1.6      12.7       0.0       8.2       0.2       0.1
 2 C  pz              0.0       0.0       0.3       7.4       3.7       1.7
 2 C  px              6.4       1.0       5.4       0.3       0.3       3.7
 2 C  py              0.9       0.8       1.3       1.2       0.7      15.2
 3 C  s              15.0       0.8       7.3       5.4       0.0       0.1
 3 C  pz              0.1       0.0       0.2       4.2      12.6       6.1
 3 C  px              0.0       4.4       0.1       3.6       5.9       1.2
 3 C  py              0.1       3.2       5.5       0.3       2.6       2.2
 3 C  dx2y2           0.0       0.2       0.0       0.0       0.0       0.0
 4 C  s               2.5      11.0       8.7       1.5       0.1       0.4
 4 C  pz              0.0       0.1       0.7       2.4      16.8       5.3
 4 C  px              4.4       3.0       0.6       0.1       2.6       3.1
 4 C  py              2.3       0.1       5.1       4.3       7.2       2.8
 4 C  dx2y2           0.2       0.1       0.0       0.0       0.0       0.0
 5 Cl s              12.1      12.1       4.0       0.2       0.3       1.7
 5 Cl pz              0.0       0.1       0.2       0.2       2.3       0.1
 5 Cl px              0.5       2.7       2.8       0.3       0.4       8.5
 5 Cl py              0.0       0.0       0.2       0.3       1.1       0.1
 5 Cl dz2             0.0       0.1       0.1       0.0       0.0       0.1
 5 Cl dxz             0.0       0.0       0.1       0.0       0.3       0.0
 5 Cl dx2y2           0.0       0.3       0.3       0.0       0.0       0.2
 5 Cl dxy             0.0       0.0       0.0       0.1       0.2       0.0
 6 H  s               3.2       3.1       3.1       0.4       0.0       1.3
 6 H  px              0.1       0.1       0.1       0.0       0.0       0.0
 6 H  py              0.1       0.1       0.1       0.0       0.0       0.0
 7 H  s               3.1       2.7       3.2       1.4       0.1       1.7
 7 H  pz              0.2       0.2       0.1       0.0       0.0       0.1
 8 H  s               3.0       3.2       2.8       1.5       2.0       0.9
 8 H  px              0.2       0.2       0.2       0.1       0.0       0.0
 9 H  s               1.5       0.1       2.8       5.9       0.3       1.6
 9 H  pz              0.1       0.0       0.1       0.2       0.0       0.1
10 H  s               1.9       0.3       3.0       3.7       3.5       3.3
10 H  px              0.1       0.0       0.2       0.2       0.1       0.1
11 H  s               0.2       2.7       0.0       7.4       0.6       0.5
11 H  pz              0.0       0.2       0.0       0.4       0.0       0.0
12 H  s               0.3       4.1       0.0       3.6       0.0       7.8
12 H  py              0.0       0.3       0.0       0.2       0.0       0.2
13 H  s               2.8       0.2       3.9       2.3       5.3       0.0
13 H  px              0.1       0.0       0.1       0.0       0.0       0.0
13 H  py              0.2       0.0       0.1       0.1       0.2       0.0
14 H  s               2.6       0.2       2.8       4.9       2.4       2.2
14 H  pz              0.2       0.0       0.2       0.3       0.1       0.1
15 H  s               0.5       3.2       4.3       2.4       4.4       0.9
15 H  pz              0.0       0.3       0.3       0.1       0.1       0.0
16 H  s               0.4       3.5       4.8       1.1       7.4       2.0
16 H  pz              0.0       0.1       0.1       0.1       0.0       0.0
16 H  px              0.0       0.0       0.1       0.0       0.0       0.1
16 H  py              0.0       0.2       0.2       0.0       0.2       0.0

                     18        19        20        21        22        23   
                  -0.42363  -0.39042  -0.38545  -0.36954  -0.35313  -0.33441
                   2.00000   2.00000   2.00000   2.00000   2.00000   2.00000
                  --------  --------  --------  --------  --------  --------
 0 C  s               0.1       0.0       0.0       0.0       0.1       0.1
 0 C  pz              5.5       1.5      17.7       0.1       1.2      17.5
 0 C  px              0.0      16.3       0.1       6.3      11.7       0.9
 0 C  py             11.0       0.4       1.4       9.2       5.7       0.0
 0 C  dz2             0.0       0.0       0.0       0.0       0.1       0.1
 0 C  dxz             0.1       0.0       0.1       0.0       0.1       0.1
 0 C  dyz             0.0       0.0       0.0       0.2       0.0       0.0
 0 C  dxy             0.0       0.0       0.1       0.0       0.2       0.1
 1 C  s               0.1       0.1       0.0       0.3       0.1       0.1
 1 C  pz             13.7       0.3       1.2       1.9       0.9       9.0
 1 C  px              0.6       9.6       0.1       1.4       1.2       0.8
 1 C  py              0.9       0.0       6.7       3.9       4.4       0.8
 1 C  dyz             0.0       0.0       0.0       0.1       0.0       0.0
 1 C  dx2y2           0.0       0.1       0.0       0.0       0.0       0.1
 1 C  dxy             0.0       0.0       0.0       0.0       0.2       0.0
 2 C  s               0.0       0.0       0.2       0.7       0.4       0.0
 2 C  pz              4.9       1.2      13.5       2.4       0.0       0.8
 2 C  px              3.7       3.7       0.1       0.7       6.0       5.2
 2 C  py              7.9       0.0       0.7       0.1       4.7       0.1
 2 C  dxz             0.0       0.0       0.0       0.0       0.1       0.1
 2 C  dx2y2           0.0       0.1       0.0       0.0       0.0       0.1
 2 C  dxy             0.0       0.1       0.0       0.1       0.0       0.0
 3 C  s               0.1       0.3       0.1       0.3       0.0       0.1
 3 C  pz              0.4       1.1       3.8       0.0       2.1      16.7
 3 C  px              3.6       3.2       1.3       0.4       8.5       1.2
 3 C  py              5.7       1.6       0.0      21.1       0.4       0.3
 3 C  dz2             0.0       0.0       0.1       0.0       0.0       0.3
 3 C  dyz             0.0       0.0       0.1       0.2       0.0       0.1
 3 C  dx2y2           0.0       0.0       0.0       0.0       0.2       0.0
 3 C  dxy             0.0       0.0       0.0       0.3       0.0       0.0
 4 C  s               0.1       0.1       0.1       0.5       0.2       0.1
 4 C  pz              9.8       0.4      12.2       0.0       0.7       3.8
 4 C  px              0.1      14.5       1.1       0.1       7.2       0.3
 4 C  py              4.1       1.1       0.3      18.9       1.1       0.0
 4 C  dz2             0.1       0.0       0.2       0.0       0.0       0.2
 4 C  dyz             0.0       0.0       0.0       0.1       0.0       0.1
 4 C  dx2y2           0.0       0.1       0.0       0.0       0.3       0.0
 5 Cl s               0.0       2.1       0.4       0.0       0.5       0.1
 5 Cl pz              1.7       2.1       1.9       0.1       3.1       1.1
 5 Cl px              0.2      19.6       6.3       0.4      11.6       3.4
 5 Cl py              0.8       1.3       0.2       5.5       1.8       0.4
 5 Cl dz2             0.0       0.0       0.1       0.0       0.0       0.0
 5 Cl dxz             0.2       0.1       0.1       0.0       0.1       0.0
 5 Cl dx2y2           0.0       0.2       0.1       0.0       0.1       0.0
 5 Cl dxy             0.1       0.1       0.0       0.4       0.1       0.0
 6 H  s               4.2       3.0       3.0       6.4       1.0       2.0
 6 H  px              0.1       0.0       0.1       0.0       0.0       0.1
 6 H  py              0.0       0.1       0.0       0.0       0.1       0.0
 7 H  s               2.3       0.3       7.4       0.0       1.0       9.5
 8 H  s               0.9       6.3       0.1       0.2      11.0       0.0
 8 H  pz              0.0       0.0       0.1       0.0       0.0       0.1
 8 H  py              0.0       0.1       0.0       0.1       0.0       0.0
 9 H  s               4.4       0.4       1.0       0.1       0.0       4.8
10 H  s               0.1       2.9       0.3       0.0       3.2       0.1
11 H  s               2.3       0.2       6.3       0.3       0.1       0.8
11 H  pz              0.1       0.0       0.2       0.0       0.0       0.0
12 H  s               3.1       0.3       0.0       0.4       3.2       0.4
12 H  pz              0.0       0.0       0.1       0.0       0.0       0.0
13 H  s               0.3       0.4       0.4       8.7       1.5       2.0
13 H  pz              0.0       0.0       0.0       0.1       0.0       0.1
13 H  px              0.1       0.0       0.0       0.1       0.0       0.1
14 H  s               0.2       0.3       2.2       0.5       1.0      10.6
14 H  pz              0.0       0.0       0.0       0.0       0.0       0.1
14 H  py              0.1       0.0       0.0       0.2       0.0       0.0
15 H  s               4.8       0.0       6.8       0.1       0.1       3.5
15 H  pz              0.1       0.0       0.1       0.0       0.0       0.0
15 H  px              0.0       0.1       0.0       0.0       0.1       0.0
15 H  py              0.0       0.0       0.0       0.2       0.0       0.0
16 H  s               0.0       3.1       0.7       5.7       1.2       0.5
16 H  py              0.0       0.1       0.0       0.0       0.0       0.0

                     24        25        26        27        28        29   
                  -0.30964  -0.30366  -0.29631  -0.26297  -0.26066   0.00680
                   2.00000   2.00000   2.00000   2.00000   2.00000   0.00000
                  --------  --------  --------  --------  --------  --------
 0 C  s               0.7       0.2       0.0       0.0       0.0       1.3
 0 C  pz              5.6       0.5       0.5       0.0       0.0       0.0
 0 C  px              1.1       0.1       8.6       0.0       0.0       0.6
 0 C  py              4.4      12.9       0.4       0.0       0.1       0.2
 0 C  dz2             0.1       0.2       0.0       0.0       0.0       0.0
 0 C  dxz             0.0       0.3       0.0       0.0       0.0       0.0
 0 C  dyz             0.1       0.0       0.2       0.0       0.0       0.0
 0 C  dxy             0.0       0.0       0.4       0.0       0.0       0.0
 1 C  s               0.4       0.1       0.2       0.0       0.0       0.9
 1 C  pz             14.3       1.7       1.5       0.0       0.0       0.0
 1 C  px              0.2       1.5      18.0       0.0       0.4       0.1
 1 C  py              1.0      16.8       1.0       0.0       0.3       0.0
 1 C  dz2             0.3       0.2       0.0       0.0       0.0       0.0
 1 C  dxz             0.0       0.4       0.0       0.0       0.0       0.0
 1 C  dyz             0.2       0.0       0.2       0.0       0.0       0.0
 1 C  dx2y2           0.1       0.1       0.0       0.0       0.0       0.0
 1 C  dxy             0.2       0.0       0.4       0.0       0.0       0.0
 2 C  s               0.3       0.2       0.1       0.0       0.1       1.8
 2 C  pz             17.7       0.3       1.5       0.0       0.0       0.1
 2 C  px              0.8       0.1      11.9       0.1       2.0       0.7
 2 C  py              1.1      15.9       2.8       0.0       1.2       0.1
 2 C  dz2             0.9       0.0       0.0       0.0       0.0       0.1
 2 C  dxz             0.0       0.0       0.1       0.0       0.0       0.0
 2 C  dx2y2           0.0       0.5       0.1       0.0       0.1       0.1
 2 C  dxy             0.0       0.1       0.2       0.0       0.0       0.2
 3 C  s               0.3       0.5       0.3       0.0       0.4       0.6
 3 C  pz              7.3       0.8       0.9       0.2       0.2       0.0
 3 C  px              1.8       0.8       9.8       0.2       3.3       0.0
 3 C  py              0.2       1.2       3.5       0.1       3.3       0.3
 3 C  dz2             0.4       0.0       0.0       0.0       0.0       0.1
 3 C  dxz             0.1       0.0       0.1       0.0       0.0       0.0
 3 C  dx2y2           0.0       0.1       0.0       0.0       0.1       0.3
 3 C  dxy             0.1       0.2       0.3       0.0       0.0       0.7
 4 C  s               0.3       0.3       0.0       0.0       0.1       8.1
 4 C  pz              0.8       0.1       0.0       4.2       0.0       1.0
 4 C  px              0.1       0.7       0.6       0.2       0.1      27.0
 4 C  py              0.7       1.2       1.3       0.1       4.6       0.1
 4 C  dz2             0.1       0.0       0.0       0.3       0.0       0.2
 4 C  dxz             0.0       0.0       0.0       0.4       0.0       0.1
 4 C  dx2y2           0.0       0.0       0.2       0.0       0.0       0.9
 4 C  dxy             0.0       0.0       0.1       0.0       0.5       0.0
 5 Cl s               0.0       0.0       0.0       0.0       0.0       4.7
 5 Cl pz              0.4       0.2       1.4      80.9       0.7       0.9
 5 Cl px              0.3       1.8       2.5       3.1       0.2      25.8
 5 Cl py              0.1       6.8       0.2       1.1      77.0       0.0
 5 Cl dz2             0.0       0.0       0.0       0.0       0.0       2.8
 5 Cl dxz             0.0       0.0       0.0       0.1       0.0       1.4
 5 Cl dx2y2           0.0       0.0       0.0       0.0       0.0      10.7
 5 Cl dxy             0.0       0.1       0.0       0.0       0.2       0.0
 6 H  s               0.1       3.1       4.9       0.0       0.0       0.2
 7 H  s               2.0       3.8       0.3       0.0       0.0       0.0
 8 H  s               0.1       2.5       4.6       0.0       0.1       0.5
 8 H  px              0.0       0.1       0.0       0.0       0.0       0.4
 9 H  s               8.0       5.7       0.4       0.0       0.3       0.1
 9 H  px              0.0       0.0       0.1       0.0       0.0       0.0
10 H  s               0.3       5.9       8.2       0.0       0.6       0.2
10 H  pz              0.1       0.0       0.0       0.0       0.0       0.0
10 H  px              0.0       0.1       0.0       0.0       0.0       0.0
10 H  py              0.0       0.0       0.1       0.0       0.0       0.0
11 H  s              15.3       0.0       0.2       0.0       0.0       0.2
11 H  px              0.0       0.0       0.1       0.0       0.0       0.0
11 H  py              0.0       0.1       0.0       0.0       0.0       0.0
12 H  s               2.8       9.4       0.0       0.0       1.4       1.3
12 H  pz              0.1       0.1       0.0       0.0       0.0       0.0
12 H  px              0.0       0.0       0.1       0.0       0.0       0.1
12 H  py              0.0       0.0       0.0       0.0       0.0       0.1
13 H  s               0.1       1.1       8.4       0.3       0.0       0.8
14 H  s               7.0       0.1       0.5       0.4       0.0       0.2
15 H  s               0.9       0.3       0.1       4.8       0.1       0.2
15 H  px              0.0       0.0       0.0       0.0       0.0       1.1
16 H  s               0.0       0.0       1.7       2.9       2.0       0.1
16 H  px              0.0       0.0       0.0       0.0       0.0       1.2

                     30        31        32        33        34        35   
                   0.08982   0.09529   0.10583   0.10838   0.12548   0.13116
                   0.00000   0.00000   0.00000   0.00000   0.00000   0.00000
                  --------  --------  --------  --------  --------  --------
 0 C  s              10.4       3.1       7.6       6.9       4.0       0.1
 0 C  pz              1.9       0.5       6.4       0.2       5.0       4.1
 0 C  px              0.1       1.4       0.0       2.2       4.7       1.1
 0 C  py              1.0       6.9       1.3       0.1      11.6       1.2
 0 C  dxz             0.0       0.2       0.2       0.0       0.4       0.0
 0 C  dyz             0.4       0.2       0.0       0.2       0.9       0.1
 0 C  dx2y2           0.1       0.0       0.2       0.0       0.2       0.0
 0 C  dxy             0.1       0.3       0.0       0.0       0.2       0.1
 1 C  s               9.6       0.7       0.1       4.3       9.0       0.9
 1 C  pz              3.6       2.7       3.7       0.6      11.2       3.9
 1 C  px              0.4       1.2       5.1       3.9       2.3       0.9
 1 C  py              0.1       5.3       2.4       1.2       2.6       1.4
 1 C  dz2             0.0       0.0       0.1       0.1       0.1       0.0
 1 C  dxz             0.1       0.0       0.7       0.0       0.0       0.5
 1 C  dyz             0.0       1.2       0.0       0.5       0.1       0.0
 1 C  dx2y2           0.1       0.0       0.1       0.0       0.6       0.5
 1 C  dxy             0.1       0.0       0.3       0.2       1.0       0.1
 2 C  s               2.0      10.3       1.9       0.7       2.3       3.7
 2 C  pz              0.8       0.8       3.4       0.2       5.8      13.0
 2 C  px              1.7       1.5       1.4      10.5       1.0       4.7
 2 C  py              1.0       3.0       4.1       0.5       9.3       3.9
 2 C  dz2             0.0       0.4       0.2       0.3       0.5       0.6
 2 C  dxz             0.0       0.0       0.0       0.6       0.0       0.3
 2 C  dyz             0.0       0.1       0.3       0.1       0.6       0.1
 2 C  dx2y2           0.0       0.4       0.9       0.1       0.3       1.3
 3 C  s               3.5       7.8       0.4       4.6       1.2       5.9
 3 C  pz              0.7       0.1       2.3       0.8       2.1       6.2
 3 C  px              0.6       2.0       4.9       4.5       1.1       4.8
 3 C  py              1.5       5.7       0.5       2.1       1.3       3.9
 3 C  dz2             0.1       0.0       1.0       0.1       0.0       0.0
 3 C  dxz             0.2       0.1       0.1       0.1       0.0       0.6
 3 C  dyz             0.1       0.0       0.0       0.3       0.2       0.3
 3 C  dx2y2           0.2       0.5       0.4       0.4       0.2       0.1
 4 C  s               9.8       2.9       0.5      12.8       0.2       0.8
 4 C  pz              0.2       1.7      11.0       2.4       0.8       4.0
 4 C  px              7.7       0.9       1.4       6.0       0.2       0.3
 4 C  py              3.3      10.3       4.0       0.7       0.6       0.1
 4 C  dz2             0.2       0.1       0.0       0.7       0.2       0.2
 4 C  dxz             0.2       0.1       0.2       0.0       0.0       0.0
 4 C  dyz             0.3       0.1       0.6       0.0       0.1       0.0
 4 C  dx2y2           0.2       0.5       0.0       0.3       0.2       0.0
 5 Cl s               1.5       0.1       0.4       1.9       0.0       0.4
 5 Cl pz              0.1       0.0       0.0       0.0       0.1       0.4
 5 Cl px              1.9       0.2       0.3       0.0       0.1       0.2
 5 Cl py              0.1       0.2       0.1       0.1       0.0       0.3
 5 Cl dz2             0.1       0.1       0.8       0.7       0.0       0.2
 5 Cl dxz             0.1       0.1       0.3       1.3       0.0       0.0
 5 Cl dyz             0.3       0.2       0.4       0.0       0.0       0.1
 5 Cl dx2y2           0.2       1.4       0.0       1.7       0.3       0.0
 5 Cl dxy             0.1       0.1       0.2       0.1       0.0       0.2
 6 H  s               0.7       1.9       2.3       1.0       0.2       0.3
 6 H  pz              0.5       0.0       0.4       0.5       0.4       0.0
 6 H  px              0.1       0.0       0.5       0.1       0.1       0.3
 6 H  py              0.1       0.0       0.0       0.2       0.6       0.0
 7 H  s               2.1       0.5       0.2       2.1       0.2       1.4
 7 H  pz              0.2       0.1       0.5       0.7       0.3       0.3
 7 H  px              0.1       0.3       0.0       0.1       0.3       0.0
 7 H  py              0.5       0.0       0.0       0.2       0.3       0.3
 8 H  s               1.2       1.5       1.9       0.0       0.2       0.1
 8 H  pz              0.0       0.0       0.5       0.0       0.0       0.1
 8 H  px              0.8       0.3       1.0       0.1       0.0       0.0
 8 H  py              0.1       0.9       0.0       0.0       0.3       0.0
 9 H  s               3.8       1.1       4.7       1.3       0.1       0.1
 9 H  pz              0.7       0.0       0.4       0.2       1.4       0.0
 9 H  px              0.8       0.0       0.8       0.0       0.1       0.0
 9 H  py              0.2       0.5       0.0       0.4       0.1       0.0
10 H  s               2.0       0.4       0.1       0.7       2.3       2.4
10 H  pz              0.0       0.3       0.5       0.0       0.4       0.2
10 H  px              0.9       0.0       0.2       0.7       0.0       0.6
10 H  py              0.4       0.3       0.2       0.1       0.0       0.0
11 H  s               0.8       4.3       1.9       0.2       1.8       5.6
11 H  pz              0.3       1.7       0.2       0.0       0.0       2.9
11 H  px              0.0       0.0       0.0       0.7       0.0       0.5
11 H  py              0.0       0.2       0.6       0.0       0.3       0.1
12 H  s               0.3       1.7       2.2       0.3       1.0       4.6
12 H  pz              0.1       0.5       0.4       0.0       0.4       0.0
12 H  px              0.1       0.0       0.0       0.3       0.1       0.0
12 H  py              0.2       1.1       0.0       0.1       1.3       0.5
13 H  s               0.7       0.8       0.1       0.4       1.8       0.3
13 H  pz              0.4       0.2       0.5       0.4       0.2       0.0
13 H  px              0.0       0.0       0.3       0.3       0.0       0.3
13 H  py              0.0       0.9       0.0       0.0       0.8       0.1
14 H  s               1.2       0.5       3.0       1.4       0.1       2.2
14 H  pz              0.5       0.5       0.9       0.5       0.0       1.5
14 H  px              0.1       0.2       0.2       0.2       0.0       0.6
14 H  py              0.1       0.1       0.0       0.3       0.1       0.2
15 H  s               1.7       0.1       1.5       6.1       0.7       1.7
15 H  pz              0.8       0.0       0.5       2.6       0.1       0.8
15 H  px              0.3       0.1       0.3       0.0       0.0       0.0
15 H  py              0.1       0.2       0.5       0.0       0.0       0.0
16 H  s               7.4       1.4       1.6       1.5       0.5       0.0
16 H  pz              1.5       0.0       0.2       0.8       0.0       0.0
16 H  px              0.2       0.1       0.1       0.0       0.0       0.0
16 H  py              1.1       1.2       0.0       0.3       0.3       0.0

                     36        37        38        39        40        41   
                   0.14311   0.15945   0.16194   0.17555   0.17574   0.19292
                   0.00000   0.00000   0.00000   0.00000   0.00000   0.00000
                  --------  --------  --------  --------  --------  --------
 0 C  s               5.8       0.3       0.1       0.8       0.3       1.4
 0 C  pz              1.2       3.3       5.4       1.9       2.0       1.5
 0 C  px              0.7       4.8       1.2      10.6       2.0      28.8
 0 C  py              7.0       0.1       4.2       7.9       0.7       2.8
 0 C  dz2             0.1       0.0       0.6       1.1       0.2       0.2
 0 C  dxz             0.1       0.1       1.1       0.4       0.0       0.0
 0 C  dyz             0.1       0.0       0.0       0.2       0.1       0.0
 0 C  dx2y2           0.1       0.1       0.4       0.6       0.2       0.3
 0 C  dxy             0.0       0.3       0.4       1.7       0.4       0.1
 1 C  s               3.3       1.5       0.4       1.6       0.1       0.1
 1 C  pz              0.3       5.5       6.1       1.1       0.7       0.3
 1 C  px              3.9       2.5       0.5       0.0       9.5       2.3
 1 C  py              3.5       5.1       3.9       0.8       1.2       1.8
 1 C  dz2             0.1       0.2       1.6       0.0       0.1       0.1
 1 C  dxz             0.2       0.1       0.7       0.4       0.0       0.2
 1 C  dyz             0.0       0.4       0.0       0.1       0.6       0.3
 1 C  dx2y2           0.0       0.0       0.0       0.4       0.2       0.1
 1 C  dxy             0.2       0.0       0.0       0.1       1.0       0.0
 2 C  s               0.3       3.7       2.5       1.0       0.5       0.3
 2 C  pz              0.6       1.1       1.8       0.1       0.8       4.0
 2 C  px              4.5       1.3       0.1       1.5       3.1       0.8
 2 C  py              4.0       6.9       1.1       0.6       1.0       6.5
 2 C  dz2             0.2       0.2       0.7       0.1       0.0       0.2
 2 C  dxz             0.1       0.2       0.1       0.1       0.4       0.3
 2 C  dyz             0.1       0.0       0.0       0.1       0.1       0.4
 2 C  dx2y2           0.1       0.0       0.2       0.0       0.4       0.1
 2 C  dxy             1.0       0.0       0.1       0.0       0.3       0.1
 3 C  s               2.9       0.3       2.5       0.7       4.2       1.2
 3 C  pz              0.9       1.6       5.2       3.2       1.1       4.7
 3 C  px              2.2       1.4       2.6       0.4       9.1       1.2
 3 C  py              8.6       0.9       1.0       0.1      17.5       1.8
 3 C  dz2             0.0       0.4       0.2       0.6       0.1       0.4
 3 C  dxz             0.0       0.0       0.1       0.1       0.3       0.0
 3 C  dyz             0.7       0.4       0.1       0.3       0.0       0.0
 3 C  dx2y2           0.2       0.1       0.2       0.0       0.1       0.0
 3 C  dxy             1.3       0.0       0.0       0.0       0.3       0.0
 4 C  s               1.1       0.1       0.0       0.3       1.5       0.4
 4 C  pz              0.3       5.1       3.9       1.5       0.5       0.2
[...]
 0 C  dxy             0.1       0.0       2.1       0.0       0.0       0.0
 1 C  s               1.1       0.1       0.1       0.2      12.8      31.3
 1 C  pz              3.1       1.3       0.1       0.0       0.0       0.0
 1 C  px              0.5       1.4       3.6       0.0       0.0       0.0
 1 C  py              0.0       0.1       1.5       0.0       0.0       0.0
 1 C  dz2             0.8       1.4       4.4       0.0       0.0       0.0
 1 C  dxz             1.1       0.5       2.5       0.0       0.0       0.0
 1 C  dyz             0.1       2.3       1.3       0.0       0.0       0.0
 1 C  dx2y2           0.4       0.1       0.8       0.0       0.0       0.0
 1 C  dxy             4.0       0.0       3.2       0.0       0.0       0.0
 2 C  s               0.1       1.0       0.1       1.9       1.6       0.2
 2 C  pz              0.0       2.8       2.7       0.0       0.0       0.0
 2 C  px              1.9       2.6       0.1       0.0       0.0       0.0
 2 C  py              0.5       0.0       4.4       0.0       0.0       0.0
 2 C  dz2             0.0       6.8       8.5       0.0       0.0       0.0
 2 C  dxz             0.9       0.1       0.3       0.0       0.0       0.0
 2 C  dyz             0.9       0.4       0.4       0.0       0.0       0.0
 2 C  dx2y2           0.8       1.7       3.0       0.0       0.0       0.0
 2 C  dxy             1.3       0.0       2.3       0.0       0.0       0.0
 3 C  s               0.5       1.1       0.0       8.3      25.5      25.3
 3 C  pz              1.6       6.5       0.0       0.0       0.0       0.0
 3 C  px              2.4       1.4       0.0       0.0       0.0       0.0
 3 C  py              2.1       0.0       0.1       0.0       0.0       0.0
 3 C  dz2             1.1      14.4       0.3       0.0       0.0       0.0
 3 C  dxz             2.9       0.1       0.0       0.0       0.0       0.0
 3 C  dyz             3.1       0.9       0.1       0.0       0.0       0.0
 3 C  dx2y2           1.1       0.6       0.2       0.0       0.0       0.0
 3 C  dxy             5.3       0.0       0.0       0.0       0.0       0.0
 4 C  s               0.1       0.1       0.0      87.3       0.2       7.6
 4 C  pz              0.5       0.3       0.0       0.0       0.0       0.0
 4 C  px              0.0       0.0       0.2       0.0       0.0       0.0
 4 C  py              0.7       0.1       0.1       0.0       0.0       0.0
 4 C  dz2             0.4       1.1       0.0       0.0       0.0       0.0
 4 C  dxz             0.4       0.1       0.0       0.0       0.0       0.0
 4 C  dyz             1.5       0.0       0.1       0.0       0.0       0.0
 4 C  dxy             1.0       0.0       0.1       0.0       0.0       0.0
 6 H  s               0.1       0.0       0.6       0.0       0.0       0.0
 6 H  pz              0.0       0.0       0.2       0.0       0.0       0.0
 6 H  px              0.4       0.0       0.6       0.0       0.0       0.0
 6 H  py              0.2       0.0       0.4       0.0       0.0       0.0
 7 H  s               2.6       0.8       0.0       0.0       0.0       0.0
 7 H  pz              4.8       1.5       0.1       0.0       0.0       0.0
 7 H  px              1.1       0.6       0.0       0.0       0.0       0.0
 7 H  py              0.5       0.1       0.0       0.0       0.0       0.0
 8 H  s               0.5       0.1       1.6       0.0       0.0       0.0
 8 H  pz              0.2       0.0       0.1       0.0       0.0       0.0
 8 H  px              0.5       0.0       2.0       0.0       0.0       0.0
 8 H  py              0.3       0.1       2.0       0.0       0.0       0.0
 9 H  s               1.3       1.6       1.9       0.0       0.0       0.0
 9 H  pz              2.6       2.7       3.5       0.0       0.0       0.0
 9 H  px              1.3       0.6       0.4       0.0       0.0       0.0
 9 H  py              0.5       0.2       0.1       0.0       0.0       0.0
10 H  s               0.5       0.4       4.3       0.0       0.0       0.0
10 H  pz              0.0       0.3       0.5       0.0       0.0       0.0
10 H  px              1.6       0.2       6.5       0.0       0.0       0.0
10 H  py              0.3       0.4       2.0       0.0       0.0       0.0
11 H  s               0.0       2.7       3.2       0.0       0.0       0.0
11 H  pz              0.1       7.4       6.8       0.0       0.0       0.0
11 H  px              0.1       0.0       0.2       0.0       0.0       0.0
11 H  py              0.0       0.1       0.1       0.0       0.0       0.0
12 H  s               0.0       0.0       5.1       0.0       0.0       0.0
12 H  pz              0.0       0.2       0.4       0.0       0.0       0.0
12 H  px              0.2       0.3       0.8       0.0       0.0       0.0
12 H  py              0.1       0.1       9.6       0.0       0.0       0.0
13 H  s               5.4       0.6       0.0       0.0       0.0       0.0
13 H  pz              2.6       0.0       0.0       0.0       0.0       0.0
13 H  px              3.3       0.9       0.0       0.0       0.0       0.0
13 H  py              8.3       0.4       0.1       0.0       0.0       0.0
14 H  s               1.0       6.1       0.0       0.0       0.0       0.0
14 H  pz              1.7      15.8       0.1       0.0       0.0       0.0
14 H  px              0.2       0.1       0.0       0.0       0.0       0.0
14 H  py              0.3       0.4       0.0       0.0       0.0       0.0
15 H  s               0.4       0.4       0.0       0.0       0.0       0.0
15 H  pz              0.7       1.0       0.0       0.0       0.0       0.0
15 H  py              0.1       0.1       0.0       0.0       0.0       0.0
16 H  s               1.1       0.0       0.0       0.0       0.0       0.0
16 H  pz              0.7       0.0       0.0       0.0       0.0       0.0
16 H  px              0.3       0.0       0.1       0.0       0.0       0.0
16 H  py              1.7       0.1       0.0       0.0       0.0       0.0

                    174       175       176   
                  22.02367  22.08488  25.15650
                   0.00000   0.00000   0.00000
                  --------  --------  --------
 0 C  s               0.5       2.3       0.0
 1 C  s              17.9      37.5       0.0
 2 C  s              63.1      32.9       0.1
 3 C  s              14.1      26.5       0.1
 4 C  s               4.1       0.5       0.2
 4 C  px              0.0       0.0       0.1
 5 Cl s               0.0       0.1      99.2


                      *****************************
                      * MAYER POPULATION ANALYSIS *
                      *****************************

  NA   - Mulliken gross atomic population
  ZA   - Total nuclear charge
  QA   - Mulliken gross atomic charge
  VA   - Mayer's total valence
  BVA  - Mayer's bonded valence
  FA   - Mayer's free valence

  ATOM       NA         ZA         QA         VA         BVA        FA
  0 C      6.4725     6.0000    -0.4725     3.8503     3.8503     0.0000
  1 C      6.2576     6.0000    -0.2576     3.6066     3.6066     0.0000
  2 C      6.2553     6.0000    -0.2553     3.5431     3.5431     0.0000
  3 C      6.2959     6.0000    -0.2959     3.7147     3.7147     0.0000
  4 C      6.1983     6.0000    -0.1983     3.7861     3.7861     0.0000
  5 Cl    17.2019    17.0000    -0.2019     1.0289     1.0289     0.0000
  6 H      0.8520     1.0000     0.1480     0.9623     0.9623    -0.0000
  7 H      0.8492     1.0000     0.1508     0.9624     0.9624    -0.0000
  8 H      0.8585     1.0000     0.1415     0.9657     0.9657     0.0000
  9 H      0.8552     1.0000     0.1448     0.9607     0.9607     0.0000
 10 H      0.8572     1.0000     0.1428     0.9614     0.9614    -0.0000
 11 H      0.8547     1.0000     0.1453     0.9638     0.9638    -0.0000
 12 H      0.8477     1.0000     0.1523     0.9595     0.9595     0.0000
 13 H      0.8432     1.0000     0.1568     0.9594     0.9594     0.0000
 14 H      0.8361     1.0000     0.1639     0.9589     0.9589     0.0000
 15 H      0.8329     1.0000     0.1671     0.9459     0.9459     0.0000
 16 H      0.8320     1.0000     0.1680     0.9463     0.9463     0.0000

  Mayer bond orders larger than 0.100000
B(  0-C ,  1-C ) :   0.9105 B(  0-C ,  6-H ) :   0.9727 B(  0-C ,  7-H ) :   0.9866 
B(  0-C ,  8-H ) :   0.9705 B(  1-C ,  2-C ) :   0.8430 B(  1-C ,  9-H ) :   0.9755 
B(  1-C , 10-H ) :   0.9617 B(  2-C ,  3-C ) :   0.8789 B(  2-C , 11-H ) :   0.9844 
B(  2-C , 12-H ) :   0.9654 B(  3-C ,  4-C ) :   0.8993 B(  3-C , 13-H ) :   0.9686 
B(  3-C , 14-H ) :   0.9923 B(  4-C ,  5-Cl) :   0.9812 B(  4-C , 15-H ) :   0.9576 
B(  4-C , 16-H ) :   0.9560 

-------
TIMINGS
-------

Total SCF time: 0 days 0 hours 0 min 16 sec 

Total time                  ....      16.590 sec
Sum of individual times     ....      16.148 sec  ( 97.3%)

SCF preparation             ....       0.164 sec  (  1.0%)
Fock matrix formation       ....      15.163 sec  ( 91.4%)
  Startup                   ....       0.054 sec  (  0.4% of F)
  Split-RI-J                ....       2.638 sec  ( 17.4% of F)
  XC integration            ....      11.999 sec  ( 79.1% of F)
    XC Preparation          ....       0.000 sec  (  0.0% of XC)
    Basis function eval.    ....       2.288 sec  ( 19.1% of XC)
    Density eval.           ....       3.349 sec  ( 27.9% of XC)
    XC-Functional eval.     ....       1.798 sec  ( 15.0% of XC)
    XC-Potential eval.      ....       3.705 sec  ( 30.9% of XC)
Diagonalization             ....       0.000 sec  (  0.0%)
Density matrix formation    ....       0.225 sec  (  1.4%)
Total Energy calculation    ....       0.035 sec  (  0.2%)
Population analysis         ....       0.093 sec  (  0.6%)
Orbital Transformation      ....       0.052 sec  (  0.3%)
Orbital Orthonormalization  ....       0.000 sec  (  0.0%)
DIIS solution               ....       0.364 sec  (  2.2%)
  MO trafo                  ....       0.000 sec  (  0.0 % of DIIS)
  Orb grad                  ....       0.000 sec  (  0.0 % of DIIS)
  Energy W gradient         ....       0.000 sec  (  0.0 % of DIIS)
  DIIS error                ....       0.008 sec  (  2.2 % of DIIS)
  DIIS work                 ....       0.308 sec  ( 84.7 % of DIIS)
  Form Q                    ....       0.000 sec  (  0.0 % of DIIS)
  Form QpQm                 ....       0.000 sec  (  0.0 % of DIIS)
  Exp/Cayley                ....       0.000 sec  (  0.0 % of DIIS)
  Orb update                ....       0.000 sec  (  0.0 % of DIIS)
  Wake-sleep                ....       0.024 sec  (  6.6 % of DIIS)
SOSCF solution              ....       0.052 sec  (  0.3%)
  MO trafo                  ....       0.041 sec  ( 79.2 % of SOSCF)
  Orb grad                  ....       0.001 sec  (  1.7 % of SOSCF)
  Rot update                ....       0.000 sec  (  0.1 % of SOSCF)
  Step                      ....       0.010 sec  ( 18.8 % of SOSCF)
Finished LeanSCF after  16.7 sec

Maximum memory used throughout the entire LEANSCF-calculation: 18.7 MB


-------------------------------------------------------------------------------
                          DFT DISPERSION CORRECTION                            
                                                                               
                                DFTD4 V3.4.0                                   
-------------------------------------------------------------------------------
The R2SCAN3C composite method is recognized
Using three-body term ABC
Active option DFTDOPT                   ...         5   

-------------------------   ----------------
Dispersion correction           -0.004449148
-------------------------   ----------------

------------------   -----------------
gCP correction             0.010298115
------------------   -----------------

-------------------------   --------------------
FINAL SINGLE POINT ENERGY      -657.264404649914
-------------------------   --------------------


------------------------------------------------------------------------------
                              ORCA PROPERTY CALCULATIONS
------------------------------------------------------------------------------

GBWName                                 ... sp_gas.gbw
Number of atoms                         ...     17
Number of basis functions               ...    177
Max core memory                         ...   1024 MB

Electric properties:
Dipole moment                           ... YES
Quadrupole moment                       ...  NO
Static polarizability (Dipole/Dipole)   ...  NO
Static polarizability (Dipole/Quad.)    ...  NO
Static polarizability (Quad./Quad.)     ...  NO
Static polarizability (Velocity)        ...  NO

Atomic electric properties:
Dipole moment                           ...  NO
Quadrupole moment                       ...  NO
Static polarizability                   ...  NO

Choice of electric origin               ... Center of mass
Position of electric origin             ...     0.000027     0.000002    -0.000001

General magnetic properties:
Magnetizability                         ...  NO

EPR properties:
g-Tensor (aka g-matrix)                 ...  NO
Zero-Field splitting spin-orbit         ...  NO
Zero-field splitting spin-spin          ...  NO
Hyperfine couplings                     ...  NO (   0 nuclei)
Quadrupole couplings                    ...  NO (   0 nuclei)
Contact density                         ...  NO (   0 nuclei)

NMR properties:
Chemical shifts                         ...  NO (   0 nuclei)
Spin-rotation constants                 ...  NO (   0 nuclei)
Spin-spin couplings                     ...  NO (   0 nuclei,    0 pairs)

Choice of magnetic origin               ... GIAO
Position of magnetic origin             ...     0.000000     0.000000     0.000000

Properties with geometric perturbations:
SCF Hessian                             ...  NO
IR spectrum                             ...  NO
VCD spectrum                            ...  NO
X-ray spectroscopy properties:
SCF XES/XAS/RIXS spectra                ...  NO


-------------
DIPOLE MOMENT
-------------

Method             : SCF
Type of density    : Electron Density
Multiplicity       :   1
Irrep              :   0
Energy             :  -657.2702536175770547 Eh
Relativity type    : 
Basis              : AO
                                X                 Y                 Z
Electronic contribution:    -16.679350389      -1.390102186       0.760566924
Nuclear contribution   :     17.632501563       1.551417561      -0.861630201
                        -----------------------------------------
Total Dipole Moment    :      0.953151174       0.161315375      -0.101063277
                        -----------------------------------------
Magnitude (a.u.)       :      0.971974072
Magnitude (Debye)      :      2.470561753



--------------------
Rotational spectrum 
--------------------
 
Rotational constants in cm-1:             0.206372             0.037260             0.033465 
Rotational constants in MHz :          6186.890760          1117.029834          1003.252693 

Dipole components along the rotational axes: 
x,y,z [a.u.] :     0.962023     0.094484    -0.101581 
x,y,z [Debye]:     2.445267     0.240160    -0.258199 

 

Dipole moment calculation done in   0.0 sec 

Maximum memory used throughout the entire PROP-calculation: 10.4 MB

--------------------------------
SUGGESTED CITATIONS FOR THIS RUN
--------------------------------

Below you find a list of papers that are relevant to this ORCA run
We neither can nor want to force you to cite these papers, but we appreciate if you do
You receive ORCA, which is the product of decades of hard work by many enthusiastic individuals, for free
The only thing we kindly ask in return is that you cite our papers,
We deeply appreciate it, if you show your appreciation for ORCA by not just citing the generic ORCA reference.

Please note that relegating all ORCA citations to the supporting information does *not* help us.
SI sections are not indexed - citations you put there will not count into any citation statistics
But we need these citations in order to attract the funding resources that allow us to do what we are doing

Therefore, if you are a happy ORCA user, please consider citing a few of the papers listed below in the main body of your paper

In addition to the list printed below, the program has created the file sp_gas.bibtex that contains the list in bibtex format
You can import this file easily into all common literature databanks and citation aid programs


List of essential papers. We consider these as the minimum necessary citations

  1. Neese,F.
     Software update: the ORCA program system, version 5.0
     WIRES Comput. Molec. Sci., 2022 12(1)e1606
     doi.org/10.1002/wcms.1606
  2. Grimme,S.; Hansen,A.; Ehlert,S.; Mewes,J.
     r2SCAN-3c: A 'Swiss army knife' composite electronic-structure method
     J. Chem. Phys., 2021 154 064103
     doi.org/10.1063/5.0040021

List of papers to cite with high priority. The work reported in these papers was absolutely
necessary for this run to complete.
Our perspective: the developers of density functionals and basis sets usually get cited in chemistry papers
Good! But without the algorithms to do something with them, the functionals or basis sets would not do anything.
Hence, in our opinion, the algorithm design and method developments papers are equally worthy of getting cited

  1. Neese,F.
     An improvement of the resolution of the identity approximation for the formation of the Coulomb matrix
     J. Comp. Chem., 2003 24(14)1740-1747
     doi.org/10.1002/jcc.10318
  2. Neese,F.
     The SHARK Integral Generation and Digestion System
     J. Comp. Chem., 2022  1-16
     doi.org/10.1002/jcc.26942
  3. Lehtola,S.; Steigemann,C.; Oliveira,M.; Marques,M.
     Recent developments in Libxc - A comprehensive library of functionals for density functional theory
     Software X, 2018 7 
     doi.org/10.1016/j.softx.2017.11.002
  4. Caldeweyher,E.; Bannwarth,C.; Grimme,S.
     Extension of the D3 dispersion coefficient model
     J. Chem. Phys., 2017 147 034112-XXXX
     doi.org/10.1063/1.4993215
  5. Caldeweyher,E.; Ehlert,S.; Hansen,A.; Neugebauer,H.; Spicher,S.; Bannwarth,C.; Grimme,S.
     A generally applicable atomic-charge dependent London dispersion correction
     J. Chem. Phys., 2019 150 154122-XXXX
     doi.org/10.1063/1.5090222
  6. Caldeweyher,E.; Mewes,J.; Ehlert,S.; Grimme,S.
     Extension and evaluation of the D4 London-dispersion model for periodic systems
     Phys. Chem. Chem. Phys., 2020 22(16)8499-8512
     doi.org/10.1039/D0CP00502A

List of suggested additional citations. These are papers that are important in the 'surrounding' of 
of this run, or papers that preceded the highly important papers. If you like your results we are grateful for a citation.

  1. Neese,F.
     The ORCA program system
     WIRES Comput. Molec. Sci., 2012 2(1)73-78
     doi.org/10.1002/wcms.81
  2. Neese,F.
     Software update: the ORCA program system, version 4.0
     WIRES Comput. Molec. Sci., 2018 8(1)1-6
     doi.org/10.1002/wcms.1327
  3. Neese,F.; Wennmohs,F.; Becker,U.; Riplinger,C.
     The ORCA quantum chemistry program package
     J. Chem. Phys., 2020 152 Art. No. L224108
     doi.org/10.1063/5.0004608

List of optional additional citations

  1. Neese,F.
     Approximate second-order SCF convergence for spin unrestricted wavefunctions
     Chem. Phys. Lett., 2000 325(1-3)93-98
     doi.org/10.1016/s0009-2614(00)00662-x

Timings for individual modules:

Sum of individual times          ...       18.093 sec (=   0.302 min)
Startup calculation              ...        1.003 sec (=   0.017 min)   5.5 %
SCF iterations                   ...       16.978 sec (=   0.283 min)  93.8 %
Property calculations            ...        0.112 sec (=   0.002 min)   0.6 %
                             ****ORCA TERMINATED NORMALLY****
TOTAL RUN TIME: 0 days 0 hours 0 minutes 18 seconds 829 msec
