      -----------------------------------------------------------      
     |                   =====================                   |     
     |                           x T B                           |     
     |                   =====================                   |     
     |                         S. Grimme                         |     
     |          Mulliken Center for Theoretical Chemistry        |     
     |                    University of Bonn                     |     
      -----------------------------------------------------------      

   * xtb version 6.7.1 (edcfbbe) compiled by 'albert@albert-system' on 2024-07-22

   xtb is free software: you can redistribute it and/or modify it under
   the terms of the GNU Lesser General Public License as published by
   the Free Software Foundation, either version 3 of the License, or
   (at your option) any later version.
   
   xtb is distributed in the hope that it will be useful,
   but WITHOUT ANY WARRANTY; without even the implied warranty of
   MERCHANTABILITY or FITNESS FOR A PARTICULAR PURPOSE.  See the
   GNU Lesser General Public License for more details.
   
   Cite this work as:
   * C. Bannwarth, E. Caldeweyher, S. Ehlert, A. Hansen, P. Pracht,
     J. Seibert, S. Spicher, S. Grimme, WIREs Comput. Mol. Sci., 2020, 11,
     e01493. DOI: 10.1002/wcms.1493
   
   for GFN2-xTB:
   * C. Bannwarth, S. Ehlert and S. Grimme., J. Chem. Theory Comput., 2019,
     15, 1652-1671. DOI: 10.1021/acs.jctc.8b01176
   for GFN1-xTB:
   * S. Grimme, C. Bannwarth, P. Shushkov, J. Chem. Theory Comput., 2017,
     13, 1989-2009. DOI: 10.1021/acs.jctc.7b00118
   for GFN0-xTB:
   * P. Pracht, E. Caldeweyher, S. Ehlert, S. Grimme, ChemRxiv, 2019, preprint.
     DOI: 10.26434/chemrxiv.8326202.v1
   for GFN-FF:
   * S. Spicher and S. Grimme, Angew. Chem. Int. Ed., 2020, 59, 15665-15673.
     DOI: 10.1002/anie.202004239
   
   for ALPB and GBSA implicit solvation:
   * S. Ehlert, M. Stahn, S. Spicher, S. Grimme, J. Chem. Theory Comput.,
     2021, 17, 4250-4261. DOI: 10.1021/acs.jctc.1c00471
   
   for ddCOSMO and CPCM-X implicit solvation:
   * M. Stahn, S. Ehlert, S. Grimme, J. Phys. Chem. A,
     2023, XX, XXXX-XXXX. DOI: 10.1021/acs.jpca.3c04382
   
   for DFT-D4:
   * E. Caldeweyher, C. Bannwarth and S. Grimme, J. Chem. Phys., 2017,
     147, 034112. DOI: 10.1063/1.4993215
   * E. Caldeweyher, S. Ehlert, A. Hansen, H. Neugebauer, S. Spicher,
     C. Bannwarth and S. Grimme, J. Chem. Phys., 2019, 150, 154122.
     DOI: 10.1063/1.5090222
   * E. Caldeweyher, J.-M. Mewes, S. Ehlert and S. Grimme, Phys. Chem. Chem. Phys.
     2020, 22, 8499-8512. DOI: 10.1039/D0CP00502A
   
   for sTDA-xTB:
   * S. Grimme and C. Bannwarth, J. Chem. Phys., 2016, 145, 054103.
     DOI: 10.1063/1.4959605
   
   in the mass-spec context:
   * V. Asgeirsson, C. Bauer and S. Grimme, Chem. Sci., 2017, 8, 4879.
     DOI: 10.1039/c7sc00601b
   * J. Koopman and S. Grimme, ACS Omega 2019, 4, 12, 15120-15133.
     DOI: 10.1021/acsomega.9b02011
   
   for metadynamics refer to:
   * S. Grimme, J. Chem. Theory Comput., 2019, 155, 2847-2862
     DOI: 10.1021/acs.jctc.9b00143
   
   for SPH calculations refer to:
   * S. Spicher and S. Grimme, J. Chem. Theory Comput., 2021, 17, 1701-1714
     DOI: 10.1021/acs.jctc.0c01306
   
   for ONIOM refer to:
   * C. Plett, A. Katbashev, S. Ehlert, S. Grimme, M. Bursch,
     Phys. Chem. Chem. Phys., 2023, 25, 17860-17868. DOI: 10.1039/D3CP02178E
   
   for DIPRO refer to:
   * J. Kohn, N. Gildemeister, S. Grimme, D. Fazzi, A. Hansen,
     J. Chem. Phys., 2023, just accepted.
   
   for PTB refer to:
   * S. Grimme, M. Mueller, A. Hansen, J. Chem. Phys., 2023, 158, 124111.
     DOI: 10.1063/5.0137838
   
   with help from (in alphabetical order)
   P. Atkinson, C. Bannwarth, F. Bohle, G. Brandenburg, E. Caldeweyher
   M. Checinski, S. Dohm, S. Ehlert, S. Ehrlich, I. Gerasimov, C. Hölzer
   A. Katbashev, J. Kohn, J. Koopman, C. Lavigne, S. Lehtola, F. März, M. Müller,
   F. Musil, H. Neugebauer, J. Pisarek, C. Plett, P. Pracht, F. Pultar,
   J. Seibert, P. Shushkov, S. Spicher, M. Stahn, M. Steiner, T. Strunk,
   J. Stückrath, T. Rose, and J. Unsleber
   
 * started run on 2025/04/11 at 15:53:54.023     
   ID    Z sym.   atoms
    1    6 C      1-4, 7, 8
    2    8 O      5, 6
    3    1 H      9-20

           -------------------------------------------------
          |                Calculation Setup                |
           -------------------------------------------------

          program call               : /srv/scratch/z5358697/.xtb/bin/xtb solv.coord --gfn2 --sp --chrg 0 --norestart --parallel 1 --alpb water reference -I xtb_sp-xcontrol-inp
          hostname                   : k061
          coordinate file            : solv.coord
          omp threads                :                     1


           -------------------------------------------------
          |                 G F N 2 - x T B                 |
           -------------------------------------------------

        Reference                      10.1021/acs.jctc.8b01176
      * Hamiltonian:
        H0-scaling (s, p, d)           1.850000    2.230000    2.230000
        zeta-weighting                 0.500000
      * Dispersion:
        s8                             2.700000
        a1                             0.520000
        a2                             5.000000
        s9                             5.000000
      * Repulsion:
        kExp                           1.500000    1.000000
        rExp                           1.000000
      * Coulomb:
        alpha                          2.000000
        third order                    shell-resolved
        anisotropic                    true
        a3                             3.000000
        a5                             4.000000
        cn-shift                       1.200000
        cn-exp                         4.000000
        max-rad                        5.000000

      * Solvation model:               ALPB
        Solvent                        water
        Parameter file                 internal GFN2-xTB/ALPB
        Dielectric constant                8.0200E+01
        Reference state                gsolv=reference [X=1]
        Free energy shift                  2.8945E-03 Eh       1.8164E+00 kcal/mol
        Temperature                        2.9815E+02 K
        Density                            1.0000E+00 kg/L
        Solvent mass                       1.8000E+01 g/mol
        Interaction kernel             P16
        Born radius scaling (c1)           1.4744E+00
        Born radii integrator          GBOBC
        Born offset                        0.0000E+00 a0       0.0000E+00 AA
        H-bond correction              true
        Ion screening                  false
        Surface tension                    1.0000E-05 Eh       1.5569E+01 dyn/cm
        Grid points                               974 per atom

          ...................................................
          :                      SETUP                      :
          :.................................................:
          :  # basis functions                  44          :
          :  # atomic orbitals                  44          :
          :  # shells                           28          :
          :  # electrons                        48          :
          :  max. iterations                   250          :
          :  Hamiltonian                  GFN2-xTB          :
          :  restarted?                      false          :
          :  GBSA solvation                   true          :
          :  PC potential                    false          :
          :  electronic temp.          300.0000000     K    :
          :  accuracy                    1.0000000          :
          :  -> integral cutoff          0.2500000E+02      :
          :  -> integral neglect         0.1000000E-07      :
          :  -> SCF convergence          0.1000000E-05 Eh   :
          :  -> wf. convergence          0.1000000E-03 e    :
          :  Broyden damping             0.4000000          :
          :  net charge                          0          :
          :  unpaired electrons                  0          :
          ...................................................

 iter      E             dE          RMSdq      gap      omega  full diag
   1    -27.3752328 -0.273752E+02  0.400E+00    5.87       0.0  T
   2    -27.4344225 -0.591896E-01  0.201E+00    4.92       1.0  T
   3    -27.4360857 -0.166320E-02  0.101E+00    5.24       1.0  T
   4    -27.4375325 -0.144682E-02  0.157E-01    5.00       1.0  T
   5    -27.4377263 -0.193818E-03  0.658E-02    5.06       1.0  T
   6    -27.4377279 -0.161507E-05  0.209E-02    5.05       1.1  T
   7    -27.4377287 -0.828892E-06  0.357E-03    5.05       6.3  T
   8    -27.4377288 -0.178211E-07  0.194E-03    5.05      11.5  T
   9    -27.4377288 -0.591780E-08  0.316E-04    5.05      70.8  T
  10    -27.4377288 -0.263018E-09  0.167E-04    5.05     134.1  T

   *** convergence criteria satisfied after 10 iterations ***

         #    Occupation            Energy/Eh            Energy/eV
      -------------------------------------------------------------
         1        2.0000           -0.7492724             -20.3887
       ...           ...                  ...                  ...
        18        2.0000           -0.4672023             -12.7132
        19        2.0000           -0.4601218             -12.5206
        20        2.0000           -0.4495611             -12.2332
        21        2.0000           -0.4463894             -12.1469
        22        2.0000           -0.4417252             -12.0200
        23        2.0000           -0.4291831             -11.6787
        24        2.0000           -0.4223499             -11.4927 (HOMO)
        25                         -0.2365953              -6.4381 (LUMO)
        26                         -0.0090258              -0.2456
        27                          0.0987284               2.6865
        28                          0.1142129               3.1079
        29                          0.1145937               3.1183
       ...                                ...                  ...
        44                          0.6200488              16.8724
      -------------------------------------------------------------
                  HL-Gap            0.1857546 Eh            5.0546 eV
             Fermi-level           -0.3294726 Eh           -8.9654 eV

 SCC (total)                   0 d,  0 h,  0 min,  0.025 sec
 SCC setup                      ...        0 min,  0.002 sec (  6.828%)
 Dispersion                     ...        0 min,  0.000 sec (  0.581%)
 classical contributions        ...        0 min,  0.000 sec (  0.119%)
 integral evaluation            ...        0 min,  0.002 sec (  7.685%)
 iterations                     ...        0 min,  0.016 sec ( 64.394%)
 molecular gradient             ...        0 min,  0.005 sec ( 19.787%)
 printout                       ...        0 min,  0.000 sec (  0.542%)

         :::::::::::::::::::::::::::::::::::::::::::::::::::::
         ::                     SUMMARY                     ::
         :::::::::::::::::::::::::::::::::::::::::::::::::::::
         :: total energy             -27.120960267231 Eh    ::
         :: total w/o Gsasa/hb       -27.122721886039 Eh    ::
         :: gradient norm              0.000048490577 Eh/a0 ::
         :: HOMO-LUMO gap              5.054639431033 eV    ::
         ::.................................................::
         :: SCC energy               -27.437755443939 Eh    ::
         :: -> isotropic ES            0.058643673106 Eh    ::
         :: -> anisotropic ES          0.001086207565 Eh    ::
         :: -> anisotropic XC          0.008304292813 Eh    ::
         :: -> dispersion             -0.011233369433 Eh    ::
         :: -> Gsolv                  -0.006939891850 Eh    ::
         ::    -> Gelec               -0.008701510658 Eh    ::
         ::    -> Gsasa                0.001069497403 Eh    ::
         ::    -> Ghb                 -0.002202427755 Eh    ::
         ::    -> Gshift               0.002894549160 Eh    ::
         :: repulsion energy           0.316795176708 Eh    ::
         :: add. restraining           0.000000000000 Eh    ::
         :: total charge              -0.000000000000 e     ::
         :::::::::::::::::::::::::::::::::::::::::::::::::::::

           -------------------------------------------------
          |                Property Printout                |
           -------------------------------------------------

    * Orbital Energies and Occupations

         #    Occupation            Energy/Eh            Energy/eV
      -------------------------------------------------------------
         1        2.0000           -0.7492724             -20.3887
       ...           ...                  ...                  ...
        12        2.0000           -0.5200305             -14.1508
        13        2.0000           -0.5153121             -14.0224
        14        2.0000           -0.5052925             -13.7497
        15        2.0000           -0.4953748             -13.4798
        16        2.0000           -0.4855145             -13.2115
        17        2.0000           -0.4688413             -12.7578
        18        2.0000           -0.4672023             -12.7132
        19        2.0000           -0.4601218             -12.5206
        20        2.0000           -0.4495611             -12.2332
        21        2.0000           -0.4463894             -12.1469
        22        2.0000           -0.4417252             -12.0200
        23        2.0000           -0.4291831             -11.6787
        24        2.0000           -0.4223499             -11.4927 (HOMO)
        25                         -0.2365953              -6.4381 (LUMO)
        26                         -0.0090258              -0.2456
        27                          0.0987284               2.6865
        28                          0.1142129               3.1079
        29                          0.1145937               3.1183
        30                          0.1365871               3.7167
        31                          0.1454516               3.9579
        32                          0.1545510               4.2055
        33                          0.1594939               4.3400
        34                          0.1630437               4.4366
        35                          0.1799597               4.8970
       ...                                ...                  ...
        44                          0.6200488              16.8724
      -------------------------------------------------------------
                  HL-Gap            0.1857546 Eh            5.0546 eV
             Fermi-level           -0.3294726 Eh           -8.9654 eV

     #   Z          covCN         q      C6AA      α(0)
     1   6 C        3.753    -0.118    22.827     6.813
     2   6 C        3.802    -0.054    21.545     6.608
     3   6 C        3.805    -0.102    22.451     6.745
     4   6 C        2.711     0.365    20.817     7.468
     5   8 O        0.856    -0.482    23.388     6.484
     6   8 O        1.703    -0.280    18.656     5.832
     7   6 C        3.693     0.068    19.605     6.335
     8   6 C        3.750    -0.127    23.002     6.840
     9   1 H        0.925     0.046     2.370     2.407
    10   1 H        0.925     0.047     2.357     2.401
    11   1 H        0.925     0.047     2.359     2.402
    12   1 H        0.924     0.043     2.405     2.425
    13   1 H        0.924     0.042     2.428     2.437
    14   1 H        0.924     0.088     1.900     2.155
    15   1 H        0.924     0.090     1.879     2.144
    16   1 H        0.924     0.058     2.223     2.332
    17   1 H        0.924     0.081     1.966     2.193
    18   1 H        0.925     0.071     2.078     2.254
    19   1 H        0.925     0.066     2.132     2.283
    20   1 H        0.925     0.053     2.284     2.363

 Mol. C6AA /au·bohr⁶  :       2995.975811
 Mol. C8AA /au·bohr⁸  :      63822.753343
 Mol. α(0) /au        :         80.922296


Wiberg/Mayer (AO) data.
largest (>0.10) Wiberg bond orders for each atom

 ---------------------------------------------------------------------------
     #   Z sym  total        # sym  WBO       # sym  WBO       # sym  WBO
 ---------------------------------------------------------------------------
     1   6 C    3.994 --     2 C    1.020     9 H    0.987    11 H    0.987
                            10 H    0.986
     2   6 C    3.993 --     1 C    1.020     3 C    1.007    13 H    0.978
                            12 H    0.977
     3   6 C    3.989 --     2 C    1.007     4 C    0.982    14 H    0.951
                            15 H    0.943
     4   6 C    3.905 --     5 O    1.700     6 O    1.157     3 C    0.982
     5   8 O    1.980 --     4 C    1.700     6 O    0.168
     6   8 O    2.305 --     4 C    1.157     7 C    0.920     5 O    0.168
     7   6 C    3.911 --     8 C    1.014    16 H    0.970    17 H    0.969
                             6 O    0.920
     8   6 C    3.989 --     7 C    1.014    20 H    0.986    19 H    0.985
                            18 H    0.980
     9   1 H    0.998 --     1 C    0.987
    10   1 H    0.997 --     1 C    0.986
    11   1 H    0.998 --     1 C    0.987
    12   1 H    0.998 --     2 C    0.977
    13   1 H    0.998 --     2 C    0.978
    14   1 H    0.992 --     3 C    0.951
    15   1 H    0.992 --     3 C    0.943
    16   1 H    0.997 --     7 C    0.970
    17   1 H    0.993 --     7 C    0.969
    18   1 H    0.994 --     8 C    0.980
    19   1 H    0.996 --     8 C    0.985
    20   1 H    0.997 --     8 C    0.986
 ---------------------------------------------------------------------------

Topologies differ in total number of bonds
Writing topology from bond orders to xtbtopo.mol

molecular dipole:
                 x           y           z       tot (Debye)
 q only:        0.210      -0.467       0.954
   full:        0.224      -0.427       1.002       2.826
molecular quadrupole (traceless):
                xx          xy          yy          xz          yz          zz
 q only:       10.234       1.008      -3.498      -0.478       2.205      -6.736
  q+dip:        7.425       0.688      -1.158      -0.195       2.694      -6.267
   full:        8.090       0.760      -1.233      -0.423       3.058      -6.857


           -------------------------------------------------
          | TOTAL ENERGY              -27.120960267231 Eh   |
          | GRADIENT NORM               0.000048490577 Eh/α |
          | HOMO-LUMO GAP               5.054639431033 eV   |
           -------------------------------------------------

------------------------------------------------------------------------
 * finished run on 2025/04/11 at 15:53:54.090     
------------------------------------------------------------------------
 total:
 * wall-time:     0 d,  0 h,  0 min,  0.066 sec
 *  cpu-time:     0 d,  0 h,  0 min,  0.025 sec
 * ratio c/w:     0.385 speedup
 SCF:
 * wall-time:     0 d,  0 h,  0 min,  0.025 sec
 *  cpu-time:     0 d,  0 h,  0 min,  0.015 sec
 * ratio c/w:     0.605 speedup

