
                                 *****************
                                 * O   R   C   A *
                                 *****************

                                            #,                                       
                                            ###                                      
                                            ####                                     
                                            #####                                    
                                            ######                                   
                                           ########,                                 
                                     ,,################,,,,,                         
                               ,,#################################,,                 
                          ,,##########################################,,             
                       ,#########################################, ''#####,          
                    ,#############################################,,   '####,        
                  ,##################################################,,,,####,       
                ,###########''''           ''''###############################       
              ,#####''   ,,,,##########,,,,          '''####'''          '####       
            ,##' ,,,,###########################,,,                        '##       
           ' ,,###''''                  '''############,,,                           
         ,,##''                                '''############,,,,        ,,,,,,###''
      ,#''                                            '''#######################'''  
     '                                                          ''''####''''         
             ,#######,   #######,   ,#######,      ##                                
            ,#'     '#,  ##    ##  ,#'     '#,    #''#        ,####,   ,####,        
            ##       ##  ##   ,#'  ##            #'  '#       #'       #'  '#        
            ##       ##  #######   ##           ,######,      #####,   #    #        
            '#,     ,#'  ##    ##  '#,     ,#' ,#      #,     #,   #   #,  ,#        
             '#######'   ##     ##  '#######'  #'      '#     '####' # '####'        



                #########################################################
                #                        -***-                          #
                #          Department of theory and spectroscopy        #
                #                                                       #
                #                      Frank Neese                      #
                #                                                       #
                #     Directorship, Architecture, Infrastructure        #
                #                    SHARK, DRIVERS                     #
                #        Core code/Algorithms in most modules           #
                #                                                       #
                #        Max Planck Institute fuer Kohlenforschung      #
                #                Kaiser Wilhelm Platz 1                 #
                #                 D-45470 Muelheim/Ruhr                 #
                #                      Germany                          #
                #                                                       #
                #                  All rights reserved                  #
                #                        -***-                          #
                #########################################################


                         Program Version 6.0.0  -   RELEASE  -


 With contributions from (in alphabetic order):
   Daniel Aravena         : Magnetic Suceptibility
   Michael Atanasov       : Ab Initio Ligand Field Theory (pilot matlab implementation)
   Alexander A. Auer      : GIAO ZORA, VPT2 properties, NMR spectrum
   Ute Becker             : All parallelization in ORCA, NUMFREQ, NUMCALC
   Giovanni Bistoni       : ED, misc. LED, open-shell LED, HFLD
   Martin Brehm           : Molecular dynamics
   Dmytro Bykov           : pre 5.0 version of the SCF Hessian
   Marcos Casanova-Páez   : Triplet and SCS-CIS(D). UHF-(DLPNO)-IP/EA/STEOM-CCSD. UHF-CVS-IP/STEOM-CCSD
   Vijay G. Chilkuri      : MRCI spin determinant printing, contributions to CSF-ICE
   Pauline Colinet        : FMM embedding
   Dipayan Datta          : RHF DLPNO-CCSD density
   Achintya Kumar Dutta   : EOM-CC, STEOM-CC
   Nicolas Foglia         : Exact transition moments, OPA infrastructure, MCD improvements
   Dmitry Ganyushin       : Spin-Orbit,Spin-Spin,Magnetic field MRCI
   Miquel Garcia          : C-PCM and meta-GGA Hessian, CCSD/C-PCM, Gaussian charge scheme
   Tiago L. C. Gouveia    : GS-ROHF, GS-ROCIS
   Yang Guo               : DLPNO-NEVPT2, F12-NEVPT2, CIM, IAO-localization
   Andreas Hansen         : Spin unrestricted coupled pair/coupled cluster methods
   Ingolf Harden          : AUTO-CI MPn and infrastructure 
   Benjamin Helmich-Paris : MC-RPA, TRAH-(SCF,CASSCF), AVAS, COSX integrals, SCF dyn. polar.
   Lee Huntington         : MR-EOM, pCC
   Robert Izsak           : Overlap fitted RIJCOSX, COSX-SCS-MP3, EOM
   Riya Kayal             : Wick's Theorem for AUTO-CI, AUTO-CI UHF-CCSDT
   Emily Kempfer          : AUTO-CI, RHF CISDT and CCSDT
   Christian Kollmar      : KDIIS, OOCD, Brueckner-CCSD(T), CCSD density, CASPT2, CASPT2-K, improved NEVPT2
   Axel Koslowski         : Symmetry handling
   Simone Kossmann        : Meta GGA functionals, TD-DFT gradient, OOMP2, (MP2 Hessian; deprecated post 5.0)
   Lucas Lang             : DCDCAS
   Marvin Lechner         : AUTO-CI (C++ implementation), FIC-MRCC
   Spencer Leger          : CASSCF response
   Dagmar Lenk            : GEPOL surface, SMD, ORCA-2-JSON
   Dimitrios Liakos       : Extrapolation schemes; Compound Job, initial MDCI parallelization
   Dimitrios Manganas     : Further ROCIS development; embedding schemes. LFT, Crystal Embedding
   Dimitrios Pantazis     : SARC Basis sets
   Anastasios Papadopoulos: AUTO-CI, single reference methods and gradients
   Taras Petrenko         : pre 6.0 DFT Hessian and TD-DFT gradient, (ASA, deprecated), ECA, 1-Electron XAS/XES, NRVS
   Peter Pinski           : DLPNO-MP2, DLPNO-MP2 Gradient
   Christoph Reimann      : Effective Core Potentials
   Marius Retegan         : Local ZFS, SOC
   Christoph Riplinger    : Optimizer, TS searches, QM/MM, DLPNO-CCSD(T), (RO)-DLPNO pert. Triples
   Michael Roemelt        : Original ROCIS implementation
   Masaaki Saitow         : Open-shell DLPNO-CCSD energy and density
   Barbara Sandhoefer     : DKH picture change effects
   Kantharuban Sivalingam : CASSCF convergence/infrastructure, NEVPT2 and variants, FIC-MRCI
   Bernardo de Souza      : ESD, SOC TD-DFT
   Georgi Stoychev        : AutoAux, RI-MP2 NMR, DLPNO-MP2 response, X2C
   Van Anh Tran           : RI-MP2 g-tensors
   Willem Van den Heuvel  : Paramagnetic NMR
   Zikuan Wang            : NOTCH, Electric field optimization 
   Frank Wennmohs         : Technical directorship and infrastructure
   Hang Xu                : AUTO-CI-Response properties 


 We gratefully acknowledge several colleagues who have allowed us to
 interface, adapt or use parts of their codes:
   Stefan Grimme, W. Hujo, H. Kruse, P. Pracht,  : VdW corrections, initial TS optimization,
                  C. Bannwarth, S. Ehlert,         DFT functionals, gCP, sTDA/sTD-DF
                  L. Wittmann, M. Mueller
   Ed Valeev, F. Pavosevic, A. Kumar             : LibInt (2-el integral package), F12 methods
   Garnet Chan, S. Sharma, J. Yang, R. Olivares  : DMRG
   Ulf Ekstrom                                   : XCFun DFT Library
   Mihaly Kallay                                 : mrcc  (arbitrary order and MRCC methods)
   Frank Weinhold                                : gennbo (NPA and NBO analysis)
   Simon Mueller                                 : openCOSMO-RS
   Christopher J. Cramer and Donald G. Truhlar   : smd solvation model
   Lars Goerigk                                  : TD-DFT with DH, B97 family of functionals
   V. Asgeirsson, H. Jonsson                     : NEB implementation
   FAccTs GmbH                                   : IRC, NEB, NEB-TS, DLPNO-Multilevel, CI-OPT
                                                   MM, QMMM, 2- and 3-layer-ONIOM, Crystal-QMMM,
                                                   LR-CPCM, SF, NACMEs, symmetry and pop. for TD-DFT,
                                                   nearIR, NL-DFT gradient (VV10), updates on ESD,
                                                   ML-optimized integration grids, MBIS, APM,
                                                   GOAT, DOCKER, SOLVATOR, interface openCOSMO-RS
   S Lehtola, MJT Oliveira, MAL Marques          : LibXC Library
   Liviu Ungur et al                             : ANISO software


 Your calculation uses the libint2 library for the computation of 2-el integrals
 For citations please refer to: http://libint.valeyev.net

 Your ORCA version has been built with support for libXC version: 6.2.2
 For citations please refer to: https://libxc.gitlab.io

 This ORCA versions uses:
   CBLAS   interface :  Fast vector & matrix operations
   LAPACKE interface :  Fast linear algebra routines
   SCALAPACK package :  Parallel linear algebra routines
   Shared memory     :  Shared parallel matrices
   BLAS/LAPACK       :  OpenBLAS 0.3.27  USE64BITINT DYNAMIC_ARCH NO_AFFINITY SkylakeX SINGLE_THREADED
        Core in use  :  SkylakeX
   Copyright (c) 2011-2014, The OpenBLAS Project


Your calculation utilizes the geometrical counterpoise correction gCP
Please cite in your paper:
H.Kruse, S. Grimme J.Chem.Phys., 136, (2012), 154101 
   

Your calculation utilizes the atom-pairwise dispersion correction
based on EEQ partial charges (D4)


================================================================================

----- Orbital basis set information -----
Your calculation utilizes the basis: def2-SV(P)
   F. Weigend and R. Ahlrichs, Phys. Chem. Chem. Phys. 7, 3297 (2005).

----- AuxJ basis set information -----
Your calculation utilizes the auxiliary basis: def2/J
   F. Weigend, Phys. Chem. Chem. Phys. 8, 1057 (2006).

================================================================================
                                        WARNINGS
                       Please study these warnings very carefully!
================================================================================


================================================================================
                                       INPUT FILE
================================================================================
NAME = sp.inp
|  1> ! pbe def2-sv(p) def2/J RI DEFGRID1 loosescf d4 GCP(DFT/SV(P)) printgap
|  2> %output
|  3>     printlevel normal
|  4> end
|  5> * xyz 0 1
|  6> C -3.2857629521 -0.8593839483 -0.3342253046
|  7> C -1.8827079859 -0.6243279235 0.2121993338
|  8> C -1.5026312703 0.8542768364 0.1679128352
|  9> C -0.1130616025 1.1053503399 0.7620186024
| 10> C 0.9530837522 0.4579974583 -0.0832113373
| 11> O 1.1064137832 0.6477285664 -1.2719320329
| 12> O 1.7121325079 -0.3590962425 0.6373533454
| 13> C 2.7864223882 -1.0586664822 0.0007336421
| 14> H -3.5380955148 -1.9158719079 -0.2962685321
| 15> H -4.0178542284 -0.308140231 0.2509103365
| 16> H -3.3509756296 -0.5267344269 -1.3675788697
| 17> H -1.828353235 -0.9812745525 1.2428650789
| 18> H -1.1621342484 -1.1977846583 -0.3768093046
| 19> H -2.2364918681 1.4350202873 0.7278814171
| 20> H -1.5084328318 1.2003278666 -0.8677241483
| 21> H -0.0421529808 0.7116324156 1.7751679636
| 22> H 0.0852823628 2.1782888418 0.7745138537
| 23> H 2.7340192395 -0.9134030032 -1.0788761355
| 24> H 2.6816432785 -2.111028957 0.2549692124
| 25> H 3.7247042529 -0.666107654 0.389429422
| 26> *
| 27> 
| 28>                          ****END OF INPUT****
================================================================================

                       ****************************
                       * Single Point Calculation *
                       ****************************

---------------------------------
CARTESIAN COORDINATES (ANGSTROEM)
---------------------------------
  C     -3.285763   -0.859384   -0.334225
  C     -1.882708   -0.624328    0.212199
  C     -1.502631    0.854277    0.167913
  C     -0.113062    1.105350    0.762019
  C      0.953084    0.457997   -0.083211
  O      1.106414    0.647729   -1.271932
  O      1.712133   -0.359096    0.637353
  C      2.786422   -1.058666    0.000734
  H     -3.538096   -1.915872   -0.296269
  H     -4.017854   -0.308140    0.250910
  H     -3.350976   -0.526734   -1.367579
  H     -1.828353   -0.981275    1.242865
  H     -1.162134   -1.197785   -0.376809
  H     -2.236492    1.435020    0.727881
  H     -1.508433    1.200328   -0.867724
  H     -0.042153    0.711632    1.775168
  H      0.085282    2.178289    0.774514
  H      2.734019   -0.913403   -1.078876
  H      2.681643   -2.111029    0.254969
  H      3.724704   -0.666108    0.389429

----------------------------
CARTESIAN COORDINATES (A.U.)
----------------------------
  NO LB      ZA    FRAG     MASS         X           Y           Z
   0 C     6.0000    0    12.011   -6.209192   -1.624000   -0.631594
   1 C     6.0000    0    12.011   -3.557802   -1.179809    0.400999
   2 C     6.0000    0    12.011   -2.839562    1.614349    0.317309
   3 C     6.0000    0    12.011   -0.213655    2.088809    1.440006
   4 C     6.0000    0    12.011    1.801067    0.865490   -0.157247
   5 O     8.0000    0    15.999    2.090819    1.224030   -2.403603
   6 O     8.0000    0    15.999    3.235462   -0.678594    1.204423
   7 C     6.0000    0    12.011    5.265575   -2.000590    0.001386
   8 H     1.0000    0     1.008   -6.686032   -3.620473   -0.559866
   9 H     1.0000    0     1.008   -7.592644   -0.582301    0.474152
  10 H     1.0000    0     1.008   -6.332426   -0.995384   -2.584350
  11 H     1.0000    0     1.008   -3.455087   -1.854340    2.348675
  12 H     1.0000    0     1.008   -2.196115   -2.263485   -0.712066
  13 H     1.0000    0     1.008   -4.226357    2.711795    1.375497
  14 H     1.0000    0     1.008   -2.850525    2.268291   -1.639761
  15 H     1.0000    0     1.008   -0.079658    1.344790    3.354581
  16 H     1.0000    0     1.008    0.161160    4.116369    1.463619
  17 H     1.0000    0     1.008    5.166548   -1.726082   -2.038780
  18 H     1.0000    0     1.008    5.067571   -3.989267    0.481822
  19 H     1.0000    0     1.008    7.038671   -1.258761    0.735915

--------------------------------
INTERNAL COORDINATES (ANGSTROEM)
--------------------------------
 C      0   0   0     0.000000000000     0.00000000     0.00000000
 C      1   0   0     1.523940437952     0.00000000     0.00000000
 C      2   1   0     1.527315173662   111.59472081     0.00000000
 C      3   2   1     1.531960648466   111.90947033   177.95031372
 C      4   3   2     1.506700143237   110.72392622    65.80544522
 O      5   4   3     1.213492844616   124.87315050    54.83053268
 O      5   4   3     1.327784090646   111.37536204   235.03253753
 C      7   5   4     1.431356668975   119.23917011   180.37014404
 H      1   2   3     1.086866711036   110.55815013   179.91647221
 H      1   2   3     1.087295264030   110.41048019   300.02200636
 H      1   2   3     1.087532982442   110.40939548    59.89566037
 H      2   1   3     1.092079307112   109.49995350   121.21684496
 H      2   1   3     1.093165272945   109.43675196   239.07083474
 H      3   2   1     1.090586606135   109.46189908    57.12197552
 H      3   2   1     1.091938155397   109.45012938   298.52132799
 H      4   3   2     1.089271988370   111.13178910   304.90721208
 H      4   3   2     1.091189025208   109.29692936   184.01006047
 H      8   7   5     1.090598386307   109.82344027   351.70640821
 H      8   7   5     1.087695345859   107.25413542   231.18904150
 H      8   7   5     1.088834101475   108.16655808   112.12014553

---------------------------
INTERNAL COORDINATES (A.U.)
---------------------------
 C      0   0   0     0.000000000000     0.00000000     0.00000000
 C      1   0   0     2.879830072136     0.00000000     0.00000000
 C      2   1   0     2.886207398404   111.59472081     0.00000000
 C      3   2   1     2.894986073546   111.90947033   177.95031372
 C      4   3   2     2.847250636657   110.72392622    65.80544522
 O      5   4   3     2.293169141798   124.87315050    54.83053268
 O      5   4   3     2.509148296298   111.37536204   235.03253753
 C      7   5   4     2.704872104324   119.23917011   180.37014404
 H      1   2   3     2.053880427933   110.55815013   179.91647221
 H      1   2   3     2.054690275727   110.41048019   300.02200636
 H      1   2   3     2.055139498422   110.40939548    59.89566037
 H      2   1   3     2.063730806964   109.49995350   121.21684496
 H      2   1   3     2.065782984979   109.43675196   239.07083474
 H      3   2   1     2.060910010918   109.46189908    57.12197552
 H      3   2   1     2.063464068879   109.45012938   298.52132799
 H      4   3   2     2.058425743370   111.13178910   304.90721208
 H      4   3   2     2.062048417984   109.29692936   184.01006047
 H      8   7   5     2.060932272216   109.82344027   351.70640821
 H      8   7   5     2.055446320814   107.25413542   231.18904150
 H      8   7   5     2.057598257062   108.16655808   112.12014553

---------------------
BASIS SET INFORMATION
---------------------
There are 3 groups of distinct atoms

 Group   1 Type C   : 7s4p1d contracted to 3s2p1d pattern {511/31/1}
 Group   2 Type O   : 7s4p1d contracted to 3s2p1d pattern {511/31/1}
 Group   3 Type H   : 4s contracted to 2s pattern {31}

Atom   0C    basis set group =>   1
Atom   1C    basis set group =>   1
Atom   2C    basis set group =>   1
Atom   3C    basis set group =>   1
Atom   4C    basis set group =>   1
Atom   5O    basis set group =>   2
Atom   6O    basis set group =>   2
Atom   7C    basis set group =>   1
Atom   8H    basis set group =>   3
Atom   9H    basis set group =>   3
Atom  10H    basis set group =>   3
Atom  11H    basis set group =>   3
Atom  12H    basis set group =>   3
Atom  13H    basis set group =>   3
Atom  14H    basis set group =>   3
Atom  15H    basis set group =>   3
Atom  16H    basis set group =>   3
Atom  17H    basis set group =>   3
Atom  18H    basis set group =>   3
Atom  19H    basis set group =>   3
---------------------------------
AUXILIARY/J BASIS SET INFORMATION
---------------------------------
There are 3 groups of distinct atoms

 Group   1 Type C   : 12s5p4d2f1g contracted to 6s4p3d1f1g pattern {711111/2111/211/2/1}
 Group   2 Type O   : 12s5p4d2f1g contracted to 6s4p3d1f1g pattern {711111/2111/211/2/1}
 Group   3 Type H   : 5s2p1d contracted to 3s1p1d pattern {311/2/1}

Atom   0C    basis set group =>   1
Atom   1C    basis set group =>   1
Atom   2C    basis set group =>   1
Atom   3C    basis set group =>   1
Atom   4C    basis set group =>   1
Atom   5O    basis set group =>   2
Atom   6O    basis set group =>   2
Atom   7C    basis set group =>   1
Atom   8H    basis set group =>   3
Atom   9H    basis set group =>   3
Atom  10H    basis set group =>   3
Atom  11H    basis set group =>   3
Atom  12H    basis set group =>   3
Atom  13H    basis set group =>   3
Atom  14H    basis set group =>   3
Atom  15H    basis set group =>   3
Atom  16H    basis set group =>   3
Atom  17H    basis set group =>   3
Atom  18H    basis set group =>   3
Atom  19H    basis set group =>   3
------------------------------------------------------------------------------
                             ORCA STARTUP CALCULATIONS
                           -- RI-GTO INTEGRALS CHOSEN --
------------------------------------------------------------------------------
------------------------------------------------------------------------------
                   ___                                                        
                  /   \      - P O W E R E D   B Y -                         
                 /     \                                                     
                 |  |  |   _    _      __       _____    __    __             
                 |  |  |  | |  | |    /  \     |  _  \  |  |  /  |          
                  \  \/   | |  | |   /    \    | | | |  |  | /  /          
                 / \  \   | |__| |  /  /\  \   | |_| |  |  |/  /          
                |  |  |   |  __  | /  /__\  \  |    /   |      \           
                |  |  |   | |  | | |   __   |  |    \   |  |\   \          
                \     /   | |  | | |  |  |  |  | |\  \  |  | \   \       
                 \___/    |_|  |_| |__|  |__|  |_| \__\ |__|  \__/        
                                                                              
                      - O R C A' S   B I G   F R I E N D -                    
                                      &                                       
                       - I N T E G R A L  F E E D E R -                       
                                                                              
 v1 FN, 2020, v2 2021, v3 2022-2024                                           
------------------------------------------------------------------------------


----------------------
SHARK INTEGRAL PACKAGE
----------------------

Number of atoms                             ...     20
Number of basis functions                   ...    136
Number of shells                            ...     72
Maximum angular momentum                    ...      2
Integral batch strategy                     ... SHARK/LIBINT Hybrid
RI-J (if used) integral strategy            ... SPLIT-RIJ (Revised 2003 algorithm where possible)
Printlevel                                  ...      1
Contraction scheme used                     ... SEGMENTED contraction
Prescreening option                         ... SCHWARTZ
   Thresh                                   ... 1.000e-09
   Tcut                                     ... 1.000e-10
   Tpresel                                  ... 1.000e-10 
Coulomb Range Separation                    ... NOT USED
Exchange Range Separation                   ... NOT USED
Multipole approximations                    ... NOT USED
Finite Nucleus Model                        ... NOT USED
CABS basis                                  ... NOT available
Auxiliary Coulomb fitting basis             ... AVAILABLE
   # of basis functions in Aux-J            ...    524
   # of shells in Aux-J                     ...    180
   Maximum angular momentum in Aux-J        ...      4
Auxiliary J/K fitting basis                 ... NOT available
Auxiliary Correlation fitting basis         ... NOT available
Auxiliary 'external' fitting basis          ... NOT available

Checking pre-screening integrals            ... done (  0.0 sec) Dimension = 72
Check shell pair data                       ... done (  0.0 sec)
Shell pair information
Shell pair cut-off parameter TPreSel        ...   1.0e-10
Total number of shell pairs                 ...      2628
Shell pairs after pre-screening             ...      2424
Total number of primitive shell pairs       ...     10580
Primitive shell pairs kept                  ...      6741
          la=0 lb=0:   1070 shell pairs
          la=1 lb=0:    729 shell pairs
          la=1 lb=1:    133 shell pairs
          la=2 lb=0:    339 shell pairs
          la=2 lb=1:    122 shell pairs
          la=2 lb=2:     31 shell pairs

Calculating one electron integrals          ... done (  0.0 sec)
Calculating RI/J V-Matrix + Cholesky decomp.... done (  0.1 sec)
Calculating Nuclear repulsion               ... done (  0.0 sec) ENN=    391.248679369713 Eh

Diagonalization of the overlap matrix:
Smallest eigenvalue                        ... 1.719e-03
Time for diagonalization                   ...    0.002 sec
Threshold for overlap eigenvalues          ... 1.000e-07
Number of eigenvalues below threshold      ... 0
Time for construction of square roots      ...    0.021 sec
Total time needed                          ...    0.034 sec

-------------------
DFT GRID GENERATION
-------------------

General Integration Accuracy     IntAcc      ... 4.159
Radial Grid Type                 RadialGrid  ... OptM3 with GC (2021)
Angular Grid (max. ang.)         AngularGrid ... 3 (Lebedev-194)
Angular grid pruning method      GridPruning ... 4 (adaptive)
Weight generation scheme         WeightScheme... mBecke (2022)
Basis function cutoff            BFCut       ... 1.0000e-10
Integration weight cutoff        WCut        ... 1.0000e-14
Partially contracted basis set               ... off
Rotationally invariant grid construction     ... off
Angular grids for H and He will be reduced by one unit

Total number of grid points                  ...    43004
Total number of batches                      ...      683
Average number of points per batch           ...       62
Average number of grid points per atom       ...     2150
Initializing property integral containers    ... done (  0.0 sec)

SHARK setup successfully completed in   0.8 seconds

Maximum memory used throughout the entire STARTUP-calculation: 21.2 MB
-------------------------------------------------------------------------------
                                 ORCA GUESS
                   Start orbitals & Density for SCF / CASSCF
-------------------------------------------------------------------------------

------------
SCF SETTINGS
------------
Hamiltonian:
 Density Functional     Method          .... DFT(GTOs)
 Exchange Functional    Exchange        .... PBE
   PBE kappa parameter   XKappa         ....  0.804000
   PBE mue parameter    XMuePBE         ....  0.219520
 Correlation Functional Correlation     .... PBE
   PBE beta parameter  CBetaPBE         ....  0.066725
 LDA part of GGA corr.  LDAOpt          .... PW91-LDA
 Gradients option       PostSCFGGA      .... off
   NL short-range parameter             ....  6.400000
 RI-approximation to the Coulomb term is turned on
   Number of AuxJ basis functions       .... 524


General Settings:
 Integral files         IntName         .... sp
 Hartree-Fock type      HFTyp           .... RHF
 Total Charge           Charge          ....    0
 Multiplicity           Mult            ....    1
 Number of Electrons    NEL             ....   64
 Basis Dimension        Dim             ....  136
 Nuclear Repulsion      ENuc            ....    391.2486793697 Eh

Convergence Acceleration:
 AO-DIIS                CNVDIIS         .... on
   Start iteration      DIISMaxIt       ....    12
   Startup error        DIISStart       ....  0.200000
   # of expansion vecs  DIISMaxEq       ....     5
   Bias factor          DIISBfac        ....   1.050
   Max. coefficient     DIISMaxC        ....  10.000
 MO-DIIS                CNVKDIIS        .... off
 Trust-Rad. Augm. Hess. CNVTRAH         .... auto
   Auto Start mean grad. ratio tolernc. ....  1.125000
   Auto Start start iteration           ....    50
   Auto Start num. interpolation iter.  ....    10
   Max. Number of Micro iterations      ....    24
   Max. Number of Macro iterations      .... Maxiter - #DIIS iter
   Number of Davidson start vectors     ....     2
   Converg. threshold    (grad. norm)   ....   1.000e-04
   Grad. Scal. Fac. for Micro threshold ....   0.100
   Minimum threshold for Micro iter.    ....   1.000e-02
   NR start threshold (gradient norm)   ....   1.000e-04
   Initial trust radius                 ....   0.400
   Minimum AH scaling param. (alpha)    ....   1.000
   Maximum AH scaling param. (alpha)    .... 1000.000
   Quad. conv. algorithm                .... NR
   White noise on init. David. guess    .... on
   Maximum white noise                  ....   0.010
   Pseudo random numbers                .... off
   Inactive MOs                         .... canonical
   Orbital update algorithm             .... Taylor
   Preconditioner                       .... Diag
   Full preconditioner red. dimension   ....   250
 SOSCF                  CNVSOSCF        .... on
   Start iteration      SOSCFMaxIt      ....   150
   Startup grad/error   SOSCFStart      ....  0.003300
   Hessian update       SOSCFHessUp     .... L-BFGS
 Level Shifting         CNVShift        .... on
   Level shift para.    LevelShift      ....    0.2500
   Turn off err/grad.   ShiftErr        ....    0.0010
 Zerner damping         CNVZerner       .... off
 Static damping         CNVDamp         .... on
   Fraction old density DampFac         ....    0.7000
   Max. Damping (<1)    DampMax         ....    0.9800
   Min. Damping (>=0)   DampMin         ....    0.0000
   Turn off err/grad.   DampErr         ....    0.1000

SCF Procedure:
 Maximum # iterations   MaxIter         ....   125
 SCF integral mode      SCFMode         .... Direct
   Integral package                     .... SHARK and LIBINT hybrid scheme
 Reset frequency        DirectResetFreq ....    20
 Integral Threshold     Thresh          ....  1.000e-09 Eh
 Primitive CutOff       TCut            ....  1.000e-10 Eh

Convergence Tolerance:
 Convergence Check Mode ConvCheckMode   .... Total+1el-Energy
 Convergence forced     ConvForced      .... 0
 Energy Change          TolE            ....  1.000e-05 Eh
 1-El. energy change                    ....  1.000e-02 Eh
 Orbital Gradient       TolG            ....  1.000e-04
 Orbital Rotation angle TolX            ....  1.000e-04
 DIIS Error             TolErr          ....  5.000e-04

------------------------------
INITIAL GUESS: MODEL POTENTIAL
------------------------------
Loading Hartree-Fock densities                     ... done
Calculating cut-offs                               ... done
Initializing the effective Hamiltonian             ... done
Setting up the integral package (SHARK)            ... done
Starting the Coulomb interaction                   ... done (   0.1 sec)
Making the grid                                    ... done (   0.2 sec)
Mapping shells                                     ... done
Starting the XC term evaluation                    ... done (   0.2 sec)
  promolecular density results
     # of electrons  =     63.991091300
     EX              =    -50.543500479
     EC              =     -2.107707926
     EX+EC           =    -52.651208405
Transforming the Hamiltonian                       ... done (   0.0 sec)
Diagonalizing the Hamiltonian                      ... done (   0.0 sec)
Back transforming the eigenvectors                 ... done (   0.0 sec)
Now organizing SCF variables                       ... done
                      ------------------
                      INITIAL GUESS DONE (   0.5 sec)
                      ------------------
             **** ENERGY FILE WAS UPDATED (sp.en.tmp) ****
Finished Guess after   0.7 sec
Maximum memory used throughout the entire GUESS-calculation: 16.2 MB

-------------------------------------------------------------------------------------------
                                      ORCA LEAN-SCF
                              memory conserving SCF solver
-------------------------------------------------------------------------------------------

----------------------------------------D-I-I-S--------------------------------------------
Iteration    Energy (Eh)           Delta-E    RMSDP     MaxDP     DIISErr   Damp  Time(sec)
-------------------------------------------------------------------------------------------
               ***  Starting incremental Fock matrix formation  ***
    1    -385.2874654822566640     0.00e+00  4.95e-03  9.83e-02  2.47e-01  0.700   0.8
    2    -385.4087513889092520    -1.21e-01  3.13e-03  5.35e-02  7.62e-02  0.700   0.8
                               ***Turning on AO-DIIS***
    3    -385.4459296676323561    -3.72e-02  1.26e-03  1.43e-02  2.35e-02  0.700   0.8
    4    -385.4703135093193964    -2.44e-02  1.76e-03  2.32e-02  1.58e-02  0.000   0.8
    5    -385.5269364511490835    -5.66e-02  5.67e-04  8.24e-03  8.30e-03  0.000   0.8
                              *** Initializing SOSCF ***
---------------------------------------S-O-S-C-F--------------------------------------
Iteration    Energy (Eh)           Delta-E    RMSDP     MaxDP     MaxGrad    Time(sec)
--------------------------------------------------------------------------------------
    6    -385.5276511576090002    -7.15e-04  2.12e-04  2.35e-03  3.09e-03     0.8
               *** Restarting incremental Fock matrix formation ***
    7    -385.5277049212294855    -5.38e-05  1.59e-04  2.61e-03  6.68e-04     0.8
    8    -385.5276853231839027     1.96e-05  8.58e-05  1.97e-03  1.99e-03     0.7
    9    -385.5277112704574733    -2.59e-05  6.66e-05  1.01e-03  3.25e-04     0.9
   10    -385.5277075578217705     3.71e-06  3.94e-05  6.72e-04  5.07e-04     0.7
                 **** Energy Check signals convergence ****

               *****************************************************
               *                     SUCCESS                       *
               *           SCF CONVERGED AFTER  10 CYCLES          *
               *****************************************************

             **** ENERGY FILE WAS UPDATED (sp.en.tmp) ****

----------------
TOTAL SCF ENERGY
----------------

Total Energy       :       -385.52770755782177 Eh          -10490.74226 eV

Components:
Nuclear Repulsion  :        391.24867936971322 Eh           10646.41782 eV
Electronic Energy  :       -776.77638692753499 Eh          -21137.16008 eV
One Electron Energy:      -1298.97951964059826 Eh          -35347.02974 eV
Two Electron Energy:        522.20313271306327 Eh           14209.86966 eV

Virial components:
Potential Energy   :       -767.92000597639048 Eh          -20896.16570 eV
Kinetic Energy     :        382.39229841856866 Eh           10405.42344 eV
Virial Ratio       :          2.00819945682018

DFT components:
N(Alpha)           :       31.999870545337 electrons
N(Beta)            :       31.999870545337 electrons
N(Total)           :       63.999741090674 electrons
E(X)               :      -51.600321937434 Eh       
E(C)               :       -2.123665491286 Eh       
E(XC)              :      -53.723987428720 Eh       

---------------
SCF CONVERGENCE
---------------

  Last Energy change         ...   -3.7126e-06  Tolerance :   1.0000e-05
  Last MAX-Density change    ...    6.7229e-04  Tolerance :   1.0000e-03
  Last RMS-Density change    ...    3.9385e-05  Tolerance :   1.0000e-04
  Last DIIS Error            ...    3.0940e-03  Tolerance :   5.0000e-04
  Last Orbital Gradient      ...    5.0692e-04  Tolerance :   1.0000e-04
  Last Orbital Rotation      ...    4.8999e-04  Tolerance :   1.0000e-04


----------------
ORBITAL ENERGIES
----------------

  NO   OCC          E(Eh)            E(eV) 
   0   2.0000     -18.799725      -511.5665 
   1   2.0000     -18.731007      -509.6966 
   2   2.0000     -10.005141      -272.2537 
   3   2.0000      -9.939720      -270.4735 
   4   2.0000      -9.896177      -269.2887 
   5   2.0000      -9.889162      -269.0978 
   6   2.0000      -9.885184      -268.9895 
   7   2.0000      -9.874736      -268.7052 
   8   2.0000      -1.004204       -27.3258 
   9   2.0000      -0.908622       -24.7249 
  10   2.0000      -0.730963       -19.8905 
  11   2.0000      -0.684942       -18.6382 
  12   2.0000      -0.647287       -17.6136 
  13   2.0000      -0.576454       -15.6861 
  14   2.0000      -0.525669       -14.3042 
  15   2.0000      -0.498972       -13.5777 
  16   2.0000      -0.452118       -12.3028 
  17   2.0000      -0.436255       -11.8711 
  18   2.0000      -0.422259       -11.4902 
  19   2.0000      -0.403017       -10.9666 
  20   2.0000      -0.394816       -10.7435 
  21   2.0000      -0.380874       -10.3641 
  22   2.0000      -0.368089       -10.0162 
  23   2.0000      -0.341169        -9.2837 
  24   2.0000      -0.335101        -9.1186 
  25   2.0000      -0.322367        -8.7721 
  26   2.0000      -0.301868        -8.2142 
  27   2.0000      -0.291875        -7.9423 
  28   2.0000      -0.288452        -7.8492 
  29   2.0000      -0.283894        -7.7252 
  30   2.0000      -0.255103        -6.9417 
  31   2.0000      -0.219543        -5.9741 
  32   0.0000      -0.018804        -0.5117 
  33   0.0000       0.040239         1.0950 
  34   0.0000       0.056901         1.5484 
  35   0.0000       0.064155         1.7457 
  36   0.0000       0.074824         2.0361 
  37   0.0000       0.081830         2.2267 
  38   0.0000       0.100769         2.7421 
  39   0.0000       0.106776         2.9055 
  40   0.0000       0.114052         3.1035 
  41   0.0000       0.120044         3.2666 
  42   0.0000       0.128476         3.4960 
*Only the first 10 virtual orbitals were printed.

                    ********************************
                    * MULLIKEN POPULATION ANALYSIS *
                    ********************************

-----------------------
MULLIKEN ATOMIC CHARGES
-----------------------
   0 C :   -0.255780
   1 C :   -0.211211
   2 C :   -0.196749
   3 C :   -0.099613
   4 C :    0.083801
   5 O :   -0.206241
   6 O :   -0.239269
   7 C :   -0.132488
   8 H :    0.102512
   9 H :    0.096503
  10 H :    0.101514
  11 H :    0.084163
  12 H :    0.102189
  13 H :    0.086351
  14 H :    0.103398
  15 H :    0.091233
  16 H :    0.112082
  17 H :    0.133182
  18 H :    0.122291
  19 H :    0.122131
Sum of atomic charges:   -0.0000000

--------------------------------
MULLIKEN REDUCED ORBITAL CHARGES
--------------------------------
  0 C s       :     3.078692  s :     3.078692
      pz      :     1.064047  p :     3.147727
      px      :     1.029072
      py      :     1.054608
      dz2     :     0.007767  d :     0.029361
      dxz     :     0.005784
      dyz     :     0.003035
      dx2y2   :     0.006698
      dxy     :     0.006077

  1 C s       :     3.077107  s :     3.077107
      pz      :     1.043256  p :     3.097035
      px      :     1.034666
      py      :     1.019113
      dz2     :     0.007868  d :     0.037069
      dxz     :     0.006157
      dyz     :     0.007116
      dx2y2   :     0.007080
      dxy     :     0.008848

  2 C s       :     3.081789  s :     3.081789
      pz      :     1.045048  p :     3.078421
      px      :     0.996534
      py      :     1.036839
      dz2     :     0.007686  d :     0.036538
      dxz     :     0.005866
      dyz     :     0.007209
      dx2y2   :     0.006876
      dxy     :     0.008901

  3 C s       :     2.992406  s :     2.992406
      pz      :     1.028446  p :     3.074046
      px      :     1.004446
      py      :     1.041154
      dz2     :     0.008376  d :     0.033160
      dxz     :     0.006835
      dyz     :     0.003985
      dx2y2   :     0.008195
      dxy     :     0.005769

  4 C s       :     3.059945  s :     3.059945
      pz      :     0.936722  p :     2.725591
      px      :     0.912293
      py      :     0.876576
      dz2     :     0.028031  d :     0.130662
      dxz     :     0.041557
      dyz     :     0.036257
      dx2y2   :     0.013710
      dxy     :     0.011107

  5 O s       :     3.743847  s :     3.743847
      pz      :     1.314232  p :     4.444861
      px      :     1.597616
      py      :     1.533013
      dz2     :     0.007600  d :     0.017533
      dxz     :     0.004508
      dyz     :     0.004913
      dx2y2   :     0.000205
      dxy     :     0.000306

  6 O s       :     3.726073  s :     3.726073
      pz      :     1.615529  p :     4.496936
      px      :     1.394208
      py      :     1.487199
      dz2     :     0.002568  d :     0.016260
      dxz     :     0.004627
      dyz     :     0.003777
      dx2y2   :     0.002815
      dxy     :     0.002472

  7 C s       :     3.131264  s :     3.131264
      pz      :     1.061155  p :     2.950759
      px      :     0.885800
      py      :     1.003803
      dz2     :     0.011503  d :     0.050464
      dxz     :     0.009385
      dyz     :     0.005443
      dx2y2   :     0.013819
      dxy     :     0.010314

  8 H s       :     0.897488  s :     0.897488

  9 H s       :     0.903497  s :     0.903497

 10 H s       :     0.898486  s :     0.898486

 11 H s       :     0.915837  s :     0.915837

 12 H s       :     0.897811  s :     0.897811

 13 H s       :     0.913649  s :     0.913649

 14 H s       :     0.896602  s :     0.896602

 15 H s       :     0.908767  s :     0.908767

 16 H s       :     0.887918  s :     0.887918

 17 H s       :     0.866818  s :     0.866818

 18 H s       :     0.877709  s :     0.877709

 19 H s       :     0.877869  s :     0.877869


------------------------
MULLIKEN OVERLAP CHARGES
------------------------
B(  0-C ,  1-C ) :   0.8947 B(  0-C ,  2-C ) :  -0.1138 B(  0-C ,  8-H ) :   0.7344 
B(  0-C ,  9-H ) :   0.7587 B(  0-C , 10-H ) :   0.7580 B(  1-C ,  2-C ) :   0.8555 
B(  1-C ,  3-C ) :  -0.1068 B(  1-C , 11-H ) :   0.7129 B(  1-C , 12-H ) :   0.7158 
B(  1-C , 13-H ) :  -0.0592 B(  2-C ,  3-C ) :   0.7222 B(  2-C , 11-H ) :  -0.0624 
B(  2-C , 13-H ) :   0.7141 B(  2-C , 14-H ) :   0.6853 B(  3-C ,  4-C ) :   0.5500 
B(  3-C ,  5-O ) :  -0.2091 B(  3-C ,  6-O ) :  -0.2524 B(  3-C , 14-H ) :  -0.0504 
B(  3-C , 15-H ) :   0.5980 B(  3-C , 16-H ) :   0.6224 B(  4-C ,  5-O ) :   1.3733 
B(  4-C ,  6-O ) :   0.7299 B(  4-C ,  7-C ) :  -0.0812 B(  5-O ,  6-O ) :  -0.1678 
B(  5-O , 17-H ) :   0.0859 B(  6-O ,  7-C ) :   0.5529 B(  6-O , 17-H ) :  -0.0704 
B(  6-O , 18-H ) :  -0.0561 B(  6-O , 19-H ) :  -0.0550 B(  7-C , 17-H ) :   0.7173 
B(  7-C , 18-H ) :   0.7707 B(  7-C , 19-H ) :   0.7774 B(  9-H , 10-H ) :  -0.0533 
B( 11-H , 12-H ) :  -0.0666 B( 13-H , 14-H ) :  -0.0622 B( 18-H , 19-H ) :  -0.0554 



                     *******************************
                     * LOEWDIN POPULATION ANALYSIS *
                     *******************************

----------------------
LOEWDIN ATOMIC CHARGES
----------------------
   0 C :   -0.338640
   1 C :   -0.236758
   2 C :   -0.220277
   3 C :   -0.244525
   4 C :    0.035411
   5 O :   -0.174008
   6 O :   -0.072723
   7 C :   -0.210088
   8 H :    0.119114
   9 H :    0.116492
  10 H :    0.119348
  11 H :    0.114161
  12 H :    0.117633
  13 H :    0.116847
  14 H :    0.123850
  15 H :    0.126796
  16 H :    0.142250
  17 H :    0.124073
  18 H :    0.120588
  19 H :    0.120456

-------------------------------
LOEWDIN REDUCED ORBITAL CHARGES
-------------------------------
  0 C s       :     2.944542  s :     2.944542
      pz      :     1.121126  p :     3.323129
      px      :     1.083401
      py      :     1.118602
      dz2     :     0.018544  d :     0.070970
      dxz     :     0.013887
      dyz     :     0.007274
      dx2y2   :     0.017314
      dxy     :     0.013950

  1 C s       :     2.907133  s :     2.907133
      pz      :     1.098986  p :     3.240752
      px      :     1.073775
      py      :     1.067991
      dz2     :     0.019247  d :     0.088872
      dxz     :     0.014634
      dyz     :     0.015229
      dx2y2   :     0.019936
      dxy     :     0.019827

  2 C s       :     2.910160  s :     2.910160
      pz      :     1.106273  p :     3.221781
      px      :     1.040350
      py      :     1.075159
      dz2     :     0.018931  d :     0.088335
      dxz     :     0.014319
      dyz     :     0.015309
      dx2y2   :     0.019646
      dxy     :     0.020130

  3 C s       :     2.915947  s :     2.915947
      pz      :     1.087409  p :     3.244503
      px      :     1.059940
      py      :     1.097154
      dz2     :     0.020613  d :     0.084074
      dxz     :     0.018692
      dyz     :     0.010000
      dx2y2   :     0.021094
      dxy     :     0.013676

  4 C s       :     2.849246  s :     2.849246
      pz      :     1.022384  p :     2.817329
      px      :     0.915764
      py      :     0.879181
      dz2     :     0.068073  d :     0.298013
      dxz     :     0.095916
      dyz     :     0.083480
      dx2y2   :     0.026505
      dxy     :     0.024039

  5 O s       :     3.549954  s :     3.549954
      pz      :     1.454263  p :     4.593102
      px      :     1.601790
      py      :     1.537048
      dz2     :     0.016228  d :     0.030953
      dxz     :     0.006809
      dyz     :     0.007251
      dx2y2   :     0.000294
      dxy     :     0.000372

  6 O s       :     3.450348  s :     3.450348
      pz      :     1.652121  p :     4.589238
      px      :     1.426267
      py      :     1.510850
      dz2     :     0.004267  d :     0.033137
      dxz     :     0.009099
      dyz     :     0.007460
      dx2y2   :     0.005132
      dxy     :     0.007178

  7 C s       :     2.966739  s :     2.966739
      pz      :     1.115093  p :     3.131713
      px      :     0.955023
      py      :     1.061597
      dz2     :     0.027332  d :     0.111636
      dxz     :     0.020072
      dyz     :     0.011067
      dx2y2   :     0.031763
      dxy     :     0.021402

  8 H s       :     0.880886  s :     0.880886

  9 H s       :     0.883508  s :     0.883508

 10 H s       :     0.880652  s :     0.880652

 11 H s       :     0.885839  s :     0.885839

 12 H s       :     0.882367  s :     0.882367

 13 H s       :     0.883153  s :     0.883153

 14 H s       :     0.876150  s :     0.876150

 15 H s       :     0.873204  s :     0.873204

 16 H s       :     0.857750  s :     0.857750

 17 H s       :     0.875927  s :     0.875927

 18 H s       :     0.879412  s :     0.879412

 19 H s       :     0.879544  s :     0.879544


---------------------------------
LOEWDIN BOND ORDERS (THRESH 0.050000)
---------------------------------
B(  0-C ,  1-C ) :   1.1315 B(  0-C ,  2-C ) :   0.0568 B(  0-C ,  8-H ) :   0.9394 
B(  0-C ,  9-H ) :   0.9407 B(  0-C , 10-H ) :   0.9408 B(  1-C ,  2-C ) :   1.0945 
B(  1-C ,  3-C ) :   0.0540 B(  1-C , 11-H ) :   0.9072 B(  1-C , 12-H ) :   0.9039 
B(  2-C ,  3-C ) :   1.0766 B(  2-C ,  4-C ) :   0.0628 B(  2-C , 13-H ) :   0.9023 
B(  2-C , 14-H ) :   0.8998 B(  3-C ,  4-C ) :   1.0551 B(  3-C ,  5-O ) :   0.0942 
B(  3-C ,  6-O ) :   0.0738 B(  3-C , 15-H ) :   0.8959 B(  3-C , 16-H ) :   0.8822 
B(  4-C ,  5-O ) :   2.1967 B(  4-C ,  6-O ) :   1.4055 B(  4-C ,  7-C ) :   0.0763 
B(  5-O ,  6-O ) :   0.2123 B(  6-O ,  7-C ) :   1.1033 B(  7-C , 17-H ) :   0.9325 
B(  7-C , 18-H ) :   0.9523 B(  7-C , 19-H ) :   0.9514 

------------------------------------------
LOEWDIN REDUCED ORBITAL POPULATIONS PER MO
-------------------------------------------
THRESHOLD FOR PRINTING IS 0.1%%
                      0         1         2         3         4         5   
                 -18.79972 -18.73101 -10.00514  -9.93972  -9.89618  -9.88916
                   2.00000   2.00000   2.00000   2.00000   2.00000   2.00000
                  --------  --------  --------  --------  --------  --------
 1 C  py              0.0       0.0       0.0       0.0       0.0       0.1
 2 C  s               0.0       0.0       0.0       0.0       0.0      99.6
 3 C  s               0.0       0.0       0.0       0.0      99.6       0.0
 4 C  s               0.0       0.0      99.3       0.0       0.0       0.0
 5 O  s               0.0      99.9       0.0       0.0       0.0       0.0
 5 O  pz              0.0       0.0       0.3       0.0       0.0       0.0
 6 O  s              99.9       0.0       0.0       0.0       0.0       0.0
 7 C  s               0.0       0.0       0.0      99.7       0.0       0.0

                      6         7         8         9        10        11   
                  -9.88518  -9.87474  -1.00420  -0.90862  -0.73096  -0.68494
                   2.00000   2.00000   2.00000   2.00000   2.00000   2.00000
                  --------  --------  --------  --------  --------  --------
 0 C  s               0.0      99.7       0.0       0.0       5.0      11.1
 0 C  pz              0.0       0.0       0.0       0.0       0.2       0.1
 0 C  px              0.1       0.0       0.0       0.0       1.3       1.0
 0 C  py              0.0       0.0       0.0       0.0       0.2       0.0
 1 C  s              99.6       0.0       0.0       0.0      14.3      11.3
 1 C  pz              0.0       0.0       0.0       0.0       0.0       0.2
 1 C  px              0.0       0.1       0.0       0.0       0.0       1.3
 1 C  py              0.0       0.0       0.0       0.0       1.7       0.0
 2 C  s               0.0       0.0       0.1       0.1      20.2       0.9
 2 C  pz              0.0       0.0       0.0       0.0       0.2       0.2
 2 C  px              0.0       0.0       0.1       0.1       0.7       2.3
 2 C  py              0.1       0.0       0.0       0.0       0.8       1.8
 3 C  s               0.0       0.0       1.0       0.3      16.7       6.0
 3 C  pz              0.0       0.0       0.4       0.5       0.4       0.0
 3 C  px              0.0       0.0       1.0       0.1       1.0       2.0
 3 C  py              0.0       0.0       0.5       0.0       0.4       0.1
 4 C  s               0.0       0.0      18.4       5.3       1.9       4.4
 4 C  pz              0.0       0.0       0.0      20.4       3.7       5.8
 4 C  px              0.0       0.0       3.1       0.5       3.1       0.8
 4 C  py              0.0       0.0       2.1       3.2       0.4       0.3
 4 C  dz2             0.0       0.0       0.2       1.5       0.0       0.0
 4 C  dxz             0.0       0.0       0.1       0.3       0.0       0.0
 4 C  dyz             0.0       0.0       0.4       0.0       0.0       0.0
 4 C  dxy             0.0       0.0       0.4       0.2       0.0       0.1
 5 O  s               0.0       0.0      10.8      42.1       1.1       1.1
 5 O  pz              0.0       0.0       2.5       4.3       0.1       0.3
 5 O  px              0.0       0.0       0.0       0.1       0.1       0.0
 5 O  py              0.0       0.0       0.2       0.1       0.0       0.0
 5 O  dz2             0.0       0.0       0.1       0.2       0.0       0.0
 6 O  s               0.0       0.0      42.2      15.1       0.1       0.0
 6 O  pz              0.0       0.0       2.7       0.2       0.1       0.1
 6 O  px              0.0       0.0       0.0       0.3       1.6       8.8
 6 O  py              0.0       0.0       0.4       0.2       0.8       5.7
 7 C  s               0.0       0.0       4.7       2.2       1.5      12.1
 7 C  pz              0.0       0.0       0.7       0.6       0.0       0.1
 7 C  px              0.0       0.0       3.3       0.8       0.1       0.1
 7 C  py              0.0       0.0       1.6       0.3       0.0       0.0
 7 C  dxz             0.0       0.0       0.1       0.1       0.0       0.0
 7 C  dxy             0.0       0.0       0.2       0.1       0.0       0.0
 8 H  s               0.0       0.1       0.0       0.0       0.8       2.1
 9 H  s               0.0       0.1       0.0       0.0       0.9       2.2
10 H  s               0.0       0.1       0.0       0.0       0.9       2.2
11 H  s               0.1       0.0       0.0       0.0       2.6       2.1
12 H  s               0.1       0.0       0.0       0.0       2.7       2.0
13 H  s               0.0       0.0       0.0       0.0       3.6       0.3
14 H  s               0.0       0.0       0.0       0.0       3.5       0.2
15 H  s               0.0       0.0       0.2       0.0       3.2       1.5
16 H  s               0.0       0.0       0.1       0.1       2.9       1.2
17 H  s               0.0       0.0       0.9       0.1       0.3       2.4
18 H  s               0.0       0.0       0.5       0.3       0.3       2.8
19 H  s               0.0       0.0       0.5       0.3       0.3       2.7

                     12        13        14        15        16        17   
                  -0.64729  -0.57645  -0.52567  -0.49897  -0.45212  -0.43626
                   2.00000   2.00000   2.00000   2.00000   2.00000   2.00000
                  --------  --------  --------  --------  --------  --------
 0 C  s              11.4      13.9       4.7       0.2       0.0       0.1
 0 C  pz              0.0       0.2       0.9       0.2       1.6       0.0
 0 C  px              0.1       1.8       5.0       0.8       0.0       1.0
 0 C  py              0.0       0.4       0.1       0.4       0.0       0.3
 1 C  s               3.0       2.3      10.9       1.9       0.2       0.3
 1 C  pz              0.3       0.4       0.8       0.4       5.4       0.3
 1 C  px              2.6       4.2       3.4       0.4       0.7       0.3
 1 C  py              1.6       3.2       3.3       2.9       0.2       0.0
 1 C  dx2y2           0.1       0.2       0.0       0.0       0.0       0.0
 2 C  s               4.6       9.9       5.0       3.1       0.1       0.0
 2 C  pz              0.2       0.2       0.1       0.7      11.9       1.8
 2 C  px              2.1       2.1       0.2       1.7       0.5       1.4
 2 C  py              1.5       0.5       8.6       1.0       0.5       0.0
 2 C  dx2y2           0.1       0.1       0.1       0.0       0.0       0.0
 3 C  s               8.4       7.3       0.0       1.9       1.5       0.3
 3 C  pz              0.1       0.3       0.1       0.7      16.0       1.5
 3 C  px              1.4       5.9       3.7       0.2       2.1       2.9
 3 C  py              0.3       0.2       2.1       0.5       3.4       2.7
 3 C  dxz             0.0       0.1       0.1       0.0       0.0       0.0
 3 C  dyz             0.0       0.0       0.0       0.0       0.2       0.0
 4 C  s               0.6       1.3       1.5       1.7       1.8       0.3
 4 C  pz              0.4       1.6       1.0       0.9       0.1       0.8
 4 C  px              2.6       2.1       0.3       1.9      10.8       3.1
 4 C  py              2.0       2.5       0.0       2.7       0.6      11.5
 4 C  dxz             0.2       0.1       0.0       0.0       0.0       0.0
 4 C  dyz             0.1       0.1       0.0       0.0       0.0       0.0
 5 O  s               0.0       0.3       0.4       1.0       0.9       0.3
 5 O  pz              0.0       0.2       0.2       0.5       1.0       1.3
 5 O  px              0.1       0.1       0.0       0.6       5.7       0.5
 5 O  py              0.1       0.2       0.0       0.9       0.3       3.9
 6 O  s               0.7       1.0       1.6       3.5       0.4       0.0
 6 O  pz              0.1       0.1       0.3       5.4       3.1       1.9
 6 O  px              6.9       0.0       2.0       9.3       0.5       9.6
 6 O  py              4.7       0.0       1.2       9.0       2.9      14.3
 7 C  s              16.2       4.2       3.0       3.9       0.0       0.0
 7 C  pz              0.1       0.1       1.6      10.5       3.4       2.2
 7 C  px              0.2       1.0       2.4       5.8       0.0       9.9
 7 C  py              0.2       0.4       1.0       1.2       3.0      11.1
 7 C  dxz             0.0       0.0       0.1       0.4       0.0       0.0
 7 C  dyz             0.0       0.0       0.0       0.2       0.0       0.1
 7 C  dxy             0.0       0.0       0.1       0.1       0.0       0.0
 8 H  s               2.7       5.2       1.7       0.0       0.0       0.4
 9 H  s               2.5       4.2       3.0       0.4       0.1       0.2
10 H  s               2.5       4.2       2.9       0.4       0.6       0.1
11 H  s               0.6       0.6       6.1       1.9       2.4       0.0
12 H  s               0.7       0.6       6.6       1.4       0.5       0.0
13 H  s               1.0       3.1       4.1       2.2       1.5       0.1
14 H  s               1.0       2.7       3.1       2.1       3.5       0.7
15 H  s               1.4       2.3       0.1       1.4       5.9       1.6
16 H  s               2.3       3.2       0.3       1.6       2.9       0.6
17 H  s               3.4       1.3       2.2       7.4       1.5       0.6
18 H  s               4.5       1.7       1.7       1.7       1.7       3.6
19 H  s               4.4       1.8       1.7       2.4       0.0       7.5

                     18        19        20        21        22        23   
                  -0.42226  -0.40302  -0.39482  -0.38087  -0.36809  -0.34117
                   2.00000   2.00000   2.00000   2.00000   2.00000   2.00000
                  --------  --------  --------  --------  --------  --------
 0 C  s               0.0       0.0       0.2       0.0       0.0       0.0
 0 C  pz              1.4      11.1       0.1       2.0       8.0       3.5
 0 C  px              0.8       1.0       6.1       0.5       1.0       2.3
 0 C  py              1.4       0.5       0.3      24.3       0.6       5.3
 0 C  dx2y2           0.0       0.0       0.1       0.1       0.0       0.1
 1 C  s               0.1       0.0       0.7       0.1       0.0       0.1
 1 C  pz              3.7      13.0       1.4       2.4       2.3       0.7
 1 C  px              1.1       3.4       2.7       0.5       0.7       4.2
 1 C  py              2.8       0.3       0.8      12.0       0.1       0.5
 1 C  dx2y2           0.0       0.0       0.0       0.0       0.0       0.1
 2 C  s               0.1       0.0       0.1       0.4       0.0       0.7
 2 C  pz              2.5       2.4       2.0       0.0       2.8       0.9
 2 C  px              3.9       1.6       5.6       3.0       0.4       0.1
 2 C  py              0.3       0.1       3.1       9.3       0.1       1.3
 3 C  s               0.4       0.2       0.0       0.2       0.0       0.1
 3 C  pz              2.7       3.9       0.0       3.8       5.6       0.2
 3 C  px              0.3       0.6       3.9       4.1       1.8       0.0
 3 C  py              4.5       0.1      17.9       1.3       0.1       4.2
 3 C  dxz             0.0       0.1       0.0       0.1       0.0       0.0
 3 C  dx2y2           0.0       0.0       0.1       0.0       0.0       0.3
 4 C  s               0.1       2.9       0.1       0.1       0.7       0.0
 4 C  pz              1.5       1.3       0.5       0.1       4.8       1.3
 4 C  px              0.2       0.5       2.1       0.1       2.9       4.0
 4 C  py              0.0       1.4       1.6       0.8       0.6      12.0
 4 C  dz2             0.5       0.1       0.0       0.0       0.1       0.0
 4 C  dxz             0.0       0.0       0.0       0.1       0.0       0.1
 4 C  dyz             0.2       0.0       0.0       0.1       0.0       0.1
 4 C  dx2y2           0.0       0.0       0.2       0.0       0.0       0.1
 4 C  dxy             0.1       0.0       0.0       0.0       0.1       0.0
 5 O  s               4.8       7.7       0.5       0.2       4.6       0.0
 5 O  pz              5.3      19.0       0.7       0.7      21.2       0.4
 5 O  px              0.1       1.0       0.9       0.1       0.1       6.4
 5 O  py              1.0       0.0       1.4       0.0       1.6      13.5
 5 O  dz2             0.1       0.2       0.0       0.0       0.2       0.0
 5 O  dyz             0.0       0.0       0.0       0.0       0.0       0.1
 6 O  s               1.3       0.3       0.2       0.3       0.2       0.0
 6 O  pz             18.1       1.9       0.4       0.9       0.1       0.4
 6 O  px              2.6       0.3       2.8       1.4       0.0       3.1
 6 O  py              0.3       1.0       0.3       0.7       0.1       2.4
 6 O  dx2y2           0.0       0.0       0.1       0.0       0.0       0.1
 7 C  s               0.2       0.0       0.0       0.0       0.0       0.0
 7 C  pz              6.7       0.2       0.1       1.0      10.2       1.8
 7 C  px              5.7       1.8       2.6       3.0       1.6       5.7
 7 C  py              4.9       0.7      14.3       0.4       3.6       3.5
 7 C  dz2             0.0       0.0       0.0       0.0       0.2       0.0
 7 C  dx2y2           0.0       0.0       0.1       0.0       0.0       0.3
 7 C  dxy             0.2       0.0       0.0       0.0       0.0       0.0
 8 H  s               0.3       0.1       1.0      11.6       0.1       3.7
 9 H  s               1.2       3.0       1.1       0.6       3.0       0.7
10 H  s               0.2       3.5       0.2       3.1       2.6       0.8
11 H  s               0.3       3.9       0.0       2.4       0.8       0.1
12 H  s               2.9       4.1       0.2       0.7       1.0       0.0
13 H  s               1.8       1.4       1.0       0.5       1.0       0.0
14 H  s               0.5       1.0       1.2       0.7       1.0       0.2
15 H  s               1.6       2.6       0.6       3.2       1.9       0.0
16 H  s               2.6       0.0       9.2       0.1       0.0       3.5
17 H  s               2.1       0.5       0.0       0.5       7.2       0.9
18 H  s               3.5       0.4       7.1       0.3       3.3       2.4
19 H  s               2.7       0.8       3.7       1.5       1.3       7.1

                     24        25        26        27        28        29   
                  -0.33510  -0.32237  -0.30187  -0.29187  -0.28845  -0.28389
                   2.00000   2.00000   2.00000   2.00000   2.00000   2.00000
                  --------  --------  --------  --------  --------  --------
 0 C  s               0.0       0.0       0.3       0.4       0.0       0.0
 0 C  pz              0.1      17.3       0.0       2.7       6.0       0.4
 0 C  px             10.6       0.1      12.2       6.1       1.3       1.1
 0 C  py              8.8       2.3       0.9       0.6       0.2       9.3
 0 C  dz2             0.0       0.3       0.0       0.0       0.3       0.0
 0 C  dxz             0.1       0.0       0.1       0.0       0.2       0.0
 0 C  dx2y2           0.0       0.0       0.0       0.1       0.0       0.2
 0 C  dxy             0.1       0.0       0.1       0.0       0.0       0.3
 1 C  s               0.1       0.0       0.1       0.1       0.0       0.2
 1 C  pz              0.7       2.5       0.1       3.4      16.2       0.6
 1 C  px              6.3       0.4      11.8       5.4       3.3       0.7
 1 C  py              0.4       0.2       2.8       0.1       0.3      19.9
 1 C  dz2             0.0       0.1       0.0       0.1       0.5       0.0
 1 C  dxz             0.0       0.1       0.2       0.0       0.2       0.0
 1 C  dyz             0.0       0.0       0.0       0.0       0.5       0.0
 1 C  dx2y2           0.0       0.0       0.0       0.1       0.0       0.3
 1 C  dxy             0.0       0.1       0.3       0.1       0.1       0.2
 2 C  s               0.0       0.1       0.1       0.1       0.0       0.3
 2 C  pz              0.4      15.2       1.4       1.8      10.2       0.1
 2 C  px             10.2       0.1       2.8       9.2       2.0       1.4
 2 C  py              2.5       0.6       2.0       0.1       0.5      18.7
 2 C  dz2             0.0       0.2       0.1       0.0       0.3       0.0
 2 C  dxz             0.1       0.1       0.0       0.1       0.1       0.0
 2 C  dyz             0.0       0.1       0.0       0.0       0.5       0.0
 2 C  dx2y2           0.0       0.0       0.1       0.1       0.0       0.3
 2 C  dxy             0.1       0.0       0.2       0.2       0.1       0.2
 3 C  s               0.0       0.1       0.8       0.1       0.0       0.1
 3 C  pz              1.5       8.1       3.2       0.8       0.7       0.1
 3 C  px              3.8       0.3       1.2      12.2       0.2       1.6
 3 C  py              5.1       2.0       0.7       0.0       0.1       7.7
 3 C  dz2             0.1       0.3       0.1       0.0       0.1       0.1
 3 C  dxz             0.1       0.1       0.0       0.1       0.1       0.0
 3 C  dx2y2           0.0       0.0       0.0       0.0       0.0       0.3
 3 C  dxy             0.2       0.0       0.0       0.0       0.0       0.2
 4 C  s               0.3       0.1       0.1       0.5       0.2       0.1
 4 C  pz              0.2       0.3       2.3       2.2       0.6       0.6
 4 C  px              4.3       1.8       0.0       0.5       0.3       0.0
 4 C  py              0.4       0.0       0.5       0.2       0.1       0.3
 4 C  dz2             0.1       0.0       0.4       0.1       0.1       0.0
 4 C  dyz             0.0       0.0       0.0       0.3       0.0       0.0
 4 C  dx2y2           0.0       0.0       0.1       0.0       0.0       0.1
 4 C  dxy             0.0       0.0       0.1       0.0       0.0       0.0
 5 O  s               0.1       0.1       0.9       0.5       0.1       0.1
 5 O  pz              0.2       1.2       5.6       4.9       1.0       0.2
 5 O  px              2.6       1.6       0.8       0.2       0.0       0.3
 5 O  py              0.0       0.2       0.1       0.1       0.3       1.5
 6 O  s               0.0       0.4       1.4       3.0       0.1       0.5
 6 O  pz              0.7       0.5      14.9      20.5       1.1       1.9
 6 O  px              0.2       0.9       0.6       0.5       0.0       1.9
 6 O  py              1.7       0.3       0.6       0.4       0.0       1.2
 7 C  s               0.0       0.0       0.1       0.2       0.0       0.0
 7 C  pz              2.6       0.9       5.5       5.8       0.2       0.4
 7 C  px              0.4       0.2       0.1       0.3       0.0       0.6
 7 C  py              3.1       0.5       0.3       0.3       0.0       0.1
 7 C  dz2             0.1       0.0       0.4       0.3       0.0       0.0
 8 H  s               2.8       2.0       0.1       0.7       0.5       8.2
 9 H  s               8.7       1.7       4.9       0.0       3.7       1.9
10 H  s               0.4      11.8       0.1       1.2       6.2       0.2
11 H  s               0.5       1.9       0.7       3.0      14.2       0.2
12 H  s               0.6       0.0       6.9       0.4       9.4       3.2
13 H  s               7.1       3.7       1.6       2.0       5.7       1.9
14 H  s               0.0       8.0       1.6       1.9       9.7       0.4
15 H  s               2.3       8.2       1.5       0.3       1.8       0.7
16 H  s               3.2       0.9       0.2       0.2       0.1       7.5
17 H  s               2.3       0.7       4.3       4.1       0.1       0.3
18 H  s               2.7       0.7       1.2       0.1       0.0       0.5
19 H  s               0.1       0.1       0.1       0.5       0.0       0.3

                     30        31        32        33        34        35   
                  -0.25510  -0.21954  -0.01880   0.04024   0.05690   0.06416
                   2.00000   2.00000   0.00000   0.00000   0.00000   0.00000
                  --------  --------  --------  --------  --------  --------
 0 C  s               0.0       0.0       0.0       5.0       8.2       6.3
 0 C  pz              0.0       0.0       0.0       0.2       0.0       0.5
 0 C  px              0.0       0.0       0.0       2.2       1.3       0.0
 0 C  py              0.0       0.0       0.0       0.0       0.0       0.6
 0 C  dxz             0.0       0.0       0.0       0.2       0.1       0.0
 0 C  dx2y2           0.0       0.0       0.0       0.1       0.0       0.0
 1 C  s               0.0       0.0       0.2       7.1       0.4       0.4
 1 C  pz              0.0       0.0       0.0       0.5       0.9       0.8
 1 C  px              0.0       0.0       0.3       0.8       0.1       1.4
 1 C  py              0.0       0.1       0.1       1.6       0.1       0.2
 1 C  dz2             0.0       0.0       0.0       0.1       0.1       0.0
 1 C  dxz             0.0       0.0       0.0       0.0       0.0       0.2
 1 C  dx2y2           0.0       0.0       0.0       0.0       0.1       0.4
 1 C  dxy             0.0       0.0       0.0       0.0       0.0       0.2
 2 C  s               0.0       0.1       1.7       3.3       0.9       1.3
 2 C  pz              0.1       0.0       0.8       0.1       0.0       0.3
 2 C  px              0.1       0.1       1.3       1.1       0.4       2.7
 2 C  py              0.0       0.2       0.1       1.5       0.9       0.4
 2 C  dxz             0.0       0.0       0.0       0.1       0.0       0.3
 2 C  dx2y2           0.0       0.0       0.0       0.1       0.1       0.3
 2 C  dxy             0.0       0.0       0.0       0.0       0.0       0.3
 3 C  s               0.0       0.6       0.1       2.1       0.8      10.6
 3 C  pz              0.0       3.5       0.0       1.2       0.0       1.5
 3 C  px              0.1       2.6       0.5       0.5       0.0       0.1
 3 C  py              0.2       0.8       0.2       0.1       0.0       2.0
 3 C  dyz             0.0       0.0       0.2       0.0       0.0       0.0
 3 C  dx2y2           0.0       0.0       1.9       0.0       0.0       0.0
 4 C  s               0.0       0.5       0.0       0.9       0.9       0.1
 4 C  pz              0.0       0.6       1.9       0.9       0.0       0.1
 4 C  px              0.3       0.5      17.4       0.7       0.2       0.8
 4 C  py              0.4       0.4      26.6       0.8       0.1       0.1
 4 C  dz2             0.2       0.0       0.1       0.3       0.1       0.0
 4 C  dxz             0.9       2.6       0.2       0.1       0.0       0.0
 4 C  dyz             0.9       1.8       0.5       0.0       0.0       0.0
 4 C  dx2y2           0.5       0.1       0.2       0.0       0.0       0.0
 4 C  dxy             0.0       0.1       0.1       0.1       0.2       0.2
 5 O  s               0.0       0.0       0.0       0.7       0.3       0.0
 5 O  pz              1.6       0.0       0.9       0.1       0.0       0.1
 5 O  px             14.4      44.4       9.5       0.1       0.3       0.1
 5 O  py             22.6      28.7      14.0       0.1       0.4       0.6
 5 O  dxz             0.0       0.0       0.2       0.0       0.0       0.0
 5 O  dyz             0.0       0.0       0.3       0.0       0.0       0.0
 6 O  s               0.0       0.4       0.0       0.4       1.2       0.8
 6 O  pz              2.0       5.2       0.5       0.1       0.1       0.1
 6 O  px             17.3       0.4       4.2       0.2       0.2       0.4
 6 O  py             25.7       1.6       6.3       0.0       0.1       0.0
 6 O  dx2y2           0.0       0.0       0.4       0.0       0.0       0.0
 7 C  s               0.0       0.2       0.0       3.8      10.9       3.6
 7 C  pz              0.1       0.9       0.0       0.1       0.2       0.3
 7 C  px              1.5       0.3       0.0       1.6       5.1       0.4
 7 C  py              2.3       0.2       0.1       0.7       2.5       0.3
 7 C  dxz             0.0       0.0       0.0       0.1       0.1       0.0
 7 C  dx2y2           0.8       0.0       0.4       0.0       0.1       0.0
 7 C  dxy             0.1       0.0       0.0       0.1       0.3       0.1
 8 H  s               0.0       0.0       0.1       3.7       4.5       7.8
 9 H  s               0.0       0.0       0.1       5.3       9.8       0.4
10 H  s               0.0       0.0       0.0       3.7       4.5       5.5
11 H  s               0.0       0.0       0.1       9.8       1.8       0.4
12 H  s               0.0       0.0       0.1       8.0       0.7       4.6
13 H  s               0.1       0.3       1.1       6.6       3.8       7.7
14 H  s               0.1       0.3       0.0       3.7       0.7       0.0
15 H  s               0.0       1.3       0.0       5.5       0.3       9.9
16 H  s               0.1       0.1       5.1       2.0       0.9      18.2
17 H  s               0.1       0.6       0.0       1.8       4.2       1.3
18 H  s               2.9       0.0       0.7       5.2      15.6       3.3
19 H  s               4.1       0.0       1.1       4.9      15.5       1.6

                     36        37        38        39        40        41   
                   0.07482   0.08183   0.10077   0.10678   0.11405   0.12004
                   0.00000   0.00000   0.00000   0.00000   0.00000   0.00000
                  --------  --------  --------  --------  --------  --------
 0 C  s               0.1       0.1       2.7       0.0       1.0       0.2
 0 C  pz              3.9       0.0       1.8       0.0       0.2       2.8
 0 C  px              0.0       0.3       1.3       0.1       0.3       0.2
 0 C  py              0.3       2.7       0.4       0.8      10.6       0.3
 0 C  dz2             0.3       0.0       0.0       0.0       0.3       0.1
 0 C  dx2y2           0.0       0.1       0.1       0.0       0.2       0.0
 1 C  s               0.2       3.2       2.0       0.1       0.1       0.2
 1 C  pz              5.1       0.1       0.4       0.0       0.2       0.4
 1 C  px              0.3       1.1       0.4       0.1       0.7       0.0
 1 C  py              0.1       2.0       1.0       0.1       1.0       0.0
 1 C  dz2             0.2       0.0       0.0       0.0       0.1       0.1
 1 C  dxz             0.0       0.0       0.0       0.0       0.2       0.1
 1 C  dyz             0.3       0.0       0.1       0.0       0.1       0.1
 1 C  dx2y2           0.1       0.0       0.1       0.0       0.0       0.0
 1 C  dxy             0.0       0.3       0.1       0.0       0.1       0.0
 2 C  s               0.9       2.1       0.7       0.1       0.8       0.0
 2 C  pz              5.2       0.1       1.9       0.0       0.3       0.3
 2 C  px              0.1       0.8       0.6       0.1       1.3       0.1
 2 C  py              0.3       1.6       0.0       0.1       0.4       0.0
 2 C  dz2             0.3       0.0       0.0       0.0       0.1       0.1
 2 C  dxz             0.0       0.0       0.0       0.0       0.3       0.1
 2 C  dyz             0.3       0.0       0.1       0.0       0.1       0.0
 2 C  dxy             0.0       0.3       0.0       0.0       0.1       0.0
 3 C  s               0.2       0.3       0.4       0.1       0.5       0.1
 3 C  pz              3.9       0.2       1.1       0.0       0.2       3.6
 3 C  px              0.3       0.4       0.1       0.1       0.3       0.6
 3 C  py              2.3       1.5       0.1       0.1      10.3       0.1
 3 C  dz2             0.6       0.0       0.1       0.0       0.2       0.1
 3 C  dxz             0.1       0.0       0.2       0.0       0.0       0.1
 3 C  dyz             0.1       0.0       0.1       0.0       0.0       0.2
 3 C  dx2y2           0.0       0.1       0.0       0.0       0.1       0.0
 3 C  dxy             0.0       0.1       0.1       0.0       0.0       0.0
 4 C  s               1.0       0.6       0.1       0.2       0.4       1.8
 4 C  pz              0.5       0.3       0.8       0.0       0.7       0.7
 4 C  px              0.5       0.1       0.1       0.1       0.8       0.3
 4 C  py              0.1       0.4       0.7       0.2       0.3       0.1
 4 C  dz2             0.1       0.0       0.7       0.0       0.1       0.0
 4 C  dxy             0.9       0.3       0.1       0.0       0.0       0.4
 5 O  s               0.2       0.0       0.3       0.0       0.2       0.6
 5 O  pz              0.0       0.1       0.1       0.0       0.0       0.1
 5 O  px              0.1       0.0       0.4       0.1       0.4       1.2
 5 O  py              0.0       0.2       0.3       0.2       0.6       0.5
 6 O  s               1.9       4.4       4.0       0.0       0.3       0.4
 6 O  pz              1.3       1.4       1.9       0.0       0.1       0.1
 6 O  px              0.3       1.7       2.9       1.2       0.2       0.1
 6 O  py              0.0       1.0       1.5       0.2       0.6       0.2
 6 O  dz2             0.0       0.0       0.0       0.0       0.0       0.2
 6 O  dxz             0.0       0.1       0.1       0.1       0.0       0.1
 6 O  dyz             0.0       0.0       0.1       0.1       0.0       0.1
 6 O  dx2y2           0.0       0.0       0.0       0.1       0.0       0.0
 6 O  dxy             0.2       0.2       0.2       0.0       0.0       0.2
 7 C  s               1.8       9.1       0.6       0.1       0.2       0.7
 7 C  pz              1.4       2.2       2.1       0.1       1.5      17.7
 7 C  px              2.5       6.7      18.8       4.8       1.3       0.7
 7 C  py              0.7       3.3       4.4      21.7       0.2       0.0
 7 C  dz2             0.2       0.1       0.0       0.1       0.1       1.4
 7 C  dxz             0.2       0.6       1.2       0.1       0.2       0.0
 7 C  dyz             0.1       0.3       0.2       0.5       0.0       0.1
 7 C  dx2y2           0.0       0.2       0.2       0.8       0.0       0.0
 7 C  dxy             0.3       0.9       1.9       0.0       0.1       0.0
 8 H  s               0.4       3.1       0.8       1.3      27.5       0.4
 9 H  s               0.7       4.2      13.0       0.8       0.5       1.0
10 H  s               9.7       0.8       0.1       0.1       1.5       6.8
11 H  s              12.2       6.1       0.8       0.2       0.1       1.6
12 H  s               2.3       9.1       7.3       0.3       1.0       0.2
13 H  s               0.4       9.8       1.6       0.4       1.7       0.5
14 H  s              16.0       1.8       4.7       0.2       1.3       0.4
15 H  s               9.2       3.0       2.9       0.2       1.7       6.3
16 H  s               6.9       0.6       0.4       0.4      22.9       0.1
17 H  s               0.1       2.5       2.0       1.3       1.3      37.9
18 H  s               1.6       1.5       0.2      37.5       1.7       1.0
19 H  s               0.4       5.7       6.7      24.8       0.0       6.2

                     42        43        44        45        46        47   
                   0.12848   0.13332   0.13884   0.14698   0.18532   0.20081
                   0.00000   0.00000   0.00000   0.00000   0.00000   0.00000
                  --------  --------  --------  --------  --------  --------
 0 C  s               4.9       0.5       0.0       0.0       1.9       0.3
 0 C  pz              2.0       0.1       3.6       9.7       2.0       1.9
 0 C  px              1.6       0.5       0.5       1.6      11.7      11.3
 0 C  py              0.1       9.1       0.3       0.3       2.6       1.2
 0 C  dz2             0.0       0.3       0.0       0.4       0.2       0.4
 0 C  dxz             0.3       0.1       0.3       0.2       0.7       1.1
 0 C  dyz             0.0       0.0       0.5       0.5       0.2       0.0
 0 C  dx2y2           0.3       0.3       0.1       0.0       2.5       0.7
 0 C  dxy             0.0       0.4       0.0       0.0       0.6       0.1
 1 C  s               7.4       2.9       0.1       0.6       6.2       0.1
 1 C  pz              0.0       0.0      14.5       0.1       3.4       0.2
 1 C  px              0.1       1.6       2.2       0.0       7.5       9.4
 1 C  py              0.6       0.5       0.3       0.2       4.8       3.4
 1 C  dz2             0.0       0.0       0.1       0.2       2.1       0.0
 1 C  dxz             0.2       0.0       0.1       0.6       1.3       0.6
 1 C  dyz             0.0       0.1       0.2       0.8       0.0       0.1
 1 C  dx2y2           0.1       0.7       0.0       0.1       0.0       2.6
 1 C  dxy             0.0       0.5       0.1       0.2       0.1       0.3
 2 C  s               1.2      11.9       0.0       0.9       0.5       1.0
 2 C  pz              0.0       0.1       2.5       9.5       0.6       2.0
 2 C  px              0.2       0.7       2.2       3.6       5.4       9.6
 2 C  py              1.1       0.6       0.0       0.8       2.7       4.7
 2 C  dz2             0.2       0.1       0.1       0.0       0.1       0.0
 2 C  dxz             0.1       0.0       0.6       0.1       0.1       0.8
 2 C  dyz             0.0       0.0       0.3       0.8       0.3       0.0
 2 C  dx2y2           0.1       0.1       0.0       0.0       1.6       3.2
 2 C  dxy             0.1       0.2       0.0       0.4       0.7       0.2
 3 C  s               3.6       1.0       0.2       0.0       1.9       2.5
[...]
 2 C  px              0.2       2.1       0.2       0.1       0.0       0.0
 2 C  py              0.3       1.4       0.1       0.0       0.0       0.0
 2 C  dz2             0.4       0.1       0.0       0.1       0.0       0.0
 2 C  dxz             0.5       2.7       0.6       0.3       0.2       0.0
 2 C  dx2y2           2.6      17.6       1.8       0.3       0.0       0.0
 2 C  dxy             0.5       1.5       0.0       0.1       0.2       0.0
 3 C  s               0.2       0.2       0.1       0.1       0.0       0.3
 3 C  pz              0.2       0.1       0.0       0.1       0.0       0.0
 3 C  px              0.0       2.0       0.3       0.2       0.0       0.1
 3 C  py              0.2       0.0       0.0       0.0       0.1       0.1
 3 C  dz2             0.0       0.5       0.1       2.3       0.7       0.7
 3 C  dxz             0.0       4.5       0.3       2.2       0.0       0.1
 3 C  dyz             0.0       0.2       0.0       0.0       0.5       0.1
 3 C  dx2y2           0.7       1.4       1.1       0.0       0.6       0.1
 3 C  dxy             0.0       5.3       0.5       0.0       0.0       0.8
 4 C  s               0.1       0.6       0.1       0.2       0.1       1.0
 4 C  pz              0.1       0.2       0.0       0.2       0.0       1.5
 4 C  px              0.0       0.4       0.1       0.5       0.3       0.8
 4 C  py              0.0       0.1       0.0       0.1       0.7       1.1
 4 C  dz2             0.2       0.3       0.0       5.5       0.7       1.3
 4 C  dxz             0.1       0.5       0.0       0.2       0.4       3.6
 4 C  dyz             0.1       0.0       0.0       0.1       0.4       0.5
 4 C  dx2y2           0.0       0.1       1.2       0.3      12.1       0.2
 4 C  dxy             1.5       0.9       0.0       6.6       0.0       0.7
 5 O  s               0.0       0.0       0.0       1.2       0.1       0.4
 5 O  pz              0.0       0.0       0.0       0.4       0.1       0.4
 5 O  px              0.0       0.0       0.0       0.3       0.1       0.4
 5 O  py              0.0       0.0       0.0       0.0       0.2       0.1
 5 O  dz2             0.2       0.1       0.8       0.1       2.3       1.7
 5 O  dxz             0.5       0.1       1.3      13.2       3.0      16.5
 5 O  dyz             2.4       0.1       3.7       0.2       4.5       8.0
 5 O  dx2y2           1.3       0.4       3.4       0.0      12.0       0.9
 5 O  dxy            69.4       9.6       0.3       3.3       0.3       0.4
 6 O  s               0.2       0.0       0.0       0.5       0.1       7.3
 6 O  pz              0.5       0.1       0.1       1.3       0.1       0.8
 6 O  px              0.1       0.0       0.2       0.7       0.7       0.1
 6 O  py              0.1       0.1       0.4       0.5       0.1       0.2
 6 O  dz2             4.5       1.1       8.0      35.4       0.0       0.0
 6 O  dxz             0.1       1.7       6.9       5.7      21.3       0.0
 6 O  dyz             0.1       4.2      25.0       0.0       8.1       3.1
 6 O  dx2y2           0.0       4.1      22.6       7.3      27.2       1.7
 6 O  dxy             0.8       0.0       6.8       3.9       1.2      40.4
 7 C  s               0.0       0.0       0.0       0.6       0.1       0.5
 7 C  pz              0.0       0.0       0.0       0.0       0.0       0.2
 7 C  px              0.0       0.0       0.2       0.5       0.1       0.4
 7 C  py              0.1       0.0       0.2       0.3       0.0       0.2
 7 C  dz2             0.3       0.0       0.2       1.3       0.4       0.1
 7 C  dxz             0.2       0.0       0.0       0.1       0.1       1.6
 7 C  dyz             0.1       0.1       1.4       0.0       0.3       0.4
 7 C  dx2y2           0.0       0.9       7.8       0.0       0.1       0.2
 7 C  dxy             0.0       0.4       0.5       3.4       0.2       0.8
16 H  s               0.1       0.0       0.0       0.0       0.0       0.0

                    132       133       134       135   
                   3.11551   3.31304   3.48369   3.55965
                   0.00000   0.00000   0.00000   0.00000
                  --------  --------  --------  --------
 3 C  s               0.0       0.2       0.1       0.0
 3 C  pz              0.0       0.1       0.0       0.1
 3 C  px              0.0       0.0       0.2       0.0
 3 C  py              0.0       0.0       0.1       0.0
 3 C  dz2             0.0       0.2       0.7       0.1
 3 C  dxz             0.1       0.5       0.1       0.3
 3 C  dyz             0.0       0.1       0.1       0.1
 3 C  dx2y2           0.9       0.0       0.1       0.0
 3 C  dxy             0.0       0.0       0.8       0.0
 4 C  s               0.0       3.7       0.1       6.3
 4 C  pz              0.0       0.2       2.9       3.8
 4 C  px              0.1       0.9       0.4       0.2
 4 C  py              0.3       0.5       0.9       0.0
 4 C  dz2             2.5       2.3       0.8       7.9
 4 C  dxz             7.2       0.8      11.1       1.0
 4 C  dyz             9.5       1.0       6.6       4.1
 4 C  dx2y2           1.1       0.3       0.5       0.3
 4 C  dxy             0.4       2.5       1.2       0.0
 5 O  s               0.0       1.7       1.0       4.1
 5 O  pz              0.1       0.6       0.7       3.0
 5 O  px              0.4       0.1       0.2       0.3
 5 O  py              0.6       0.2       0.3       0.0
 5 O  dz2             7.7       9.0       9.0      41.5
 5 O  dxz            18.9       1.7       7.3      10.2
 5 O  dyz            31.5       7.4      12.4       0.3
 5 O  dx2y2           0.0       0.2       0.9       0.1
 5 O  dxy             2.5       0.2       0.0       0.2
 6 O  s               0.0       0.1       0.9       0.4
 6 O  pz              0.0       0.1       0.3       0.1
 6 O  px              0.0       1.5       1.8       0.1
 6 O  py              0.0       1.1       1.4       0.0
 6 O  dz2             0.0       9.9       1.3       5.5
 6 O  dxz             0.8      18.3      15.2       0.1
 6 O  dyz             0.0      18.2      11.2       0.0
 6 O  dx2y2          13.9       2.9       0.3       0.3
 6 O  dxy             0.5       5.1       7.3       8.1
 7 C  s               0.0       1.1       0.2       0.0
 7 C  pz              0.0       0.4       0.0       0.1
 7 C  px              0.0       0.9       0.1       0.0
 7 C  py              0.0       0.4       0.1       0.0
 7 C  dz2             0.0       0.2       0.7       0.1
 7 C  dxz             0.0       2.1       0.0       0.5
 7 C  dyz             0.2       1.0       0.0       0.1
 7 C  dx2y2           0.3       0.4       0.0       0.0
 7 C  dxy             0.1       1.6       0.4       0.0


                      *****************************
                      * MAYER POPULATION ANALYSIS *
                      *****************************

  NA   - Mulliken gross atomic population
  ZA   - Total nuclear charge
  QA   - Mulliken gross atomic charge
  VA   - Mayer's total valence
  BVA  - Mayer's bonded valence
  FA   - Mayer's free valence

  ATOM       NA         ZA         QA         VA         BVA        FA
  0 C      6.2558     6.0000    -0.2558     4.0183     4.0183    -0.0000
  1 C      6.2112     6.0000    -0.2112     4.1514     4.1514     0.0000
  2 C      6.1967     6.0000    -0.1967     4.1353     4.1353    -0.0000
  3 C      6.0996     6.0000    -0.0996     3.9181     3.9181     0.0000
  4 C      5.9162     6.0000     0.0838     4.4128     4.4128     0.0000
  5 O      8.2062     8.0000    -0.2062     2.2979     2.2979     0.0000
  6 O      8.2393     8.0000    -0.2393     2.2738     2.2738     0.0000
  7 C      6.1325     6.0000    -0.1325     3.8388     3.8388    -0.0000
  8 H      0.8975     1.0000     0.1025     0.9499     0.9499    -0.0000
  9 H      0.9035     1.0000     0.0965     0.9570     0.9570    -0.0000
 10 H      0.8985     1.0000     0.1015     0.9572     0.9572    -0.0000
 11 H      0.9158     1.0000     0.0842     0.9468     0.9468     0.0000
 12 H      0.8978     1.0000     0.1022     0.9476     0.9476     0.0000
 13 H      0.9136     1.0000     0.0864     0.9487     0.9487     0.0000
 14 H      0.8966     1.0000     0.1034     0.9662     0.9662    -0.0000
 15 H      0.9088     1.0000     0.0912     0.9761     0.9761    -0.0000
 16 H      0.8879     1.0000     0.1121     0.9530     0.9530    -0.0000
 17 H      0.8668     1.0000     0.1332     0.9980     0.9980    -0.0000
 18 H      0.8777     1.0000     0.1223     0.9552     0.9552    -0.0000
 19 H      0.8779     1.0000     0.1221     0.9544     0.9544    -0.0000

  Mayer bond orders larger than 0.100000
B(  0-C ,  1-C ) :   1.1575 B(  0-C ,  8-H ) :   0.9532 B(  0-C ,  9-H ) :   0.9546 
B(  0-C , 10-H ) :   0.9545 B(  1-C ,  2-C ) :   1.1345 B(  1-C , 11-H ) :   0.9259 
B(  1-C , 12-H ) :   0.9190 B(  2-C ,  3-C ) :   1.1129 B(  2-C , 13-H ) :   0.9231 
B(  2-C , 14-H ) :   0.9144 B(  3-C ,  4-C ) :   1.0095 B(  3-C , 15-H ) :   0.9074 
B(  3-C , 16-H ) :   0.8933 B(  4-C ,  5-O ) :   2.0597 B(  4-C ,  6-O ) :   1.2166 
B(  6-O ,  7-C ) :   0.9369 B(  7-C , 17-H ) :   0.9289 B(  7-C , 18-H ) :   0.9607 
B(  7-C , 19-H ) :   0.9605 

-------
TIMINGS
-------

Total SCF time: 0 days 0 hours 0 min 8 sec 

Total time                  ....       8.159 sec
Sum of individual times     ....       7.463 sec  ( 91.5%)

SCF preparation             ....       0.158 sec  (  1.9%)
Fock matrix formation       ....       6.503 sec  ( 79.7%)
  Startup                   ....       0.052 sec  (  0.8% of F)
  Split-RI-J                ....       2.240 sec  ( 34.4% of F)
  XC integration            ....       3.710 sec  ( 57.0% of F)
    Basis function eval.    ....       1.336 sec  ( 36.0% of XC)
    Density eval.           ....       0.467 sec  ( 12.6% of XC)
    XC-Functional eval.     ....       0.352 sec  (  9.5% of XC)
    XC-Potential eval.      ....       0.727 sec  ( 19.6% of XC)
Diagonalization             ....       0.000 sec  (  0.0%)
Density matrix formation    ....       0.189 sec  (  2.3%)
Total Energy calculation    ....       0.033 sec  (  0.4%)
Population analysis         ....       0.071 sec  (  0.9%)
Orbital Transformation      ....       0.047 sec  (  0.6%)
Orbital Orthonormalization  ....       0.000 sec  (  0.0%)
DIIS solution               ....       0.314 sec  (  3.9%)
  MO trafo                  ....       0.000 sec  (  0.0 % of DIIS)
  Orb grad                  ....       0.000 sec  (  0.0 % of DIIS)
  Energy W gradient         ....       0.000 sec  (  0.0 % of DIIS)
  DIIS error                ....       0.003 sec  (  0.9 % of DIIS)
  DIIS work                 ....       0.272 sec  ( 86.4 % of DIIS)
  Form Q                    ....       0.000 sec  (  0.0 % of DIIS)
  Form QpQm                 ....       0.000 sec  (  0.0 % of DIIS)
  Exp/Cayley                ....       0.000 sec  (  0.0 % of DIIS)
  Orb update                ....       0.000 sec  (  0.0 % of DIIS)
  Wake-sleep                ....       0.018 sec  (  5.8 % of DIIS)
SOSCF solution              ....       0.147 sec  (  1.8%)
  MO trafo                  ....       0.052 sec  ( 35.1 % of SOSCF)
  Orb grad                  ....       0.003 sec  (  1.9 % of SOSCF)
  Rot update                ....       0.058 sec  ( 39.6 % of SOSCF)
  Step                      ....       0.034 sec  ( 23.3 % of SOSCF)
Finished LeanSCF after   8.3 sec

Maximum memory used throughout the entire LEANSCF-calculation: 12.7 MB


-------------------------------------------------------------------------------
                          DFT DISPERSION CORRECTION                            
                                                                               
                                DFTD4 V3.4.0                                   
-------------------------------------------------------------------------------
The PBE functional is recognized
Active option DFTDOPT                   ...         5   

-------------------------   ----------------
Dispersion correction           -0.015093162
-------------------------   ----------------

------------------   -----------------
gCP correction             0.090246650
------------------   -----------------

-------------------------   --------------------
FINAL SINGLE POINT ENERGY      -385.452554069879
-------------------------   --------------------


------------------------------------------------------------------------------
                              ORCA PROPERTY CALCULATIONS
------------------------------------------------------------------------------

GBWName                                 ... sp.gbw
Number of atoms                         ...     20
Number of basis functions               ...    136
Max core memory                         ...   1024 MB

Electric properties:
Dipole moment                           ... YES
Quadrupole moment                       ...  NO
Static polarizability (Dipole/Dipole)   ...  NO
Static polarizability (Dipole/Quad.)    ...  NO
Static polarizability (Quad./Quad.)     ...  NO
Static polarizability (Velocity)        ...  NO

Atomic electric properties:
Dipole moment                           ...  NO
Quadrupole moment                       ...  NO
Static polarizability                   ...  NO

Choice of electric origin               ... Center of mass
Position of electric origin             ...    -0.000032    -0.000007     0.000006

General magnetic properties:
Magnetizability                         ...  NO

EPR properties:
g-Tensor (aka g-matrix)                 ...  NO
Zero-Field splitting spin-orbit         ...  NO
Zero-field splitting spin-spin          ...  NO
Hyperfine couplings                     ...  NO (   0 nuclei)
Quadrupole couplings                    ...  NO (   0 nuclei)
Contact density                         ...  NO (   0 nuclei)

NMR properties:
Chemical shifts                         ...  NO (   0 nuclei)
Spin-rotation constants                 ...  NO (   0 nuclei)
Spin-spin couplings                     ...  NO (   0 nuclei,    0 pairs)

Choice of magnetic origin               ... GIAO
Position of magnetic origin             ...     0.000000     0.000000     0.000000

Properties with geometric perturbations:
SCF Hessian                             ...  NO
IR spectrum                             ...  NO
VCD spectrum                            ...  NO
X-ray spectroscopy properties:
SCF XES/XAS/RIXS spectra                ...  NO


-------------
DIPOLE MOMENT
-------------

Method             : SCF
Type of density    : Electron Density
Multiplicity       :   1
Irrep              :   0
Energy             :  -385.5277075578217705 Eh
Relativity type    : 
Basis              : AO
                                X                 Y                 Z
Electronic contribution:      8.018776675       2.570548359      -0.743642609
Nuclear contribution   :     -7.894009440      -2.899417326       1.330743003
                        -----------------------------------------
Total Dipole Moment    :      0.124767234      -0.328868967       0.587100394
                        -----------------------------------------
Magnitude (a.u.)       :      0.684403779
Magnitude (Debye)      :      1.739616158



--------------------
Rotational spectrum 
--------------------
 
Rotational constants in cm-1:             0.125142             0.033508             0.031565 
Rotational constants in MHz :          3751.674525          1004.554056           946.284442 

Dipole components along the rotational axes: 
x,y,z [a.u.] :     0.124768    -0.328854     0.587109 
x,y,z [Debye]:     0.317135    -0.835881     1.492311 

 

Dipole moment calculation done in   0.0 sec 

Maximum memory used throughout the entire PROP-calculation: 8.0 MB

--------------------------------
SUGGESTED CITATIONS FOR THIS RUN
--------------------------------

Below you find a list of papers that are relevant to this ORCA run
We neither can nor want to force you to cite these papers, but we appreciate if you do
You receive ORCA, which is the product of decades of hard work by many enthusiastic individuals, for free
The only thing we kindly ask in return is that you cite our papers,
We deeply appreciate it, if you show your appreciation for ORCA by not just citing the generic ORCA reference.

Please note that relegating all ORCA citations to the supporting information does *not* help us.
SI sections are not indexed - citations you put there will not count into any citation statistics
But we need these citations in order to attract the funding resources that allow us to do what we are doing

Therefore, if you are a happy ORCA user, please consider citing a few of the papers listed below in the main body of your paper

In addition to the list printed below, the program has created the file sp.bibtex that contains the list in bibtex format
You can import this file easily into all common literature databanks and citation aid programs


List of essential papers. We consider these as the minimum necessary citations

  1. Neese,F.
     Software update: the ORCA program system, version 5.0
     WIRES Comput. Molec. Sci., 2022 12(1)e1606
     doi.org/10.1002/wcms.1606

List of papers to cite with high priority. The work reported in these papers was absolutely
necessary for this run to complete.
Our perspective: the developers of density functionals and basis sets usually get cited in chemistry papers
Good! But without the algorithms to do something with them, the functionals or basis sets would not do anything.
Hence, in our opinion, the algorithm design and method developments papers are equally worthy of getting cited

  1. Neese,F.
     An improvement of the resolution of the identity approximation for the formation of the Coulomb matrix
     J. Comp. Chem., 2003 24(14)1740-1747
     doi.org/10.1002/jcc.10318
  2. Neese,F.
     The SHARK Integral Generation and Digestion System
     J. Comp. Chem., 2022  1-16
     doi.org/10.1002/jcc.26942
  3. Caldeweyher,E.; Bannwarth,C.; Grimme,S.
     Extension of the D3 dispersion coefficient model
     J. Chem. Phys., 2017 147 034112-XXXX
     doi.org/10.1063/1.4993215
  4. Caldeweyher,E.; Ehlert,S.; Hansen,A.; Neugebauer,H.; Spicher,S.; Bannwarth,C.; Grimme,S.
     A generally applicable atomic-charge dependent London dispersion correction
     J. Chem. Phys., 2019 150 154122-XXXX
     doi.org/10.1063/1.5090222
  5. Caldeweyher,E.; Mewes,J.; Ehlert,S.; Grimme,S.
     Extension and evaluation of the D4 London-dispersion model for periodic systems
     Phys. Chem. Chem. Phys., 2020 22(16)8499-8512
     doi.org/10.1039/D0CP00502A

List of suggested additional citations. These are papers that are important in the 'surrounding' of 
of this run, or papers that preceded the highly important papers. If you like your results we are grateful for a citation.

  1. Neese,F.
     The ORCA program system
     WIRES Comput. Molec. Sci., 2012 2(1)73-78
     doi.org/10.1002/wcms.81
  2. Neese,F.
     Software update: the ORCA program system, version 4.0
     WIRES Comput. Molec. Sci., 2018 8(1)1-6
     doi.org/10.1002/wcms.1327
  3. Neese,F.; Wennmohs,F.; Becker,U.; Riplinger,C.
     The ORCA quantum chemistry program package
     J. Chem. Phys., 2020 152 Art. No. L224108
     doi.org/10.1063/5.0004608

List of optional additional citations

  1. Neese,F.
     Approximate second-order SCF convergence for spin unrestricted wavefunctions
     Chem. Phys. Lett., 2000 325(1-3)93-98
     doi.org/10.1016/s0009-2614(00)00662-x

Timings for individual modules:

Sum of individual times          ...        9.948 sec (=   0.166 min)
Startup calculation              ...        0.812 sec (=   0.014 min)   8.2 %
SCF iterations                   ...        9.034 sec (=   0.151 min)  90.8 %
Property calculations            ...        0.101 sec (=   0.002 min)   1.0 %
                             ****ORCA TERMINATED NORMALLY****
TOTAL RUN TIME: 0 days 0 hours 0 minutes 10 seconds 652 msec
