 Entering Gaussian System
 *********************************************
 Gaussian 98:
 frequency output generated by the xtb code
 *********************************************
                         Standard orientation:
 --------------------------------------------------------------------
  Center     Atomic     Atomic              Coordinates (Angstroms)
  Number     Number      Type              X           Y           Z
 --------------------------------------------------------------------
    1          6             0       -2.817980    0.815853    0.698524
    2          6             0       -2.514541   -0.285088   -0.310658
    3          6             0       -1.200114   -0.997180    0.010655
    4          6             0       -0.006895   -0.104418   -0.217494
    5          8             0        0.094711    0.713177   -1.107550
    6          8             0        0.942522   -0.330490    0.684656
    7          6             0        2.177342    0.397553    0.577673
    8          6             0        3.144109   -0.296410   -0.369593
    9          1             0       -3.761438    1.299258    0.459837
   10          1             0       -2.882556    0.406927    1.704111
   11          1             0       -2.033550    1.570078    0.681291
   12          1             0       -2.441343    0.147475   -1.310136
   13          1             0       -3.323259   -1.016197   -0.309466
   14          1             0       -1.076585   -1.858164   -0.650312
   15          1             0       -1.176786   -1.348507    1.041897
   16          1             0        1.955830    1.410451    0.227629
   17          1             0        2.568541    0.424922    1.595029
   18          1             0        2.736320   -0.303934   -1.378044
   19          1             0        4.088132    0.238533   -0.375650
   20          1             0        3.312930   -1.320469   -0.047759
 --------------------------------------------------------------------
     1 basis functions        1 primitive gaussians
     1 alpha electrons        1 beta electrons
 
 Harmonic frequencies (cm**-1), IR intensities (km*mol⁻¹),
 Raman scattering activities (A**4/amu), Raman depolarization ratios,
 reduced masses (AMU), force constants (mDyne/A) and normal coordinates:
                      1                      2                      3
                        a                      a                      a 
 Frequencies --    11.6965                48.4023                81.9772
 Red. masses --    10.5448                 9.5724                 9.9543
 Frc consts  --     0.0000                 0.0000                 0.0000
 IR Inten    --     1.8547                 2.0716                 0.8510
 Raman Activ --     0.0000                 0.0000                 0.0000
 Depolar     --     0.0000                 0.0000                 0.0000
 Atom AN      X      Y      Z        X      Y      Z        X      Y      Z
   1   6    -0.26   0.05  -0.38    -0.23  -0.19   0.08    -0.33  -0.25   0.18
   2   6     0.02  -0.13  -0.11    -0.03  -0.07   0.01     0.08   0.14  -0.12
   3   6     0.03   0.06   0.26     0.05   0.08  -0.00     0.05   0.14   0.04
   4   6     0.02   0.07   0.22    -0.03   0.18  -0.03     0.10   0.06   0.03
   5   8    -0.09   0.24   0.38    -0.18   0.32   0.05     0.31  -0.20  -0.19
   6   8     0.17  -0.12   0.06     0.08   0.13  -0.17    -0.03   0.28   0.24
   7   6     0.16  -0.14  -0.03     0.10   0.06  -0.23     0.09   0.01   0.03
   8   6    -0.03  -0.02  -0.31     0.24  -0.42   0.26    -0.22  -0.13  -0.18
   9   1    -0.08  -0.03  -0.19    -0.08  -0.08   0.02    -0.07  -0.05  -0.01
  10   1    -0.11   0.07  -0.09    -0.07  -0.08   0.01    -0.22  -0.19  -0.00
  11   1    -0.10   0.04  -0.12    -0.09  -0.03   0.06    -0.09  -0.07   0.23
  12   1     0.04  -0.09  -0.05    -0.02   0.01   0.01     0.11   0.14   0.01
  13   1     0.03  -0.06  -0.03     0.02  -0.05  -0.03     0.04   0.02  -0.18
  14   1     0.06  -0.03   0.14     0.04   0.03   0.00     0.02   0.03   0.03
  15   1    -0.03   0.09   0.10     0.03   0.03   0.00    -0.01   0.06   0.02
  16   1     0.04  -0.02   0.05     0.05  -0.03  -0.21     0.07   0.02   0.04
  17   1     0.10  -0.10  -0.03    -0.02   0.15  -0.05     0.08  -0.04  -0.01
  18   1    -0.06   0.05  -0.07     0.12  -0.26   0.06    -0.12   0.01  -0.03
  19   1    -0.00  -0.02  -0.11     0.07  -0.13   0.05    -0.03  -0.10  -0.09
  20   1    -0.01  -0.02  -0.15     0.04  -0.08   0.23    -0.11  -0.05  -0.08
                      4                      5                      6
                        a                      a                      a 
 Frequencies --   116.3635               168.7629               207.0022
 Red. masses --     9.5574                 6.3561                 2.9912
 Frc consts  --     0.0000                 0.0000                 0.0000
 IR Inten    --     2.9375                 2.3950                 3.2660
 Raman Activ --     0.0000                 0.0000                 0.0000
 Depolar     --     0.0000                 0.0000                 0.0000
 Atom AN      X      Y      Z        X      Y      Z        X      Y      Z
   1   6    -0.30   0.05   0.09    -0.27   0.02   0.03    -0.15   0.03   0.02
   2   6    -0.02   0.24  -0.03    -0.19  -0.13   0.21    -0.08   0.05   0.01
   3   6    -0.15   0.10   0.20     0.02   0.16   0.02    -0.02   0.07  -0.10
   4   6     0.00  -0.16  -0.03     0.04   0.10  -0.15     0.06  -0.01   0.02
   5   8    -0.02  -0.22  -0.07     0.19  -0.00  -0.26     0.26  -0.02   0.04
   6   8     0.15  -0.33  -0.23    -0.01   0.00  -0.13     0.02  -0.12   0.08
   7   6     0.00  -0.03  -0.06     0.11  -0.16   0.17    -0.03  -0.04  -0.00
   8   6     0.35   0.26   0.08     0.13   0.03   0.05    -0.02   0.03  -0.04
   9   1    -0.03   0.07  -0.07    -0.20  -0.19   0.12    -0.18  -0.19   0.15
  10   1    -0.24  -0.05  -0.01     0.16   0.09   0.06     0.22   0.04   0.04
  11   1    -0.05  -0.02   0.18    -0.21   0.14  -0.20    -0.19   0.16  -0.18
  12   1     0.09   0.12   0.02    -0.17  -0.10   0.03    -0.06   0.01  -0.00
  13   1    -0.02   0.08  -0.12    -0.00  -0.10   0.17    -0.00  -0.01   0.03
  14   1    -0.08  -0.03   0.13    -0.00   0.03   0.02    -0.02   0.05  -0.06
  15   1    -0.07   0.10   0.08     0.06   0.06   0.01    -0.01  -0.02  -0.04
  16   1    -0.06  -0.02  -0.02     0.08  -0.00   0.14    -0.04  -0.02  -0.02
  17   1    -0.04   0.02  -0.00     0.00  -0.16   0.06     0.01   0.03  -0.01
  18   1     0.15   0.04   0.01     0.14   0.24  -0.03    -0.22  -0.36   0.08
  19   1     0.05   0.17   0.07     0.10  -0.10   0.21    -0.16   0.28  -0.35
  20   1     0.18   0.09   0.03    -0.12  -0.07  -0.15     0.36   0.14   0.21
                      7                      8                      9
                        a                      a                      a 
 Frequencies --   252.6260               299.2179               354.0382
 Red. masses --     4.6564                 8.9897                 9.9713
 Frc consts  --     0.0000                 0.0000                 0.0000
 IR Inten    --     0.9852                18.6967                 7.6876
 Raman Activ --     0.0000                 0.0000                 0.0000
 Depolar     --     0.0000                 0.0000                 0.0000
 Atom AN      X      Y      Z        X      Y      Z        X      Y      Z
   1   6     0.02  -0.02   0.02     0.18  -0.11   0.01    -0.11   0.10  -0.02
   2   6     0.14   0.22  -0.21     0.19   0.07  -0.16    -0.13   0.06   0.01
   3   6    -0.06  -0.07   0.01     0.04   0.02   0.22    -0.11  -0.15  -0.25
   4   6    -0.01  -0.14   0.15    -0.08   0.08  -0.10    -0.07  -0.03   0.18
   5   8    -0.10  -0.14   0.18    -0.46   0.01  -0.23    -0.29  -0.22   0.02
   6   8     0.08  -0.04   0.10    -0.08   0.15  -0.13     0.01   0.32   0.25
   7   6    -0.06   0.15  -0.18     0.13  -0.18   0.27     0.31  -0.09   0.02
   8   6    -0.00   0.00  -0.02     0.02  -0.02   0.04     0.34   0.01  -0.10
   9   1    -0.19  -0.26   0.24    -0.02  -0.11   0.12    -0.02   0.04  -0.04
  10   1     0.37  -0.02   0.02     0.20  -0.07  -0.00    -0.06   0.04  -0.00
  11   1    -0.20   0.20  -0.19    -0.02   0.04  -0.05    -0.02   0.02  -0.00
  12   1     0.14   0.14  -0.02     0.16   0.07  -0.02    -0.06   0.02   0.00
  13   1     0.01   0.10  -0.18     0.03   0.05  -0.15    -0.04   0.02   0.02
  14   1    -0.03  -0.01  -0.00     0.03  -0.08   0.18    -0.04   0.10  -0.27
  15   1    -0.08  -0.03  -0.00    -0.01   0.15   0.11    -0.06  -0.26  -0.15
  16   1    -0.07   0.00  -0.13     0.13   0.01   0.20     0.16   0.00   0.05
  17   1    -0.00   0.15  -0.06     0.01  -0.22   0.09     0.11  -0.10  -0.00
  18   1     0.13   0.15  -0.06    -0.10  -0.08   0.06     0.10   0.01  -0.03
  19   1     0.08  -0.14   0.17    -0.05   0.09  -0.11     0.06   0.06  -0.02
  20   1    -0.20  -0.05  -0.07     0.14   0.02   0.03     0.17   0.01  -0.06
                     10                     11                     12
                        a                      a                      a 
 Frequencies --   379.5191               482.0983               577.6791
 Red. masses --     9.0522                10.3544                10.4766
 Frc consts  --     0.0000                 0.0000                 0.0000
 IR Inten    --     1.5190                 4.4868                16.0477
 Raman Activ --     0.0000                 0.0000                 0.0000
 Depolar     --     0.0000                 0.0000                 0.0000
 Atom AN      X      Y      Z        X      Y      Z        X      Y      Z
   1   6    -0.26   0.23   0.00    -0.03   0.06   0.00    -0.05   0.05   0.04
   2   6     0.32   0.12   0.25     0.33   0.00   0.15    -0.11   0.02  -0.00
   3   6     0.25  -0.22  -0.10     0.19  -0.12   0.07    -0.17  -0.30  -0.03
   4   6     0.15  -0.15  -0.14    -0.10   0.07  -0.07     0.10  -0.44  -0.39
   5   8    -0.24   0.02  -0.03     0.10   0.13  -0.02     0.17   0.24   0.24
   6   8     0.15  -0.08  -0.16    -0.45   0.10   0.20    -0.09   0.30   0.02
   7   6     0.00   0.12   0.15    -0.28  -0.32  -0.21     0.12   0.08   0.00
   8   6    -0.23  -0.04   0.08     0.17   0.02  -0.09     0.07  -0.02  -0.03
   9   1    -0.10  -0.06  -0.16    -0.03  -0.08  -0.10    -0.02   0.01   0.02
  10   1    -0.16   0.14   0.02    -0.05   0.06   0.01    -0.00   0.02   0.01
  11   1    -0.16   0.15   0.04    -0.07   0.08   0.02    -0.02   0.01   0.00
  12   1     0.12   0.04   0.08     0.17   0.02   0.05    -0.01   0.02   0.01
  13   1     0.08   0.04   0.02     0.07   0.03  -0.03    -0.07   0.05  -0.02
  14   1    -0.03   0.02  -0.15     0.04  -0.03   0.00    -0.21  -0.27   0.21
  15   1     0.14  -0.18  -0.07     0.13  -0.03   0.02    -0.01   0.17   0.08
  16   1    -0.00   0.04   0.07    -0.07  -0.10  -0.10     0.10   0.05   0.05
  17   1    -0.01   0.00   0.05    -0.05  -0.04  -0.07     0.02  -0.06   0.01
  18   1    -0.14  -0.02   0.05     0.19   0.02  -0.08     0.01  -0.02  -0.01
  19   1    -0.03  -0.08  -0.06    -0.03   0.15   0.14     0.02  -0.01  -0.03
  20   1    -0.12  -0.01   0.05     0.17   0.01  -0.07     0.02  -0.00   0.01
                     13                     14                     15
                        a                      a                      a 
 Frequencies --   660.8202               798.7391               826.4780
 Red. masses --    10.4270                 4.1356                 3.8259
 Frc consts  --     0.0000                 0.0000                 0.0000
 IR Inten    --     9.3270                22.6256                13.5544
 Raman Activ --     0.0000                 0.0000                 0.0000
 Depolar     --     0.0000                 0.0000                 0.0000
 Atom AN      X      Y      Z        X      Y      Z        X      Y      Z
   1   6    -0.01  -0.00   0.02    -0.05  -0.02   0.02    -0.06  -0.07   0.00
   2   6    -0.01   0.08  -0.08    -0.19  -0.12   0.08    -0.17  -0.10   0.07
   3   6     0.20   0.32  -0.19    -0.05  -0.08   0.06     0.07   0.18   0.06
   4   6     0.35  -0.22  -0.19     0.10   0.07  -0.12     0.22  -0.12  -0.07
   5   8    -0.38   0.02  -0.04    -0.04   0.15  -0.17    -0.08   0.01   0.01
   6   8     0.03  -0.09   0.40     0.03  -0.10   0.17     0.08   0.01   0.10
   7   6    -0.07  -0.11   0.01     0.12  -0.07   0.18    -0.15   0.01  -0.16
   8   6    -0.00  -0.01  -0.02     0.05  -0.03   0.03    -0.09   0.04  -0.04
   9   1    -0.00   0.01   0.03     0.04   0.10   0.00     0.06   0.13   0.01
  10   1    -0.01  -0.07  -0.03     0.04   0.19   0.09     0.06   0.19   0.09
  11   1    -0.00  -0.00   0.07     0.09  -0.12  -0.21     0.12  -0.16  -0.25
  12   1    -0.24  -0.07  -0.07     0.21   0.18   0.13     0.15   0.18   0.12
  13   1     0.10  -0.09   0.20    -0.10   0.02  -0.34    -0.01  -0.06  -0.31
  14   1    -0.01  -0.03   0.09    -0.02   0.01  -0.02    -0.01   0.12  -0.08
  15   1     0.02   0.23  -0.00     0.08  -0.06   0.00     0.09  -0.06  -0.02
  16   1    -0.09  -0.08  -0.11    -0.05  -0.15  -0.29    -0.03   0.11   0.27
  17   1     0.04   0.13  -0.02    -0.04   0.36   0.06     0.11  -0.30  -0.09
  18   1     0.02   0.04  -0.02    -0.18   0.18   0.08     0.22  -0.19  -0.10
  19   1    -0.03   0.04   0.04    -0.00   0.02  -0.10    -0.02   0.00   0.14
  20   1     0.05  -0.01  -0.06     0.08  -0.07  -0.23    -0.08   0.08   0.25
                     16                     17                     18
                        a                      a                      a 
 Frequencies --   877.9613               905.0079               916.8403
 Red. masses --     7.7305                 8.4207                 7.7298
 Frc consts  --     0.0000                 0.0000                 0.0000
 IR Inten    --    20.0489                12.2257                 0.6660
 Raman Activ --     0.0000                 0.0000                 0.0000
 Depolar     --     0.0000                 0.0000                 0.0000
 Atom AN      X      Y      Z        X      Y      Z        X      Y      Z
   1   6     0.00  -0.09  -0.15    -0.08   0.13   0.17     0.10  -0.21   0.03
   2   6    -0.00   0.07   0.02    -0.09  -0.05  -0.11     0.18  -0.02   0.15
   3   6    -0.03   0.24   0.29     0.16  -0.17  -0.23    -0.02   0.37  -0.22
   4   6     0.13  -0.27  -0.08     0.05   0.08   0.20    -0.17  -0.18   0.04
   5   8     0.03  -0.04   0.19     0.01  -0.13   0.08     0.00  -0.19   0.24
   6   8     0.08   0.31  -0.24     0.29   0.25  -0.20    -0.21   0.05  -0.17
   7   6    -0.12  -0.17  -0.02    -0.17  -0.22  -0.07     0.06   0.09   0.02
   8   6    -0.11  -0.05   0.11    -0.22  -0.04   0.13     0.12  -0.02  -0.00
   9   1     0.00   0.04   0.09     0.01   0.07  -0.00     0.06  -0.13  -0.27
  10   1     0.07  -0.16  -0.09    -0.03   0.17   0.10    -0.07   0.27   0.13
  11   1     0.04  -0.07   0.01     0.01   0.00  -0.06     0.01  -0.04  -0.19
  12   1     0.05  -0.10  -0.04    -0.11   0.12   0.02    -0.08   0.21   0.12
  13   1     0.05  -0.04   0.05    -0.01  -0.03  -0.07     0.16  -0.12  -0.05
  14   1    -0.14   0.27  -0.22     0.21  -0.19   0.17     0.00   0.04   0.03
  15   1     0.05  -0.26  -0.04    -0.10   0.18   0.02    -0.07   0.19  -0.03
  16   1     0.11  -0.05  -0.14     0.11  -0.04  -0.08     0.07   0.02  -0.03
  17   1    -0.15   0.02   0.04    -0.07  -0.04  -0.01    -0.13   0.01   0.06
  18   1    -0.07   0.13   0.04     0.01   0.09   0.01    -0.10   0.05   0.05
  19   1    -0.12   0.15   0.07    -0.18   0.20   0.18     0.06  -0.06  -0.13
  20   1     0.13  -0.05  -0.17     0.13  -0.02  -0.10    -0.00  -0.03  -0.07
                     19                     20                     21
                        a                      a                      a 
 Frequencies --   962.5992              1050.1451              1070.8266
 Red. masses --     7.4994                 8.0947                 6.5952
 Frc consts  --     0.0000                 0.0000                 0.0000
 IR Inten    --     4.3202                18.2218                37.4393
 Raman Activ --     0.0000                 0.0000                 0.0000
 Depolar     --     0.0000                 0.0000                 0.0000
 Atom AN      X      Y      Z        X      Y      Z        X      Y      Z
   1   6     0.24  -0.26  -0.11     0.08  -0.02   0.05    -0.07  -0.14  -0.26
   2   6     0.09   0.06   0.20    -0.08  -0.01  -0.06    -0.03   0.19   0.26
   3   6    -0.38  -0.01  -0.02    -0.05  -0.07   0.10     0.09  -0.03  -0.23
   4   6     0.09   0.11  -0.02     0.26   0.02   0.02    -0.17   0.14   0.14
   5   8    -0.01   0.13  -0.16    -0.01   0.05  -0.05    -0.00  -0.09   0.03
   6   8     0.28   0.01   0.11     0.17   0.18  -0.01     0.23   0.07   0.01
   7   6     0.01  -0.11  -0.04    -0.52  -0.05   0.17    -0.24  -0.03   0.09
   8   6    -0.20   0.01   0.06     0.33  -0.06  -0.18     0.11  -0.05  -0.07
   9   1     0.01  -0.30  -0.32     0.00  -0.11  -0.12     0.00   0.08   0.11
  10   1    -0.11   0.06   0.01    -0.06   0.06   0.04     0.09  -0.17  -0.11
  11   1    -0.09   0.09   0.00    -0.05   0.07   0.02     0.08  -0.13  -0.06
  12   1    -0.02   0.06   0.07    -0.07   0.04  -0.00     0.07   0.02   0.06
  13   1    -0.07   0.12   0.08    -0.08   0.06   0.02    -0.01   0.06   0.01
  14   1    -0.24  -0.01  -0.01     0.12   0.03  -0.01    -0.42  -0.16   0.07
  15   1    -0.19   0.00  -0.00    -0.22  -0.10   0.00     0.38   0.21   0.01
  16   1     0.01  -0.03  -0.02    -0.17   0.01   0.10    -0.05   0.01   0.05
  17   1     0.14   0.01  -0.06    -0.25  -0.03   0.09    -0.07  -0.00   0.03
  18   1     0.09  -0.01  -0.04    -0.05  -0.06   0.00    -0.01  -0.02  -0.01
  19   1    -0.12   0.13   0.18     0.18  -0.19  -0.23     0.05  -0.05  -0.06
  20   1     0.05   0.02   0.03    -0.06  -0.04  -0.04     0.00  -0.02  -0.03
                     22                     23                     24
                        a                      a                      a 
 Frequencies --  1080.6473              1096.4050              1123.5501
 Red. masses --     4.2755                 7.5446                 9.5035
 Frc consts  --     0.0000                 0.0000                 0.0000
 IR Inten    --    13.6675                14.5238               126.5918
 Raman Activ --     0.0000                 0.0000                 0.0000
 Depolar     --     0.0000                 0.0000                 0.0000
 Atom AN      X      Y      Z        X      Y      Z        X      Y      Z
   1   6    -0.24  -0.03   0.05    -0.03  -0.03  -0.02    -0.01  -0.26  -0.21
   2   6     0.35   0.08  -0.04     0.03   0.04   0.01    -0.20   0.41   0.11
   3   6    -0.14  -0.15   0.05    -0.01  -0.05  -0.00     0.26  -0.23   0.14
   4   6     0.05   0.10   0.05     0.02   0.02   0.01     0.29   0.06   0.12
   5   8     0.03   0.09  -0.11    -0.00   0.02  -0.02    -0.01   0.01  -0.02
   6   8    -0.00  -0.01  -0.01     0.04   0.10   0.06    -0.31  -0.10  -0.09
   7   6    -0.04   0.03   0.08     0.09  -0.44  -0.34     0.12   0.11  -0.09
   8   6     0.01  -0.04  -0.07     0.01   0.40   0.29    -0.02  -0.02   0.03
   9   1     0.04   0.25   0.15     0.01   0.03   0.02     0.02  -0.02  -0.05
  10   1     0.10   0.10   0.07     0.02   0.01   0.00     0.02  -0.03  -0.04
  11   1     0.14  -0.21  -0.20     0.02  -0.04  -0.03     0.05  -0.12  -0.14
  12   1    -0.15  -0.02  -0.04    -0.03   0.01   0.00    -0.26   0.22   0.07
  13   1     0.36  -0.28   0.09     0.04  -0.02   0.02    -0.09   0.15   0.14
  14   1    -0.28  -0.05  -0.01    -0.06  -0.02   0.01     0.13  -0.05   0.04
  15   1    -0.39  -0.08   0.01    -0.04  -0.01   0.00    -0.08  -0.08   0.04
  16   1    -0.04  -0.00   0.00    -0.02  -0.12  -0.07     0.07   0.03  -0.01
  17   1     0.03   0.04   0.01    -0.02  -0.09  -0.08    -0.07  -0.06   0.01
  18   1     0.05  -0.03  -0.04    -0.28   0.04   0.19    -0.01   0.04   0.01
  19   1    -0.01   0.01   0.03     0.16  -0.20  -0.22    -0.03   0.03   0.01
  20   1     0.02  -0.00   0.00    -0.32   0.08   0.17     0.04  -0.01  -0.03
                     25                     26                     27
                        a                      a                      a 
 Frequencies --  1139.5796              1167.0880              1188.1322
 Red. masses --     7.6609                 8.1703                 5.6870
 Frc consts  --     0.0000                 0.0000                 0.0000
 IR Inten    --   204.2826               181.5186                38.3418
 Raman Activ --     0.0000                 0.0000                 0.0000
 Depolar     --     0.0000                 0.0000                 0.0000
 Atom AN      X      Y      Z        X      Y      Z        X      Y      Z
   1   6    -0.01   0.12  -0.02    -0.01   0.06  -0.10    -0.11   0.00  -0.25
   2   6     0.07  -0.24   0.13     0.01  -0.12   0.20     0.14   0.02   0.37
   3   6    -0.16   0.06  -0.17    -0.06   0.06  -0.15    -0.15   0.04  -0.12
   4   6     0.43   0.12   0.20     0.31   0.02   0.15    -0.19  -0.12  -0.19
   5   8    -0.06  -0.00  -0.04    -0.02  -0.09   0.10     0.01   0.05  -0.02
   6   8    -0.19  -0.12   0.02    -0.23   0.14  -0.29     0.16   0.00   0.12
   7   6    -0.02   0.19  -0.26     0.15  -0.19   0.27    -0.07   0.02  -0.04
   8   6     0.05  -0.08   0.14    -0.09   0.14  -0.21     0.02  -0.04   0.05
   9   1    -0.03   0.02   0.09    -0.03   0.02   0.08    -0.03   0.10   0.17
  10   1     0.02  -0.10  -0.05     0.03  -0.13  -0.08     0.11  -0.20  -0.13
  11   1    -0.01   0.04   0.10     0.01   0.01   0.07     0.07  -0.10   0.02
  12   1     0.23  -0.12   0.02     0.15  -0.02   0.06     0.07   0.09   0.13
  13   1    -0.06   0.02  -0.09    -0.07   0.05  -0.06    -0.01   0.06   0.01
  14   1    -0.17  -0.06   0.03     0.03  -0.03   0.03     0.57   0.03   0.04
  15   1    -0.13   0.09  -0.02    -0.16   0.08  -0.01    -0.29   0.04  -0.02
  16   1     0.18   0.13   0.06    -0.16  -0.16  -0.15     0.01   0.03   0.05
  17   1    -0.22  -0.23   0.02     0.03   0.23   0.06     0.05  -0.03  -0.03
  18   1    -0.13   0.13   0.09     0.17  -0.18  -0.12    -0.04   0.04   0.03
  19   1    -0.02   0.04  -0.07     0.04  -0.06   0.09    -0.01   0.01  -0.02
  20   1     0.08  -0.07  -0.16    -0.12   0.10   0.23     0.03  -0.03  -0.06
                     28                     29                     30
                        a                      a                      a 
 Frequencies --  1248.3234              1252.9839              1307.6567
 Red. masses --     3.2520                 3.1037                 3.8569
 Frc consts  --     0.0000                 0.0000                 0.0000
 IR Inten    --     4.5409                28.7334                28.2301
 Raman Activ --     0.0000                 0.0000                 0.0000
 Depolar     --     0.0000                 0.0000                 0.0000
 Atom AN      X      Y      Z        X      Y      Z        X      Y      Z
   1   6    -0.17  -0.19   0.14    -0.08  -0.10   0.08     0.03   0.03   0.00
   2   6     0.16   0.14  -0.07     0.06   0.05  -0.03     0.00   0.11  -0.00
   3   6    -0.17   0.02  -0.07    -0.05   0.03  -0.06    -0.35  -0.10   0.00
   4   6     0.03  -0.01  -0.01     0.11  -0.00   0.05     0.11   0.01   0.05
   5   8    -0.02   0.00  -0.01    -0.01  -0.05   0.06    -0.01   0.01  -0.02
   6   8     0.05  -0.03   0.08    -0.11   0.11  -0.18     0.03   0.08   0.02
   7   6     0.04  -0.02   0.01    -0.05   0.02  -0.02     0.25  -0.01  -0.12
   8   6    -0.05   0.06  -0.10     0.08  -0.11   0.17    -0.03  -0.10  -0.03
   9   1     0.05   0.09  -0.04     0.03   0.05  -0.02    -0.00  -0.03  -0.04
  10   1     0.03   0.19   0.13     0.01   0.10   0.07    -0.00  -0.04  -0.02
  11   1     0.06  -0.16  -0.22     0.03  -0.08  -0.11     0.00   0.01   0.00
  12   1     0.21  -0.35  -0.17     0.14  -0.21  -0.10    -0.07   0.04   0.00
  13   1    -0.20   0.31   0.24    -0.14   0.19   0.12     0.23  -0.23  -0.04
  14   1     0.20   0.02  -0.00     0.05   0.01  -0.00     0.22   0.00   0.02
  15   1     0.15   0.06  -0.01     0.04   0.05  -0.00     0.36   0.02   0.01
  16   1     0.22   0.00  -0.10    -0.46  -0.02   0.19    -0.49  -0.05   0.18
  17   1    -0.31  -0.01   0.13     0.52   0.02  -0.21    -0.35  -0.05   0.13
  18   1     0.07  -0.07  -0.05    -0.11   0.12   0.09    -0.03   0.06   0.00
  19   1     0.00  -0.01   0.04    -0.01   0.03  -0.07    -0.07   0.08   0.08
  20   1    -0.05   0.05   0.10     0.08  -0.08  -0.16     0.02  -0.00   0.03
                     31                     32                     33
                        a                      a                      a 
 Frequencies --  1319.9719              1339.3078              1394.1746
 Red. masses --     4.5770                 4.8976                 3.1174
 Frc consts  --     0.0000                 0.0000                 0.0000
 IR Inten    --    44.8401                16.3246                 5.7859
 Raman Activ --     0.0000                 0.0000                 0.0000
 Depolar     --     0.0000                 0.0000                 0.0000
 Atom AN      X      Y      Z        X      Y      Z        X      Y      Z
   1   6     0.04   0.02   0.02     0.11  -0.03   0.08     0.00   0.00   0.00
   2   6    -0.05   0.16   0.02    -0.36   0.33   0.16    -0.00  -0.00   0.00
   3   6    -0.35  -0.11  -0.01     0.22  -0.02  -0.08     0.02   0.00  -0.00
   4   6     0.21   0.03   0.08    -0.10  -0.02  -0.03    -0.03  -0.00  -0.01
   5   8    -0.02  -0.01   0.01     0.01   0.02  -0.01     0.00   0.00  -0.00
   6   8    -0.08  -0.05  -0.07     0.02  -0.00   0.02     0.03   0.02   0.02
   7   6    -0.25   0.01   0.11     0.04  -0.00  -0.02     0.07   0.03   0.00
   8   6     0.03   0.09   0.04    -0.00  -0.01  -0.01    -0.31   0.17   0.24
   9   1     0.00  -0.05  -0.06     0.00  -0.14  -0.15    -0.00  -0.00  -0.00
  10   1    -0.01  -0.05  -0.02    -0.06  -0.05  -0.01    -0.00  -0.00  -0.00
  11   1     0.01   0.01  -0.03     0.00   0.00  -0.09     0.00  -0.00  -0.00
  12   1     0.00  -0.04  -0.03     0.40  -0.41  -0.14     0.00  -0.00  -0.00
  13   1     0.26  -0.26  -0.05     0.23  -0.27  -0.13    -0.00   0.00  -0.00
  14   1     0.25  -0.01   0.03     0.02  -0.06   0.05    -0.01  -0.00   0.00
  15   1     0.35   0.02   0.01    -0.29  -0.01  -0.02    -0.01  -0.00  -0.00
  16   1     0.40   0.03  -0.17    -0.05  -0.00   0.03    -0.15  -0.07  -0.10
  17   1     0.34   0.02  -0.13    -0.05   0.00   0.02    -0.08  -0.16   0.04
  18   1     0.03  -0.06  -0.00    -0.01   0.01   0.00     0.42  -0.19  -0.15
  19   1     0.07  -0.08  -0.09    -0.01   0.02   0.02     0.17  -0.36  -0.30
  20   1    -0.01  -0.00  -0.05    -0.00   0.00   0.01     0.37  -0.03  -0.34
                     34                     35                     36
                        a                      a                      a 
 Frequencies --  1411.4039              1425.6934              1430.6323
 Red. masses --     3.1607                 1.9927                 2.0139
 Frc consts  --     0.0000                 0.0000                 0.0000
 IR Inten    --     2.3782                11.3932                 3.7174
 Raman Activ --     0.0000                 0.0000                 0.0000
 Depolar     --     0.0000                 0.0000                 0.0000
 Atom AN      X      Y      Z        X      Y      Z        X      Y      Z
   1   6     0.11  -0.31  -0.27    -0.00   0.07   0.06    -0.00   0.00   0.00
   2   6    -0.08   0.07   0.02     0.01  -0.01   0.01     0.00  -0.00   0.00
   3   6    -0.01  -0.07  -0.00     0.03  -0.27   0.08     0.01   0.01  -0.00
   4   6     0.01  -0.00  -0.00     0.01  -0.00  -0.01    -0.03  -0.03   0.01
   5   8    -0.00  -0.00   0.00    -0.00  -0.00   0.01     0.00   0.02  -0.03
   6   8    -0.00  -0.00   0.00     0.00  -0.01   0.01     0.04   0.02   0.02
   7   6    -0.00   0.00   0.00    -0.00   0.00  -0.00    -0.00   0.21   0.17
   8   6    -0.00   0.00  -0.00    -0.00  -0.00   0.00     0.08  -0.02  -0.06
   9   1     0.06   0.27   0.39    -0.03  -0.07  -0.05    -0.00  -0.00  -0.00
  10   1    -0.13   0.46   0.16    -0.02  -0.10  -0.04     0.01  -0.00   0.00
  11   1    -0.26   0.26   0.34     0.05  -0.05  -0.09     0.00  -0.00   0.00
  12   1     0.12  -0.02   0.00    -0.05  -0.03  -0.01     0.00  -0.00   0.00
  13   1     0.08  -0.09   0.05    -0.01   0.00  -0.06    -0.01   0.01   0.00
  14   1     0.04   0.07  -0.10    -0.02   0.38  -0.52    -0.00  -0.00   0.00
  15   1    -0.01   0.13   0.05    -0.08   0.63   0.23    -0.01  -0.00  -0.00
  16   1     0.00  -0.00  -0.01     0.00  -0.00  -0.00    -0.21  -0.24  -0.59
  17   1    -0.00  -0.01   0.00    -0.00  -0.01   0.00     0.08  -0.64   0.00
  18   1     0.00   0.00  -0.00     0.01   0.00  -0.00    -0.10   0.04   0.04
  19   1     0.00  -0.00  -0.00    -0.00   0.00  -0.01    -0.03   0.08   0.07
  20   1     0.00   0.00   0.00    -0.00  -0.00  -0.00    -0.10   0.01   0.08
                     37                     38                     39
                        a                      a                      a 
 Frequencies --  1471.1393              1474.1266              1485.2965
 Red. masses --     1.5126                 1.9321                 1.5725
 Frc consts  --     0.0000                 0.0000                 0.0000
 IR Inten    --     5.8585                 1.0196                 2.1906
 Raman Activ --     0.0000                 0.0000                 0.0000
 Depolar     --     0.0000                 0.0000                 0.0000
 Atom AN      X      Y      Z        X      Y      Z        X      Y      Z
   1   6     0.00  -0.00  -0.00     0.01  -0.05  -0.03    -0.00  -0.00  -0.00
   2   6     0.01   0.00   0.01     0.15   0.09   0.22     0.00   0.00   0.00
   3   6     0.00  -0.00   0.00     0.00   0.02   0.01     0.00   0.00   0.00
   4   6     0.00  -0.00   0.00     0.00   0.01  -0.02     0.00   0.00  -0.00
   5   8     0.00   0.00  -0.00    -0.00  -0.01   0.02     0.00  -0.00   0.00
   6   8    -0.00  -0.00   0.00    -0.00   0.00   0.00    -0.00  -0.00   0.00
   7   6    -0.03   0.02  -0.03     0.00  -0.00   0.00     0.05   0.03  -0.01
   8   6    -0.08   0.07  -0.18     0.00  -0.01   0.01     0.11   0.19   0.03
   9   1     0.00   0.00   0.00     0.02   0.03   0.02     0.00   0.00   0.00
  10   1     0.00   0.00   0.00     0.03   0.07   0.03     0.00   0.00   0.00
  11   1    -0.00   0.00   0.00    -0.03   0.03   0.08    -0.00   0.00   0.00
  12   1    -0.03  -0.02  -0.01    -0.51  -0.40  -0.20    -0.01  -0.01  -0.00
  13   1    -0.01   0.01  -0.04    -0.10   0.13  -0.64    -0.00   0.00  -0.01
  14   1     0.00   0.00  -0.00     0.01  -0.01   0.03     0.00   0.00  -0.00
  15   1    -0.00   0.01   0.00     0.01  -0.04  -0.01    -0.00   0.00   0.00
  16   1    -0.00   0.01   0.01    -0.00  -0.00  -0.00    -0.04   0.01   0.02
  17   1     0.03  -0.02  -0.02    -0.00   0.00   0.00    -0.03   0.01   0.01
  18   1    -0.41  -0.01   0.15     0.02   0.01  -0.01    -0.19  -0.67   0.09
  19   1     0.24  -0.43   0.49    -0.01   0.02  -0.03    -0.04   0.11   0.31
  20   1     0.51   0.13   0.10    -0.02  -0.00   0.00    -0.24  -0.19  -0.51
                     40                     41                     42
                        a                      a                      a 
 Frequencies --  1496.1237              1502.6688              1702.3583
 Red. masses --     1.5504                 1.5532                13.3117
 Frc consts  --     0.0000                 0.0000                 0.0000
 IR Inten    --     2.6811                 0.6959               627.4160
 Raman Activ --     0.0000                 0.0000                 0.0000
 Depolar     --     0.0000                 0.0000                 0.0000
 Atom AN      X      Y      Z        X      Y      Z        X      Y      Z
   1   6    -0.20  -0.07   0.01    -0.06   0.13  -0.16     0.00   0.00   0.00
   2   6    -0.07  -0.01  -0.00    -0.03   0.04  -0.03    -0.00   0.01  -0.01
   3   6     0.02  -0.02   0.01     0.00  -0.01   0.00    -0.04  -0.05   0.04
   4   6     0.00   0.00  -0.00     0.00   0.00   0.00     0.11   0.55  -0.57
   5   8    -0.00  -0.00   0.00    -0.00  -0.00   0.00    -0.06  -0.40   0.43
   6   8    -0.00  -0.00  -0.00    -0.00  -0.00  -0.00     0.02  -0.03   0.05
   7   6    -0.00  -0.00  -0.00    -0.00  -0.00  -0.00     0.01   0.02  -0.01
   8   6    -0.00   0.00   0.00     0.00   0.00   0.00    -0.00  -0.01  -0.00
   9   1     0.22   0.21  -0.48    -0.27  -0.47   0.09    -0.00  -0.00  -0.00
  10   1     0.69   0.02   0.05     0.14   0.34   0.13    -0.01  -0.00  -0.00
  11   1    -0.09   0.09   0.36     0.39  -0.39   0.43     0.00  -0.00  -0.01
  12   1     0.04   0.02   0.01     0.02  -0.02  -0.02     0.01   0.01   0.00
  13   1     0.02  -0.04   0.01     0.01  -0.01   0.02     0.02  -0.02   0.02
  14   1    -0.01   0.02  -0.03    -0.00   0.00  -0.00    -0.01  -0.00   0.00
  15   1    -0.02   0.04   0.02     0.01   0.00   0.00    -0.05  -0.04  -0.01
  16   1     0.00   0.00   0.00    -0.00   0.00   0.00    -0.01  -0.00  -0.02
  17   1    -0.00   0.00   0.00     0.00   0.00  -0.00    -0.02  -0.04   0.00
  18   1     0.00   0.00  -0.00     0.00  -0.00  -0.00    -0.01   0.01   0.00
  19   1     0.00  -0.00  -0.00     0.00  -0.00  -0.00    -0.00   0.00   0.01
  20   1     0.00   0.00   0.00     0.00  -0.00  -0.00     0.00   0.00   0.00
                     43                     44                     45
                        a                      a                      a 
 Frequencies --  2945.6584              2967.5398              2984.9153
 Red. masses --     1.7198                 1.7768                 1.9377
 Frc consts  --     0.0000                 0.0000                 0.0000
 IR Inten    --    31.3824                 8.7748                28.9039
 Raman Activ --     0.0000                 0.0000                 0.0000
 Depolar     --     0.0000                 0.0000                 0.0000
 Atom AN      X      Y      Z        X      Y      Z        X      Y      Z
   1   6     0.00   0.00  -0.00     0.00   0.00   0.00     0.02   0.03  -0.02
   2   6     0.00  -0.00   0.00     0.02   0.00   0.01    -0.12  -0.18   0.19
   3   6     0.00  -0.00  -0.00     0.03  -0.19  -0.18    -0.00   0.01  -0.04
   4   6    -0.00   0.00  -0.00    -0.00  -0.01  -0.00     0.00   0.00  -0.00
   5   8    -0.00  -0.00   0.00     0.00   0.00  -0.00    -0.00   0.00  -0.00
   6   8     0.01   0.01  -0.00     0.00  -0.00   0.00     0.00  -0.00   0.00
   7   6    -0.06   0.23  -0.08     0.00  -0.00   0.00    -0.00  -0.00  -0.00
   8   6    -0.00  -0.01   0.01     0.00   0.00   0.00    -0.00  -0.00  -0.00
   9   1    -0.00   0.00  -0.00    -0.00   0.00  -0.00     0.01   0.00  -0.00
  10   1    -0.00  -0.00   0.00     0.00   0.00  -0.01    -0.00  -0.03   0.09
  11   1    -0.00  -0.00   0.00    -0.01  -0.00   0.00    -0.07  -0.07  -0.00
  12   1     0.00   0.00  -0.00     0.01   0.02  -0.05     0.04   0.31  -0.72
  13   1    -0.00  -0.00   0.00    -0.06  -0.05   0.00     0.37   0.33   0.02
  14   1    -0.00   0.01   0.01    -0.09   0.75   0.58     0.00  -0.01  -0.02
  15   1    -0.00   0.00  -0.00     0.00  -0.05   0.06     0.00  -0.06   0.17
  16   1     0.19  -0.89   0.32    -0.00   0.01  -0.00    -0.00   0.00  -0.00
  17   1    -0.01   0.03  -0.02    -0.00  -0.00  -0.01     0.00   0.00   0.01
  18   1    -0.01  -0.00  -0.01    -0.00   0.00  -0.00     0.00  -0.00   0.00
  19   1     0.01   0.00   0.00    -0.00  -0.00   0.00     0.00   0.00   0.00
  20   1    -0.01   0.05  -0.02     0.00  -0.00   0.00    -0.00   0.00  -0.00
                     46                     47                     48
                        a                      a                      a 
 Frequencies --  2991.5860              2997.3994              3007.5302
 Red. masses --     1.7397                 1.5103                 1.7198
 Frc consts  --     0.0000                 0.0000                 0.0000
 IR Inten    --    16.0603                41.9419                27.6939
 Raman Activ --     0.0000                 0.0000                 0.0000
 Depolar     --     0.0000                 0.0000                 0.0000
 Atom AN      X      Y      Z        X      Y      Z        X      Y      Z
   1   6     0.00  -0.00   0.00     0.03   0.00   0.01     0.01  -0.01   0.02
   2   6     0.00   0.00  -0.00    -0.15  -0.09  -0.12     0.01   0.03  -0.05
   3   6     0.00  -0.00  -0.00    -0.00  -0.03   0.00    -0.01   0.10  -0.23
   4   6     0.00  -0.00  -0.00     0.00   0.00  -0.00     0.00   0.00  -0.01
   5   8     0.00  -0.00   0.00     0.00  -0.00   0.00     0.00  -0.00   0.00
   6   8    -0.01  -0.00  -0.00    -0.00  -0.00  -0.00     0.00   0.00   0.00
   7   6    -0.09   0.00  -0.24     0.00   0.00   0.00    -0.00   0.00  -0.00
   8   6     0.02  -0.00   0.03     0.00   0.00   0.00    -0.00  -0.00  -0.00
   9   1    -0.00   0.00  -0.00    -0.06   0.03  -0.02    -0.03   0.01  -0.01
  10   1     0.00   0.00  -0.00     0.01   0.01  -0.02     0.00   0.03  -0.06
  11   1     0.00   0.00  -0.00    -0.07  -0.07   0.00     0.00   0.00   0.00
  12   1    -0.00  -0.00   0.01    -0.06  -0.22   0.46    -0.02  -0.07   0.17
  13   1     0.00   0.00  -0.00     0.60   0.55  -0.03    -0.02  -0.01  -0.01
  14   1    -0.00   0.01   0.01    -0.01   0.08   0.06     0.01  -0.05  -0.08
  15   1    -0.00  -0.00  -0.00    -0.00   0.02  -0.07     0.01  -0.29   0.90
  16   1    -0.01  -0.00  -0.03     0.00  -0.00   0.00     0.00  -0.00   0.00
  17   1     0.35   0.01   0.89    -0.00  -0.00  -0.01    -0.00  -0.00  -0.00
  18   1    -0.05  -0.00  -0.11    -0.00   0.00  -0.00     0.00  -0.00   0.01
  19   1    -0.02  -0.01   0.00    -0.00  -0.00   0.00     0.00   0.00  -0.00
  20   1    -0.00   0.02  -0.00     0.00  -0.00   0.00    -0.00   0.00  -0.00
                     49                     50                     51
                        a                      a                      a 
 Frequencies --  3024.4749              3033.2103              3039.1215
 Red. masses --     1.9026                 1.7528                 1.7994
 Frc consts  --     0.0000                 0.0000                 0.0000
 IR Inten    --    91.8073                68.5297                37.7300
 Raman Activ --     0.0000                 0.0000                 0.0000
 Depolar     --     0.0000                 0.0000                 0.0000
 Atom AN      X      Y      Z        X      Y      Z        X      Y      Z
   1   6     0.20   0.18  -0.07    -0.10   0.07  -0.23    -0.00   0.00  -0.00
   2   6     0.04   0.04  -0.02    -0.01   0.01  -0.03    -0.00   0.00  -0.00
   3   6    -0.00   0.00   0.00    -0.00   0.00  -0.01    -0.00   0.00  -0.00
   4   6    -0.00   0.00   0.00     0.00   0.00  -0.00    -0.00   0.00   0.00
   5   8     0.00  -0.00  -0.00     0.00  -0.00   0.00     0.00   0.00  -0.00
   6   8     0.00   0.00  -0.00     0.00  -0.00   0.00     0.00  -0.00   0.00
   7   6     0.00  -0.00  -0.00    -0.00  -0.00  -0.00     0.01  -0.01   0.04
   8   6     0.00   0.00   0.00    -0.00  -0.00  -0.00     0.11  -0.03   0.24
   9   1    -0.09   0.08  -0.04     0.23  -0.11   0.03     0.01  -0.00   0.00
  10   1     0.01  -0.10   0.28    -0.07  -0.35   0.81    -0.00  -0.00   0.01
  11   1    -0.65  -0.61   0.02     0.18   0.20  -0.04     0.00   0.00  -0.00
  12   1    -0.00  -0.02   0.05    -0.01  -0.04   0.09    -0.00  -0.00   0.00
  13   1    -0.11  -0.10   0.00     0.02   0.02  -0.00     0.00   0.00  -0.00
  14   1     0.00  -0.01  -0.01    -0.00   0.01   0.01     0.00  -0.00  -0.00
  15   1     0.00  -0.00   0.00     0.00  -0.02   0.05     0.00  -0.00   0.01
  16   1    -0.00   0.00  -0.00    -0.00   0.00  -0.00    -0.00   0.02  -0.00
  17   1     0.00   0.00   0.00     0.00  -0.00   0.00    -0.05  -0.00  -0.11
  18   1    -0.00   0.00  -0.00     0.01  -0.00   0.01    -0.36  -0.00  -0.87
  19   1    -0.00  -0.00   0.00     0.00   0.00  -0.00    -0.00  -0.01   0.03
  20   1     0.00  -0.00   0.00    -0.00   0.00  -0.00    -0.00   0.12  -0.01
                     52                     53                     54
                        a                      a                      a 
 Frequencies --  3045.7230              3049.5210              3062.7338
 Red. masses --     1.4960                 1.6267                 1.7472
 Frc consts  --     0.0000                 0.0000                 0.0000
 IR Inten    --    43.7517                26.3700                23.2313
 Raman Activ --     0.0000                 0.0000                 0.0000
 Depolar     --     0.0000                 0.0000                 0.0000
 Atom AN      X      Y      Z        X      Y      Z        X      Y      Z
   1   6    -0.17   0.12  -0.00     0.00   0.00   0.00    -0.00   0.00  -0.00
   2   6    -0.01   0.00  -0.01    -0.00   0.00  -0.00    -0.00  -0.00  -0.00
   3   6     0.00   0.00  -0.00     0.00  -0.00   0.00     0.00   0.00  -0.00
   4   6     0.00   0.00  -0.00     0.00  -0.00  -0.00    -0.00   0.00  -0.00
   5   8     0.00  -0.00   0.00    -0.00   0.00  -0.00    -0.00  -0.00   0.00
   6   8    -0.00  -0.00  -0.00    -0.00  -0.00   0.00     0.00  -0.00  -0.00
   7   6    -0.00   0.00  -0.00     0.01  -0.02   0.01     0.01   0.01   0.00
   8   6    -0.00   0.00  -0.00     0.04  -0.23   0.05     0.22   0.14  -0.01
   9   1     0.80  -0.40   0.22     0.01  -0.00   0.00     0.00  -0.00   0.00
  10   1    -0.01   0.10  -0.21     0.00   0.00  -0.01    -0.00   0.00  -0.00
  11   1    -0.18  -0.13   0.00    -0.01  -0.01   0.00     0.00   0.00  -0.00
  12   1    -0.00  -0.01   0.03    -0.00  -0.00   0.00    -0.00  -0.00   0.00
  13   1     0.02   0.02  -0.00     0.00   0.00  -0.00     0.00   0.00  -0.00
  14   1    -0.00   0.00   0.00    -0.00   0.00   0.00     0.00  -0.00  -0.00
  15   1     0.00  -0.00   0.01     0.00   0.00  -0.00    -0.00  -0.00   0.00
  16   1     0.00  -0.00   0.00    -0.01   0.05  -0.02     0.00  -0.01   0.01
  17   1     0.00   0.00   0.00    -0.00  -0.00  -0.01    -0.01   0.00  -0.02
  18   1     0.00   0.00   0.00     0.05  -0.03   0.13     0.03   0.02   0.01
  19   1     0.00   0.00  -0.00    -0.05  -0.06   0.01    -0.84  -0.48  -0.00
  20   1     0.00  -0.01   0.00    -0.14   0.90  -0.30     0.04  -0.04   0.02
