 Entering Gaussian System
 *********************************************
 Gaussian 98:
 frequency output generated by the xtb code
 *********************************************
                         Standard orientation:
 --------------------------------------------------------------------
  Center     Atomic     Atomic              Coordinates (Angstroms)
  Number     Number      Type              X           Y           Z
 --------------------------------------------------------------------
    1          6             0       -2.776007   -1.148774   -0.094395
    2          6             0       -2.523703    0.353205   -0.040003
    3          6             0       -1.224834    0.679570    0.698367
    4          6             0       -0.011951    0.238917   -0.081105
    5          8             0        0.106381    0.306503   -1.286343
    6          8             0        0.932903   -0.234122    0.724772
    7          6             0        2.182859   -0.647477    0.147688
    8          6             0        3.135224    0.529187   -0.000579
    9          1             0       -3.708997   -1.357963   -0.610666
   10          1             0       -1.970088   -1.647780   -0.629225
   11          1             0       -2.834170   -1.564213    0.908901
   12          1             0       -3.353298    0.845966    0.467431
   13          1             0       -2.456079    0.748268   -1.055287
   14          1             0       -1.194263    0.209343    1.680856
   15          1             0       -1.137608    1.760658    0.828396
   16          1             0        2.574001   -1.390104    0.843620
   17          1             0        1.982959   -1.105955   -0.825658
   18          1             0        2.727915    1.251376   -0.704756
   19          1             0        3.282121    1.014910    0.960288
   20          1             0        4.090379    0.174151   -0.373417
 --------------------------------------------------------------------
     1 basis functions        1 primitive gaussians
     1 alpha electrons        1 beta electrons
 
 Harmonic frequencies (cm**-1), IR intensities (km*mol⁻¹),
 Raman scattering activities (A**4/amu), Raman depolarization ratios,
 reduced masses (AMU), force constants (mDyne/A) and normal coordinates:
                      1                      2                      3
                        a                      a                      a 
 Frequencies --    10.4567                48.3842                81.8029
 Red. masses --    10.5233                 9.5701                 9.9933
 Frc consts  --     0.0000                 0.0000                 0.0000
 IR Inten    --     1.9195                 2.0847                 0.8612
 Raman Activ --     0.0000                 0.0000                 0.0000
 Depolar     --     0.0000                 0.0000                 0.0000
 Atom AN      X      Y      Z        X      Y      Z        X      Y      Z
   1   6    -0.27   0.23  -0.31     0.23  -0.07  -0.19     0.33  -0.04  -0.30
   2   6     0.02   0.17   0.01     0.04  -0.04  -0.05    -0.08   0.01   0.18
   3   6     0.04  -0.23   0.14    -0.05   0.06   0.06    -0.05   0.12   0.07
   4   6     0.02  -0.21   0.10     0.03   0.11   0.15    -0.10   0.06   0.03
   5   8    -0.08  -0.44   0.10     0.18   0.26   0.19    -0.30  -0.28  -0.01
   6   8     0.16   0.04   0.13    -0.09  -0.03   0.21     0.03   0.37   0.03
   7   6     0.16   0.12   0.08    -0.10  -0.13   0.21    -0.09   0.03  -0.01
   8   6    -0.03   0.24  -0.21    -0.23  -0.11  -0.49     0.22  -0.22   0.03
   9   1    -0.08   0.15  -0.11     0.08  -0.04  -0.07     0.07  -0.03  -0.03
  10   1    -0.10   0.05  -0.11     0.09   0.02  -0.06     0.09   0.11  -0.21
  11   1    -0.12   0.01  -0.11     0.07  -0.05  -0.07     0.22  -0.13  -0.13
  12   1     0.02   0.06   0.02    -0.02  -0.05  -0.02    -0.04  -0.11   0.15
  13   1     0.04   0.10   0.03     0.02   0.01  -0.01    -0.11   0.11   0.09
  14   1    -0.02  -0.13   0.01    -0.03   0.02   0.02     0.01   0.05   0.03
  15   1     0.06  -0.08   0.12    -0.04   0.02   0.01    -0.03   0.04  -0.00
  16   1     0.09   0.09   0.05     0.02   0.07   0.14    -0.08  -0.03  -0.02
  17   1     0.04  -0.02   0.05    -0.05  -0.17   0.13    -0.07   0.04  -0.01
  18   1    -0.06   0.02  -0.09    -0.12  -0.14  -0.23     0.12  -0.02   0.03
  19   1    -0.01   0.13  -0.09    -0.04   0.11  -0.22     0.11  -0.09   0.02
  20   1    -0.00   0.09  -0.06    -0.07  -0.06  -0.13     0.03  -0.13  -0.00
                      4                      5                      6
                        a                      a                      a 
 Frequencies --   115.9512               169.0818               206.4032
 Red. masses --     9.5297                 6.3871                 2.9891
 Frc consts  --     0.0000                 0.0000                 0.0000
 IR Inten    --     2.8486                 2.4334                 3.2290
 Raman Activ --     0.0000                 0.0000                 0.0000
 Depolar     --     0.0000                 0.0000                 0.0000
 Atom AN      X      Y      Z        X      Y      Z        X      Y      Z
   1   6     0.29   0.11  -0.03     0.27   0.05   0.00     0.14   0.03   0.01
   2   6     0.01   0.15   0.20     0.19   0.07  -0.24     0.08   0.04   0.02
   3   6     0.14   0.21  -0.07    -0.02   0.13   0.10     0.02  -0.02   0.13
   4   6     0.00  -0.13  -0.09    -0.04  -0.04   0.18    -0.06   0.01  -0.02
   5   8     0.03  -0.20  -0.11    -0.19  -0.20   0.18    -0.26   0.01  -0.05
   6   8    -0.15  -0.39  -0.08     0.01  -0.10   0.09    -0.01  -0.03  -0.14
   7   6     0.00  -0.06   0.02    -0.10   0.01  -0.23     0.03  -0.03  -0.03
   8   6    -0.35   0.24   0.13    -0.13   0.06  -0.01     0.02  -0.01   0.05
   9   1     0.03   0.01   0.10     0.21  -0.04  -0.21     0.18  -0.02  -0.24
  10   1     0.05   0.12  -0.15     0.21  -0.03   0.24     0.19  -0.01   0.24
  11   1     0.24  -0.04  -0.03    -0.17   0.10   0.02    -0.22   0.05   0.00
  12   1     0.02  -0.03   0.15     0.00   0.05  -0.19     0.00   0.01  -0.03
  13   1    -0.10   0.10   0.07     0.17  -0.04  -0.09     0.06   0.01   0.01
  14   1     0.06   0.13   0.01    -0.06   0.05   0.04     0.01  -0.05   0.02
  15   1     0.08   0.07  -0.11     0.01   0.04   0.01     0.02  -0.01   0.08
  16   1     0.04   0.01   0.02    -0.00  -0.07  -0.16    -0.01   0.01   0.02
  17   1     0.06  -0.03   0.00    -0.08   0.10  -0.10     0.04  -0.03  -0.00
  18   1    -0.15   0.03   0.02    -0.14   0.14   0.19     0.22  -0.19  -0.31
  19   1    -0.19   0.08   0.04     0.12  -0.15   0.06    -0.36   0.24  -0.05
  20   1    -0.05   0.16   0.07    -0.10   0.08  -0.22     0.16  -0.05   0.45
                      7                      8                      9
                        a                      a                      a 
 Frequencies --   252.4984               298.8465               355.0948
 Red. masses --     4.6577                 8.9948                10.0415
 Frc consts  --     0.0000                 0.0000                 0.0000
 IR Inten    --     0.9830                18.7639                 7.2889
 Raman Activ --     0.0000                 0.0000                 0.0000
 Depolar     --     0.0000                 0.0000                 0.0000
 Atom AN      X      Y      Z        X      Y      Z        X      Y      Z
   1   6    -0.02  -0.00  -0.03    -0.17  -0.07  -0.09    -0.09  -0.05  -0.07
   2   6    -0.14   0.00   0.30    -0.19  -0.07   0.16    -0.14  -0.03  -0.04
   3   6     0.06  -0.04  -0.05    -0.04   0.16  -0.14    -0.13   0.27  -0.08
   4   6     0.01   0.01  -0.20     0.07  -0.01   0.12    -0.08  -0.12   0.15
   5   8     0.10   0.03  -0.22     0.46  -0.15   0.17    -0.28   0.13   0.17
   6   8    -0.08   0.04  -0.10     0.08   0.01   0.20     0.01  -0.41  -0.05
   7   6     0.05  -0.02   0.24    -0.13   0.07  -0.32     0.31   0.07   0.08
   8   6     0.01  -0.01   0.01    -0.02   0.02  -0.05     0.35   0.07  -0.08
   9   1     0.19  -0.01  -0.36     0.02   0.01  -0.17    -0.01  -0.01  -0.05
  10   1     0.20   0.02   0.28     0.02  -0.01   0.07    -0.01  -0.01  -0.01
  11   1    -0.37  -0.01  -0.04    -0.19  -0.06  -0.05    -0.05  -0.03  -0.03
  12   1    -0.01  -0.06   0.20    -0.03  -0.07   0.14    -0.05  -0.03  -0.01
  13   1    -0.15   0.08   0.11    -0.16   0.03   0.06    -0.06  -0.01  -0.01
  14   1     0.08  -0.02  -0.02     0.00   0.18   0.02    -0.08   0.28   0.07
  15   1     0.02  -0.01  -0.01    -0.03   0.07  -0.19    -0.04   0.11  -0.26
  16   1    -0.00   0.06   0.15    -0.01  -0.09  -0.22     0.11   0.07   0.07
  17   1     0.07  -0.09   0.10    -0.13   0.16  -0.14     0.16  -0.03   0.04
  18   1    -0.13   0.06   0.14     0.10  -0.01  -0.09     0.11   0.02  -0.03
  19   1     0.20  -0.09   0.02    -0.14   0.03  -0.01     0.17   0.04  -0.04
  20   1    -0.08   0.02  -0.22     0.04  -0.02   0.14     0.07  -0.04  -0.06
                     10                     11                     12
                        a                      a                      a 
 Frequencies --   378.7328               481.5083               578.8700
 Red. masses --     8.9265                10.4044                10.5157
 Frc consts  --     0.0000                 0.0000                 0.0000
 IR Inten    --     1.6895                 4.6117                16.0994
 Raman Activ --     0.0000                 0.0000                 0.0000
 Depolar     --     0.0000                 0.0000                 0.0000
 Atom AN      X      Y      Z        X      Y      Z        X      Y      Z
   1   6    -0.26  -0.18  -0.17    -0.03  -0.04  -0.04     0.05   0.06   0.01
   2   6     0.32  -0.25   0.10     0.32  -0.10   0.11     0.12   0.02   0.02
   3   6     0.24   0.25   0.08     0.18   0.05   0.14     0.19  -0.23  -0.20
   4   6     0.14   0.20   0.02    -0.10   0.00  -0.10    -0.08  -0.59  -0.04
   5   8    -0.25   0.01  -0.03     0.11  -0.08  -0.10    -0.19   0.34  -0.01
   6   8     0.14   0.15  -0.06    -0.45  -0.23   0.06     0.08   0.22   0.21
   7   6     0.02  -0.19   0.02    -0.28   0.37   0.07    -0.13   0.07   0.06
   8   6    -0.21  -0.03   0.08     0.17   0.05  -0.07    -0.07  -0.03   0.01
   9   1    -0.11   0.15  -0.08    -0.04   0.12  -0.01     0.02   0.03  -0.01
  10   1    -0.16  -0.14  -0.09    -0.07  -0.07  -0.05     0.01   0.01   0.01
  11   1    -0.16  -0.12  -0.08    -0.05  -0.06  -0.03    -0.00   0.02   0.00
  12   1     0.08  -0.04  -0.01     0.07   0.00  -0.04     0.07   0.03   0.05
  13   1     0.12  -0.08   0.03     0.17  -0.05   0.03     0.01   0.02   0.01
  14   1     0.13   0.20   0.08     0.13   0.01   0.03     0.01   0.17   0.05
  15   1    -0.04   0.10  -0.14     0.03   0.01   0.03     0.22  -0.04  -0.33
  16   1    -0.01  -0.03   0.04    -0.05   0.08  -0.03    -0.02  -0.04  -0.05
  17   1     0.01  -0.08   0.02    -0.07   0.14   0.00    -0.11   0.08   0.00
  18   1    -0.13  -0.02   0.05     0.19   0.05  -0.07    -0.01  -0.02  -0.01
  19   1    -0.11  -0.02   0.04     0.17   0.05  -0.06    -0.01   0.01  -0.01
  20   1    -0.03   0.10   0.01    -0.03  -0.21  -0.01    -0.02  -0.03   0.01
                     13                     14                     15
                        a                      a                      a 
 Frequencies --   662.4722               798.9349               826.4873
 Red. masses --    10.3980                 4.1357                 3.8534
 Frc consts  --     0.0000                 0.0000                 0.0000
 IR Inten    --     9.8542                22.3393                13.3930
 Raman Activ --     0.0000                 0.0000                 0.0000
 Depolar     --     0.0000                 0.0000                 0.0000
 Atom AN      X      Y      Z        X      Y      Z        X      Y      Z
   1   6    -0.01  -0.01   0.01    -0.05  -0.00   0.03    -0.07   0.04   0.05
   2   6    -0.01   0.00  -0.12    -0.19   0.02   0.14    -0.17   0.01   0.12
   3   6     0.20  -0.08  -0.35    -0.05   0.01   0.10     0.08  -0.18  -0.08
   4   6     0.35   0.31   0.04     0.10   0.04  -0.13     0.22   0.14   0.03
   5   8    -0.38   0.01  -0.05    -0.04   0.02  -0.23    -0.08  -0.02  -0.01
   6   8     0.02  -0.23   0.34     0.02  -0.05   0.19     0.08  -0.08   0.06
   7   6    -0.07   0.06   0.09     0.12  -0.08   0.17    -0.15   0.11  -0.12
   8   6    -0.00   0.02  -0.01     0.05   0.00   0.04    -0.09  -0.00  -0.06
   9   1    -0.00  -0.03   0.02     0.04  -0.07  -0.07     0.06  -0.10  -0.08
  10   1    -0.00  -0.05   0.05     0.08   0.24  -0.07     0.11   0.30  -0.06
  11   1    -0.02   0.07   0.03     0.05  -0.20  -0.07     0.06  -0.19  -0.07
  12   1     0.09  -0.08   0.21    -0.10   0.22  -0.25    -0.02   0.26  -0.18
  13   1    -0.24   0.09  -0.01     0.21  -0.21  -0.04     0.16  -0.21  -0.04
  14   1     0.02  -0.17  -0.16     0.08   0.04   0.04     0.09   0.07   0.03
  15   1    -0.02  -0.04   0.09    -0.03   0.01  -0.02    -0.01  -0.03  -0.14
  16   1     0.04  -0.07  -0.11    -0.03  -0.30  -0.22     0.11   0.27   0.15
  17   1    -0.09   0.13  -0.02    -0.05   0.31  -0.10    -0.03  -0.26   0.11
  18   1     0.02  -0.01  -0.04    -0.17  -0.19  -0.08     0.21   0.21   0.07
  19   1     0.04   0.05  -0.03     0.08   0.21  -0.11    -0.08  -0.23   0.11
  20   1    -0.02  -0.06  -0.00    -0.00   0.06  -0.08    -0.02  -0.11   0.10
                     16                     17                     18
                        a                      a                      a 
 Frequencies --   877.8364               905.8866               917.0290
 Red. masses --     7.7872                 8.3548                 7.6598
 Frc consts  --     0.0000                 0.0000                 0.0000
 IR Inten    --    19.4799                12.1615                 0.6040
 Raman Activ --     0.0000                 0.0000                 0.0000
 Depolar     --     0.0000                 0.0000                 0.0000
 Atom AN      X      Y      Z        X      Y      Z        X      Y      Z
   1   6    -0.00   0.16  -0.04     0.07   0.22  -0.03     0.09   0.13   0.17
   2   6    -0.00  -0.06  -0.03     0.10  -0.12   0.05     0.19  -0.08   0.12
   3   6    -0.01  -0.37   0.04    -0.16  -0.30   0.04    -0.02  -0.11  -0.41
   4   6     0.12   0.24   0.14    -0.05   0.20  -0.08    -0.17   0.09   0.16
   5   8     0.03  -0.10   0.16    -0.00  -0.03  -0.14     0.00  -0.04   0.30
   6   8     0.09  -0.04  -0.40    -0.30   0.02   0.30    -0.21   0.08  -0.15
   7   6    -0.13   0.13   0.11     0.17  -0.20  -0.10     0.06  -0.08  -0.05
   8   6    -0.12  -0.04   0.12     0.22   0.07  -0.12     0.12   0.02   0.01
   9   1     0.01  -0.09   0.04    -0.01   0.05   0.05     0.05   0.29  -0.10
  10   1     0.04   0.05   0.05    -0.01  -0.03   0.04     0.00   0.16  -0.11
  11   1     0.06   0.17   0.05     0.02   0.19   0.05    -0.07  -0.29  -0.10
  12   1     0.05  -0.00   0.06     0.01  -0.07   0.03     0.15   0.13   0.05
  13   1     0.04   0.10   0.04     0.11   0.11   0.07    -0.07  -0.24  -0.06
  14   1     0.04   0.21   0.15     0.10   0.15   0.12    -0.07  -0.12  -0.15
  15   1    -0.13  -0.04  -0.34    -0.21  -0.03  -0.26     0.01  -0.04  -0.00
  16   1    -0.16  -0.05   0.01     0.06  -0.03  -0.02    -0.13  -0.05   0.03
  17   1     0.12   0.14  -0.06    -0.10  -0.09   0.03     0.07   0.01  -0.03
  18   1    -0.07  -0.13  -0.07    -0.01   0.06   0.06    -0.10  -0.07  -0.00
  19   1     0.14   0.16  -0.09    -0.13  -0.09   0.05    -0.00   0.07  -0.03
  20   1    -0.12  -0.16  -0.06     0.17   0.27   0.02     0.06   0.13  -0.04
                     19                     20                     21
                        a                      a                      a 
 Frequencies --   962.4076              1049.8951              1070.7939
 Red. masses --     7.5165                 8.0305                 6.6861
 Frc consts  --     0.0000                 0.0000                 0.0000
 IR Inten    --     4.2868                17.9099                41.0178
 Raman Activ --     0.0000                 0.0000                 0.0000
 Depolar     --     0.0000                 0.0000                 0.0000
 Atom AN      X      Y      Z        X      Y      Z        X      Y      Z
   1   6    -0.22  -0.27  -0.11     0.09  -0.02   0.05    -0.07   0.28  -0.09
   2   6    -0.09   0.18  -0.10    -0.08   0.05  -0.04    -0.02  -0.32   0.05
   3   6     0.38  -0.01   0.01    -0.05  -0.02   0.13     0.09   0.19  -0.14
   4   6    -0.10   0.06   0.09     0.26  -0.02   0.01    -0.17  -0.19  -0.01
   5   8     0.01  -0.03   0.20    -0.01  -0.00  -0.07    -0.00   0.04   0.09
   6   8    -0.28   0.09  -0.07     0.17  -0.12  -0.13     0.24  -0.06  -0.04
   7   6    -0.01  -0.10  -0.05    -0.52  -0.09   0.14    -0.25  -0.05   0.08
   8   6     0.20   0.05  -0.04     0.33   0.18  -0.08     0.12   0.09  -0.01
   9   1     0.00  -0.44   0.01    -0.01   0.16  -0.01     0.01  -0.13   0.02
  10   1     0.09   0.07   0.06    -0.05  -0.07  -0.04     0.07   0.14   0.05
  11   1     0.10   0.05   0.03    -0.06  -0.07  -0.02     0.09   0.20   0.04
  12   1     0.07   0.14   0.03    -0.08  -0.06  -0.03    -0.01  -0.05  -0.03
  13   1     0.01   0.09  -0.01    -0.07  -0.03  -0.03     0.07  -0.06   0.03
  14   1     0.19   0.00   0.00    -0.23   0.06   0.07     0.38  -0.14  -0.13
  15   1     0.24  -0.01  -0.00     0.13  -0.01  -0.03    -0.42   0.05   0.16
  16   1    -0.14  -0.04   0.05    -0.25  -0.05   0.08    -0.07  -0.02   0.02
  17   1    -0.01  -0.04  -0.01    -0.17  -0.08   0.06    -0.05  -0.04   0.03
  18   1    -0.09  -0.03   0.02    -0.05   0.04   0.04    -0.01   0.02   0.01
  19   1    -0.05   0.03  -0.00    -0.06   0.05   0.00     0.00   0.04  -0.01
  20   1     0.12   0.22  -0.03     0.18   0.31  -0.02     0.05   0.08  -0.01
                     22                     23                     24
                        a                      a                      a 
 Frequencies --  1080.7915              1096.3575              1123.3548
 Red. masses --     4.2937                 7.5480                 9.4200
 Frc consts  --     0.0000                 0.0000                 0.0000
 IR Inten    --    12.1537                14.6840               116.0805
 Raman Activ --     0.0000                 0.0000                 0.0000
 Depolar     --     0.0000                 0.0000                 0.0000
 Atom AN      X      Y      Z        X      Y      Z        X      Y      Z
   1   6     0.24   0.02  -0.06    -0.03   0.03   0.01     0.03  -0.34  -0.04
   2   6    -0.36   0.02   0.09     0.03  -0.04  -0.02     0.19   0.39   0.22
   3   6     0.14  -0.06  -0.14    -0.01   0.04   0.03    -0.26  -0.07  -0.27
   4   6    -0.05   0.10   0.04     0.02  -0.02  -0.01    -0.27   0.13  -0.04
   5   8    -0.03  -0.01   0.14    -0.00  -0.00  -0.02     0.01  -0.01   0.02
   6   8    -0.00  -0.02   0.00     0.04  -0.12  -0.03     0.30  -0.13  -0.00
   7   6     0.04   0.08  -0.04     0.08   0.55   0.08    -0.12   0.01   0.13
   8   6    -0.01  -0.08   0.02     0.01  -0.49  -0.09     0.02   0.01  -0.04
   9   1    -0.05   0.28   0.06     0.01  -0.03  -0.01    -0.02  -0.05   0.03
  10   1    -0.13  -0.29  -0.01     0.02   0.05   0.00    -0.04  -0.19   0.02
  11   1    -0.10   0.12   0.02     0.02  -0.00  -0.00    -0.02  -0.05   0.01
  12   1    -0.35  -0.15  -0.27     0.04   0.00   0.03     0.08   0.21  -0.00
  13   1     0.15  -0.04   0.02    -0.03  -0.01  -0.01     0.26   0.22   0.11
  14   1     0.40  -0.04  -0.06    -0.04  -0.00   0.01     0.08  -0.03  -0.08
  15   1     0.27  -0.03  -0.03    -0.06   0.01   0.02    -0.13  -0.01  -0.06
  16   1    -0.03   0.03   0.02    -0.02   0.12   0.01     0.06  -0.03  -0.05
  17   1     0.04   0.00  -0.01    -0.02   0.13   0.04    -0.06   0.01   0.03
  18   1    -0.05  -0.05   0.00    -0.28  -0.16   0.10     0.01   0.03   0.02
  19   1    -0.02  -0.00  -0.00    -0.31  -0.18   0.06    -0.03  -0.03   0.01
  20   1     0.00   0.02  -0.01     0.15   0.30  -0.01     0.02   0.03   0.01
                     25                     26                     27
                        a                      a                      a 
 Frequencies --  1139.8294              1167.1730              1188.7435
 Red. masses --     7.6573                 8.1467                 5.7506
 Frc consts  --     0.0000                 0.0000                 0.0000
 IR Inten    --   207.0413               182.0533                44.0591
 Raman Activ --     0.0000                 0.0000                 0.0000
 Depolar     --     0.0000                 0.0000                 0.0000
 Atom AN      X      Y      Z        X      Y      Z        X      Y      Z
   1   6    -0.01  -0.07  -0.10    -0.01   0.04  -0.12    -0.11   0.17  -0.18
   2   6     0.06   0.07   0.25     0.01  -0.06   0.23     0.15  -0.27   0.24
   3   6    -0.16   0.08  -0.16    -0.07   0.07  -0.15    -0.15   0.05  -0.11
   4   6     0.43  -0.22   0.06     0.31  -0.12   0.10    -0.21   0.22  -0.05
   5   8    -0.06   0.03  -0.03    -0.03  -0.01   0.13     0.02  -0.02  -0.05
   6   8    -0.19   0.07   0.10    -0.22   0.10  -0.30     0.17  -0.09   0.09
   7   6    -0.02   0.05  -0.33     0.15  -0.05   0.32    -0.07   0.01  -0.04
   8   6     0.05  -0.04   0.16    -0.08   0.05  -0.24     0.03  -0.01   0.07
   9   1    -0.03  -0.08   0.05    -0.02  -0.08   0.05    -0.02  -0.19   0.05
  10   1    -0.00  -0.09   0.04     0.01  -0.05   0.05     0.07   0.06   0.08
  11   1     0.02   0.11   0.03     0.03   0.16   0.04     0.10   0.23   0.05
  12   1    -0.06   0.04  -0.08    -0.07  -0.00  -0.08    -0.01  -0.05  -0.03
  13   1     0.22   0.08   0.10     0.15  -0.03   0.06     0.07  -0.16   0.03
  14   1    -0.13  -0.06  -0.07    -0.16  -0.06  -0.07    -0.28  -0.03  -0.04
  15   1    -0.17   0.01   0.07     0.04  -0.00   0.05     0.57  -0.03   0.01
  16   1    -0.23   0.15   0.18     0.03  -0.20  -0.12     0.05   0.05   0.00
  17   1     0.18  -0.13  -0.05    -0.16   0.22   0.01     0.01  -0.06   0.01
  18   1    -0.12  -0.16  -0.04     0.17   0.21   0.04    -0.04  -0.05  -0.01
  19   1     0.08   0.16  -0.06    -0.11  -0.24   0.08     0.03   0.06  -0.02
  20   1    -0.02   0.02  -0.08     0.03  -0.02   0.11    -0.01   0.01  -0.03
                     28                     29                     30
                        a                      a                      a 
 Frequencies --  1248.1161              1252.9962              1307.5336
 Red. masses --     3.2765                 3.0984                 3.8731
 Frc consts  --     0.0000                 0.0000                 0.0000
 IR Inten    --     4.7947                28.8241                29.5381
 Raman Activ --     0.0000                 0.0000                 0.0000
 Depolar     --     0.0000                 0.0000                 0.0000
 Atom AN      X      Y      Z        X      Y      Z        X      Y      Z
   1   6    -0.18   0.03   0.24    -0.08   0.01   0.12    -0.03   0.02   0.02
   2   6     0.17  -0.04  -0.15     0.06  -0.01  -0.06    -0.01   0.08   0.08
   3   6    -0.17   0.03  -0.07    -0.05   0.02  -0.06     0.35  -0.06  -0.07
   4   6     0.03   0.01   0.00     0.11  -0.04   0.04    -0.11   0.04  -0.03
   5   8    -0.02   0.00  -0.01    -0.01  -0.01   0.08     0.01  -0.01   0.02
   6   8     0.05  -0.03   0.07    -0.11   0.05  -0.21    -0.03   0.07   0.05
   7   6     0.03   0.01   0.02    -0.05  -0.00  -0.03    -0.25  -0.09   0.07
   8   6    -0.05   0.03  -0.11     0.08  -0.04   0.20     0.03  -0.09  -0.05
   9   1     0.05  -0.03  -0.10     0.03  -0.01  -0.05     0.00  -0.05   0.00
  10   1     0.06   0.27  -0.05     0.02   0.12  -0.02    -0.00   0.01   0.01
  11   1     0.04  -0.24  -0.04     0.02  -0.12  -0.02     0.00  -0.05  -0.01
  12   1    -0.20  -0.40  -0.04    -0.13  -0.21  -0.04    -0.23  -0.20  -0.14
  13   1     0.20   0.39   0.13     0.12   0.20   0.07     0.07   0.03   0.03
  14   1     0.15  -0.03  -0.04     0.04  -0.03  -0.03    -0.37   0.01   0.00
  15   1     0.20  -0.01  -0.02     0.04  -0.00  -0.01    -0.22   0.01  -0.02
  16   1    -0.29  -0.08   0.09     0.53   0.15  -0.16     0.35   0.07  -0.12
  17   1     0.20   0.07  -0.06    -0.47  -0.13   0.15     0.49   0.10  -0.15
  18   1     0.06   0.08   0.01    -0.11  -0.15  -0.03     0.02   0.05   0.04
  19   1    -0.04  -0.09   0.03     0.08   0.18  -0.05    -0.02   0.02  -0.03
  20   1     0.00  -0.02   0.04    -0.01   0.03  -0.07     0.06   0.11   0.00
                     31                     32                     33
                        a                      a                      a 
 Frequencies --  1319.8814              1338.9810              1394.1145
 Red. masses --     4.5505                 4.8765                 3.1170
 Frc consts  --     0.0000                 0.0000                 0.0000
 IR Inten    --    44.6165                16.0837                 5.7530
 Raman Activ --     0.0000                 0.0000                 0.0000
 Depolar     --     0.0000                 0.0000                 0.0000
 Atom AN      X      Y      Z        X      Y      Z        X      Y      Z
   1   6    -0.05   0.03  -0.00    -0.11   0.04  -0.08     0.00   0.00   0.00
   2   6     0.04   0.13   0.10     0.35   0.36   0.12    -0.00  -0.00   0.00
   3   6     0.35  -0.07  -0.06    -0.22  -0.08   0.04     0.02  -0.00  -0.00
   4   6    -0.21   0.07  -0.03     0.10  -0.03   0.01    -0.03   0.01  -0.00
   5   8     0.02  -0.01  -0.01    -0.01   0.00   0.02     0.00   0.00  -0.01
   6   8     0.09  -0.08   0.02    -0.02   0.02  -0.02     0.04  -0.03  -0.00
   7   6     0.25   0.09  -0.07    -0.04  -0.01   0.01     0.07  -0.02  -0.02
   8   6    -0.03   0.09   0.04     0.00  -0.01  -0.00    -0.30  -0.30   0.04
   9   1     0.00  -0.08   0.01     0.00  -0.20   0.01    -0.00   0.00  -0.00
  10   1    -0.01  -0.01   0.02    -0.00  -0.06   0.06    -0.00   0.00  -0.00
  11   1     0.01  -0.05  -0.02     0.06  -0.04  -0.03    -0.00  -0.00  -0.00
  12   1    -0.24  -0.23  -0.14    -0.22  -0.29  -0.10    -0.00  -0.00  -0.00
  13   1     0.00  -0.05  -0.01    -0.39  -0.41  -0.19     0.00   0.00   0.00
  14   1    -0.35   0.01   0.00     0.29  -0.01   0.01    -0.01   0.00   0.00
  15   1    -0.24   0.01  -0.03    -0.02  -0.01  -0.07    -0.01   0.00   0.00
  16   1    -0.34  -0.09   0.10     0.05   0.02  -0.01    -0.08   0.09   0.14
  17   1    -0.41  -0.11   0.14     0.05   0.02  -0.02    -0.15   0.12  -0.02
  18   1    -0.03  -0.05  -0.04     0.01   0.01   0.01     0.41   0.25   0.03
  19   1     0.01  -0.04   0.03     0.00   0.01  -0.01     0.37   0.27  -0.21
  20   1    -0.07  -0.12  -0.00     0.01   0.02   0.00     0.17   0.47   0.05
                     34                     35                     36
                        a                      a                      a 
 Frequencies --  1411.5084              1426.2103              1430.4446
 Red. masses --     3.1608                 1.9937                 2.0158
 Frc consts  --     0.0000                 0.0000                 0.0000
 IR Inten    --     2.2669                10.5853                 3.6847
 Raman Activ --     0.0000                 0.0000                 0.0000
 Depolar     --     0.0000                 0.0000                 0.0000
 Atom AN      X      Y      Z        X      Y      Z        X      Y      Z
   1   6    -0.10  -0.41  -0.02     0.00  -0.09  -0.01     0.00   0.00   0.00
   2   6     0.08   0.06   0.04     0.01  -0.00   0.02    -0.00  -0.00  -0.00
   3   6     0.01  -0.05  -0.05     0.02   0.14   0.25    -0.01   0.01   0.01
   4   6    -0.01  -0.00   0.00     0.01   0.01  -0.00     0.03  -0.01  -0.02
   5   8     0.00   0.00  -0.00    -0.00  -0.00   0.01    -0.00  -0.00   0.04
   6   8     0.00  -0.00  -0.00     0.00   0.00   0.01    -0.04   0.03   0.00
   7   6     0.00   0.00   0.00    -0.00  -0.00  -0.00    -0.00   0.27   0.03
   8   6     0.00  -0.00   0.00     0.00  -0.00   0.00    -0.08  -0.06   0.02
   9   1    -0.08   0.47  -0.09    -0.03   0.08   0.01     0.00  -0.01   0.00
  10   1     0.24   0.43  -0.05     0.05   0.10  -0.03    -0.00  -0.00  -0.00
  11   1     0.12   0.44   0.20    -0.02   0.09   0.04    -0.01  -0.00  -0.00
  12   1    -0.08  -0.04  -0.10    -0.01   0.04  -0.04     0.01   0.01   0.00
  13   1    -0.12  -0.02  -0.02    -0.05   0.03   0.01    -0.00   0.00  -0.00
  14   1     0.01   0.13   0.06    -0.05  -0.61  -0.28     0.01  -0.01  -0.00
  15   1    -0.04  -0.02   0.12    -0.01   0.09  -0.64     0.00   0.00  -0.01
  16   1     0.00  -0.01  -0.01    -0.00   0.01   0.01    -0.06  -0.45  -0.46
  17   1    -0.00  -0.01   0.00     0.00   0.01  -0.01     0.21  -0.59   0.24
  18   1    -0.00   0.00   0.00     0.01   0.00  -0.00     0.10   0.06   0.00
  19   1     0.00   0.00  -0.00    -0.01   0.00   0.00     0.10   0.06  -0.05
  20   1     0.00  -0.00   0.00    -0.00   0.00  -0.01     0.03   0.11   0.01
                     37                     38                     39
                        a                      a                      a 
 Frequencies --  1471.0598              1474.2192              1485.2833
 Red. masses --     1.5126                 1.9326                 1.5723
 Frc consts  --     0.0000                 0.0000                 0.0000
 IR Inten    --     5.8758                 1.0063                 2.1409
 Raman Activ --     0.0000                 0.0000                 0.0000
 Depolar     --     0.0000                 0.0000                 0.0000
 Atom AN      X      Y      Z        X      Y      Z        X      Y      Z
   1   6     0.00   0.00   0.00    -0.01  -0.05  -0.01     0.00  -0.00  -0.00
   2   6     0.01  -0.01   0.01    -0.16   0.21  -0.10    -0.00   0.00  -0.00
   3   6     0.00   0.00   0.00    -0.00   0.02   0.01    -0.00   0.00  -0.00
   4   6     0.00   0.00   0.00    -0.00  -0.01   0.02    -0.00  -0.00   0.00
   5   8     0.00  -0.00  -0.00     0.00   0.00  -0.02    -0.00   0.00  -0.00
   6   8    -0.00   0.00   0.00     0.00   0.00  -0.00     0.01  -0.00  -0.00
   7   6    -0.03   0.01  -0.04    -0.00   0.00  -0.00    -0.05   0.01   0.03
   8   6    -0.08   0.08  -0.18    -0.00   0.00  -0.01    -0.11   0.15   0.11
   9   1     0.00  -0.00  -0.00    -0.02   0.04   0.01    -0.00   0.00   0.00
  10   1    -0.00  -0.00   0.00     0.03   0.08  -0.03     0.00   0.00  -0.00
  11   1     0.00  -0.00  -0.00    -0.03   0.07   0.03    -0.00   0.00   0.00
  12   1    -0.01   0.02  -0.03     0.11  -0.36   0.55     0.00  -0.01   0.01
  13   1    -0.03   0.02   0.01     0.52  -0.41  -0.13     0.01  -0.01  -0.00
  14   1    -0.00  -0.01  -0.00    -0.01  -0.04  -0.02     0.00   0.00   0.00
  15   1     0.00   0.00  -0.01    -0.01   0.01  -0.03    -0.00   0.00   0.00
  16   1     0.03   0.03  -0.00     0.00   0.00  -0.00     0.03   0.02  -0.01
  17   1    -0.00  -0.02  -0.00     0.00  -0.00   0.00     0.04   0.02  -0.01
  18   1    -0.41  -0.10   0.10    -0.02   0.00   0.01     0.20  -0.40  -0.54
  19   1     0.51  -0.15  -0.01     0.02   0.00  -0.00     0.24  -0.49   0.22
  20   1     0.23  -0.05   0.65     0.01  -0.01   0.03     0.03   0.30  -0.14
                     40                     41                     42
                        a                      a                      a 
 Frequencies --  1496.1882              1502.6323              1701.9953
 Red. masses --     1.5486                 1.5546                13.3123
 Frc consts  --     0.0000                 0.0000                 0.0000
 IR Inten    --     2.7303                 0.6361               626.2014
 Raman Activ --     0.0000                 0.0000                 0.0000
 Depolar     --     0.0000                 0.0000                 0.0000
 Atom AN      X      Y      Z        X      Y      Z        X      Y      Z
   1   6     0.20  -0.04  -0.07     0.07  -0.02   0.20     0.00  -0.00   0.00
   2   6     0.07  -0.00  -0.00     0.03   0.00   0.05    -0.00  -0.00  -0.01
   3   6    -0.02  -0.01  -0.02    -0.00  -0.00  -0.01    -0.05   0.01   0.06
   4   6    -0.00  -0.00   0.01    -0.00   0.01   0.00     0.12   0.02  -0.79
   5   8     0.00   0.00  -0.00     0.00   0.00  -0.00    -0.07  -0.03   0.58
   6   8     0.00  -0.00  -0.00     0.00  -0.00   0.00     0.02  -0.01   0.05
   7   6     0.00  -0.00  -0.00     0.00  -0.00  -0.00     0.01  -0.01  -0.02
   8   6     0.00   0.00  -0.00    -0.00   0.00   0.00    -0.00   0.00   0.00
   9   1    -0.22  -0.19   0.49     0.28  -0.27  -0.37    -0.00   0.00   0.00
  10   1     0.10   0.32  -0.18    -0.38   0.02  -0.59     0.00   0.01  -0.01
  11   1    -0.68   0.02  -0.04    -0.17   0.33   0.14    -0.01   0.00   0.00
  12   1    -0.02  -0.03  -0.04    -0.01   0.00  -0.02     0.02   0.00   0.03
  13   1    -0.04   0.02   0.00    -0.02  -0.03  -0.00     0.02  -0.01  -0.01
  14   1     0.01   0.04   0.02    -0.01   0.00   0.00    -0.05   0.03   0.02
  15   1     0.01  -0.01   0.04     0.00  -0.00   0.00    -0.01   0.00   0.00
  16   1     0.00   0.00   0.00    -0.00   0.00   0.00    -0.02   0.02   0.03
  17   1    -0.00   0.00  -0.00    -0.00   0.00  -0.00    -0.01   0.02  -0.01
  18   1    -0.00  -0.00   0.00    -0.00  -0.00  -0.00    -0.01  -0.01  -0.00
  19   1    -0.00   0.00  -0.00    -0.00  -0.00   0.00     0.00  -0.00   0.00
  20   1    -0.00  -0.00   0.00    -0.00  -0.00  -0.00    -0.00  -0.01   0.00
                     43                     44                     45
                        a                      a                      a 
 Frequencies --  2945.5956              2968.5611              2984.8560
 Red. masses --     1.7202                 1.7742                 1.9368
 Frc consts  --     0.0000                 0.0000                 0.0000
 IR Inten    --    30.8381                 8.7788                28.9880
 Raman Activ --     0.0000                 0.0000                 0.0000
 Depolar     --     0.0000                 0.0000                 0.0000
 Atom AN      X      Y      Z        X      Y      Z        X      Y      Z
   1   6    -0.00   0.00   0.00    -0.00   0.00  -0.00    -0.02   0.00   0.03
   2   6    -0.00   0.00  -0.00    -0.02   0.01  -0.00     0.12   0.02  -0.26
   3   6    -0.00  -0.00  -0.00    -0.02  -0.26  -0.01     0.00  -0.02   0.03
   4   6     0.00  -0.00   0.00     0.00  -0.01  -0.00    -0.00  -0.00   0.00
   5   8     0.00   0.00  -0.00    -0.00   0.00   0.00     0.00   0.00   0.00
   6   8    -0.01   0.01   0.01    -0.00   0.00  -0.00    -0.00  -0.00  -0.00
   7   6     0.05   0.10   0.23    -0.00   0.00  -0.00     0.00  -0.00   0.00
   8   6     0.00  -0.00  -0.01    -0.00   0.00   0.00     0.00  -0.00  -0.00
   9   1     0.00  -0.00   0.00     0.00   0.00   0.00    -0.01  -0.00   0.00
  10   1     0.00  -0.00  -0.00     0.01  -0.00  -0.00     0.08  -0.05  -0.05
  11   1     0.00   0.00  -0.00    -0.00  -0.00   0.01     0.00   0.04  -0.09
  12   1     0.00  -0.00  -0.00     0.06  -0.03  -0.04    -0.38   0.23   0.21
  13   1    -0.00  -0.00   0.00    -0.01  -0.02   0.05    -0.04  -0.29   0.74
  14   1     0.00  -0.00   0.00    -0.00   0.00  -0.08    -0.00   0.07  -0.15
  15   1     0.00   0.01   0.00     0.06   0.95   0.11    -0.00  -0.02   0.00
  16   1     0.01   0.01   0.03     0.00  -0.01   0.01    -0.00   0.00  -0.00
  17   1    -0.17  -0.40  -0.86     0.00   0.00   0.01     0.00   0.00   0.00
  18   1     0.01  -0.01   0.01     0.00  -0.00   0.00    -0.00   0.00  -0.00
  19   1     0.01   0.03   0.05    -0.00  -0.00  -0.00     0.00   0.00   0.00
  20   1    -0.01   0.00   0.00     0.00  -0.00  -0.00    -0.00   0.00   0.00
                     46                     47                     48
                        a                      a                      a 
 Frequencies --  2991.5113              2997.4456              3008.1305
 Red. masses --     1.7397                 1.5119                 1.7221
 Frc consts  --     0.0000                 0.0000                 0.0000
 IR Inten    --    15.8550                42.0232                27.5184
 Raman Activ --     0.0000                 0.0000                 0.0000
 Depolar     --     0.0000                 0.0000                 0.0000
 Atom AN      X      Y      Z        X      Y      Z        X      Y      Z
   1   6     0.00  -0.00   0.00    -0.03   0.01  -0.00    -0.01   0.00  -0.02
   2   6     0.00   0.00  -0.00     0.15  -0.14   0.02    -0.01  -0.02   0.05
   3   6     0.00   0.00   0.00     0.00  -0.02  -0.02     0.01  -0.09   0.23
   4   6     0.00   0.00   0.00    -0.00   0.00   0.00    -0.00  -0.00   0.01
   5   8     0.00  -0.00   0.00    -0.00  -0.00  -0.00    -0.00   0.00  -0.00
   6   8    -0.01   0.00  -0.00     0.00  -0.00   0.00    -0.00   0.00  -0.00
   7   6    -0.09   0.17  -0.17    -0.00   0.00  -0.00     0.00   0.00   0.00
   8   6     0.02  -0.02   0.02    -0.00   0.00   0.00     0.00  -0.00  -0.00
   9   1    -0.00  -0.00  -0.00     0.06   0.01   0.04     0.03   0.01   0.01
  10   1     0.00  -0.00  -0.00     0.08  -0.05  -0.06    -0.00   0.00  -0.00
  11   1     0.00   0.00  -0.00    -0.01  -0.01   0.02    -0.00  -0.02   0.06
  12   1    -0.00   0.00   0.00    -0.61   0.35   0.40     0.02  -0.01  -0.01
  13   1    -0.00  -0.00   0.01     0.06   0.16  -0.48     0.01   0.06  -0.16
  14   1    -0.00   0.00   0.00     0.00  -0.03   0.06    -0.02   0.42  -0.84
  15   1    -0.00  -0.01  -0.00     0.01   0.10   0.01    -0.00  -0.09   0.02
  16   1     0.35  -0.64   0.62     0.00  -0.00   0.00     0.00  -0.00   0.00
  17   1    -0.01   0.02  -0.02    -0.00  -0.00  -0.00    -0.00  -0.00  -0.00
  18   1    -0.05   0.08  -0.08     0.00  -0.00   0.00    -0.00   0.00  -0.00
  19   1    -0.00  -0.01  -0.02    -0.00  -0.00  -0.00     0.00   0.00   0.00
  20   1    -0.02   0.01   0.01     0.00  -0.00  -0.00    -0.00   0.00   0.00
                     49                     50                     51
                        a                      a                      a 
 Frequencies --  3024.0956              3033.4789              3038.9805
 Red. masses --     1.8975                 1.7582                 1.7972
 Frc consts  --     0.0000                 0.0000                 0.0000
 IR Inten    --    92.4089                68.3532                37.6438
 Raman Activ --     0.0000                 0.0000                 0.0000
 Depolar     --     0.0000                 0.0000                 0.0000
 Atom AN      X      Y      Z        X      Y      Z        X      Y      Z
   1   6     0.21  -0.07  -0.17    -0.10   0.10  -0.22     0.00  -0.00   0.00
   2   6     0.04  -0.02  -0.04    -0.00   0.02  -0.03     0.00  -0.00   0.00
   3   6     0.00  -0.00  -0.00    -0.00   0.01  -0.01     0.00  -0.00   0.00
   4   6    -0.00  -0.00   0.00     0.00   0.00  -0.00     0.00   0.00  -0.00
   5   8     0.00   0.00   0.00     0.00  -0.00   0.00    -0.00  -0.00   0.00
   6   8     0.00   0.00  -0.00     0.00  -0.00   0.00    -0.00   0.00  -0.00
   7   6     0.00   0.00   0.00    -0.00   0.00  -0.00    -0.01   0.02  -0.03
   8   6     0.00  -0.00  -0.00    -0.00   0.00  -0.00    -0.10   0.15  -0.19
   9   1    -0.09  -0.03  -0.09     0.22   0.06   0.10    -0.01  -0.00  -0.00
  10   1    -0.67   0.40   0.44     0.17  -0.10  -0.16    -0.00   0.00   0.00
  11   1     0.02  -0.12   0.25    -0.06  -0.32   0.82     0.00   0.00  -0.01
  12   1    -0.12   0.06   0.07     0.02  -0.01  -0.01    -0.00   0.00   0.00
  13   1     0.00  -0.02   0.05    -0.01  -0.03   0.10     0.00   0.00  -0.00
  14   1     0.00  -0.00   0.00     0.00  -0.02   0.05    -0.00   0.00  -0.01
  15   1     0.00   0.02   0.00    -0.00  -0.01  -0.00     0.00  -0.00   0.00
  16   1     0.00  -0.00   0.00     0.00  -0.00   0.00     0.05  -0.08   0.08
  17   1    -0.00  -0.00  -0.00    -0.00  -0.00  -0.00     0.00   0.01   0.02
  18   1    -0.00   0.00  -0.00     0.01  -0.01   0.01     0.36  -0.63   0.61
  19   1     0.00   0.00   0.00    -0.00  -0.00  -0.00    -0.00   0.08   0.09
  20   1    -0.00   0.00   0.00     0.00   0.00  -0.00    -0.00   0.01  -0.03
                     52                     53                     54
                        a                      a                      a 
 Frequencies --  3045.6977              3049.5388              3062.6484
 Red. masses --     1.4961                 1.6304                 1.7462
 Frc consts  --     0.0000                 0.0000                 0.0000
 IR Inten    --    43.5353                26.1868                23.1683
 Raman Activ --     0.0000                 0.0000                 0.0000
 Depolar     --     0.0000                 0.0000                 0.0000
 Atom AN      X      Y      Z        X      Y      Z        X      Y      Z
   1   6     0.17   0.09   0.09     0.00   0.00   0.00    -0.00  -0.00  -0.00
   2   6     0.01  -0.00   0.01     0.00  -0.00   0.00    -0.00   0.00  -0.00
   3   6    -0.00  -0.00   0.00    -0.00  -0.00  -0.00     0.00  -0.00  -0.00
   4   6    -0.00   0.00   0.00    -0.00  -0.00  -0.00    -0.00   0.00  -0.00
   5   8    -0.00  -0.00  -0.00     0.00   0.00   0.00    -0.00   0.00   0.00
   6   8     0.00  -0.00   0.00     0.00   0.00  -0.00     0.00   0.00   0.00
   7   6     0.00   0.00   0.00    -0.01  -0.01  -0.02     0.01  -0.01  -0.00
   8   6     0.00   0.00   0.00    -0.03  -0.13  -0.20     0.22  -0.09  -0.10
   9   1    -0.79  -0.16  -0.44    -0.01  -0.00  -0.00     0.00   0.00   0.00
  10   1     0.18  -0.09  -0.09     0.01  -0.00  -0.00     0.00  -0.00  -0.00
  11   1     0.01  -0.08   0.22    -0.00  -0.00   0.01    -0.00   0.00  -0.00
  12   1    -0.02   0.02   0.02    -0.00   0.00   0.00     0.00  -0.00  -0.00
  13   1     0.00   0.01  -0.03     0.00   0.00  -0.00    -0.00  -0.00   0.00
  14   1    -0.00   0.00  -0.01    -0.00  -0.00   0.00    -0.00  -0.00   0.00
  15   1     0.00   0.00   0.00    -0.00   0.00   0.00    -0.00   0.00   0.00
  16   1    -0.00   0.00  -0.00     0.00  -0.01   0.00    -0.01   0.01  -0.01
  17   1    -0.00  -0.00  -0.00     0.01   0.02   0.05     0.00   0.01   0.01
  18   1    -0.00   0.00  -0.00    -0.05   0.07  -0.11     0.03  -0.02  -0.01
  19   1    -0.00  -0.00  -0.01     0.12   0.42   0.85     0.04   0.01   0.04
  20   1    -0.00   0.00   0.00     0.05  -0.03  -0.05    -0.85   0.32   0.33
