 Entering Gaussian System
 *********************************************
 Gaussian 98:
 frequency output generated by the xtb code
 *********************************************
                         Standard orientation:
 --------------------------------------------------------------------
  Center     Atomic     Atomic              Coordinates (Angstroms)
  Number     Number      Type              X           Y           Z
 --------------------------------------------------------------------
    1          6             0       -3.645278   -0.622347    0.247234
    2          6             0       -2.343933   -0.192048   -0.417091
    3          6             0       -1.184268   -0.197024    0.574847
    4          6             0        0.107611    0.258536   -0.050818
    5          8             0        0.228305    0.688411   -1.178042
    6          8             0        1.119346    0.144827    0.805517
    7          6             0        2.433091    0.531753    0.367938
    8          6             0        3.137514   -0.615495   -0.339903
    9          1             0       -3.901795    0.054932    1.057977
   10          1             0       -4.456532   -0.616875   -0.475288
   11          1             0       -3.552078   -1.626627    0.652858
   12          1             0       -2.449777    0.810881   -0.834615
   13          1             0       -2.107994   -0.862486   -1.245554
   14          1             0       -1.025077   -1.194992    0.986912
   15          1             0       -1.394810    0.469501    1.414179
   16          1             0        2.338963    1.395114   -0.297840
   17          1             0        2.954462    0.813356    1.283283
   18          1             0        4.147847   -0.313862   -0.596149
   19          1             0        3.175811   -1.487350    0.307522
   20          1             0        2.604090   -0.873704   -1.252021
 --------------------------------------------------------------------
     1 basis functions        1 primitive gaussians
     1 alpha electrons        1 beta electrons
 
 Harmonic frequencies (cm**-1), IR intensities (km*mol⁻¹),
 Raman scattering activities (A**4/amu), Raman depolarization ratios,
 reduced masses (AMU), force constants (mDyne/A) and normal coordinates:
                      1                      2                      3
                        a                      a                      a 
 Frequencies --    13.4111                49.5363                61.2726
 Red. masses --     7.2475                 9.8677                 9.8285
 Frc consts  --     0.0000                 0.0000                 0.0000
 IR Inten    --     0.0710                 2.1585                 0.8566
 Raman Activ --     0.0000                 0.0000                 0.0000
 Depolar     --     0.0000                 0.0000                 0.0000
 Atom AN      X      Y      Z        X      Y      Z        X      Y      Z
   1   6     0.03  -0.04  -0.06     0.09  -0.36   0.01     0.12  -0.32  -0.15
   2   6     0.12  -0.40  -0.11    -0.04   0.11   0.05     0.03   0.23   0.04
   3   6    -0.05   0.30   0.10    -0.00   0.14  -0.00    -0.01   0.23   0.09
   4   6    -0.01   0.16   0.08    -0.04   0.21  -0.04     0.05   0.06   0.08
   5   8    -0.00   0.31   0.14    -0.14   0.42   0.01     0.17  -0.30  -0.03
   6   8     0.01  -0.06   0.03     0.02   0.05  -0.16    -0.01   0.29   0.20
   7   6     0.03  -0.13   0.03     0.03  -0.09  -0.19     0.04  -0.03   0.07
   8   6    -0.13  -0.10  -0.18     0.07  -0.37   0.30    -0.36  -0.09  -0.24
   9   1    -0.05   0.14  -0.16    -0.01  -0.18   0.06    -0.02  -0.20   0.02
  10   1     0.05  -0.16  -0.06     0.01  -0.10   0.02     0.04  -0.08  -0.05
  11   1     0.00   0.07   0.18     0.10  -0.13  -0.08     0.10  -0.13  -0.15
  12   1     0.04  -0.20  -0.22    -0.09   0.05   0.08    -0.06   0.09   0.09
  13   1     0.09  -0.27   0.11     0.02   0.10  -0.03     0.07   0.15  -0.04
  14   1     0.00   0.16   0.21     0.02   0.04  -0.01    -0.03   0.07   0.04
  15   1    -0.09   0.22  -0.10     0.00   0.03   0.01     0.00   0.08   0.02
  16   1     0.03  -0.01   0.05     0.02  -0.10  -0.15     0.05   0.03   0.07
  17   1     0.03  -0.10   0.01    -0.00   0.08  -0.08     0.06  -0.10   0.02
  18   1    -0.03  -0.05  -0.05     0.02  -0.14   0.07    -0.09  -0.09  -0.09
  19   1    -0.06  -0.06  -0.09     0.01  -0.03   0.19    -0.15  -0.07  -0.12
  20   1    -0.06   0.03  -0.06     0.03  -0.21   0.11    -0.16   0.07  -0.06
                      4                      5                      6
                        a                      a                      a 
 Frequencies --   121.7620               134.7245               210.2603
 Red. masses --     9.7589                 9.1665                 3.3286
 Frc consts  --     0.0000                 0.0000                 0.0000
 IR Inten    --     5.3408                 2.5315                 3.1165
 Raman Activ --     0.0000                 0.0000                 0.0000
 Depolar     --     0.0000                 0.0000                 0.0000
 Atom AN      X      Y      Z        X      Y      Z        X      Y      Z
   1   6     0.02   0.17  -0.10     0.08  -0.05   0.40    -0.05   0.02  -0.12
   2   6     0.16  -0.18  -0.05    -0.13  -0.10  -0.07     0.07  -0.02   0.10
   3   6     0.14  -0.42  -0.02     0.06  -0.08  -0.32     0.03  -0.04   0.16
   4   6     0.03   0.05   0.10     0.05   0.09  -0.23    -0.04   0.00   0.03
   5   8    -0.08   0.14   0.14     0.24   0.18  -0.22    -0.26  -0.06  -0.01
   6   8     0.05   0.39   0.14    -0.14   0.13  -0.03     0.06   0.10  -0.10
   7   6     0.03   0.11  -0.14     0.02  -0.06   0.29     0.08   0.03  -0.06
   8   6    -0.33  -0.20  -0.00    -0.17  -0.05   0.08     0.09  -0.03   0.02
   9   1     0.04   0.08  -0.04     0.10   0.01   0.12    -0.04  -0.00  -0.03
  10   1     0.02   0.10  -0.04    -0.05  -0.04   0.20     0.02   0.04  -0.07
  11   1    -0.07   0.05  -0.01     0.07  -0.00   0.14    -0.05  -0.00  -0.05
  12   1     0.12  -0.04  -0.02    -0.07  -0.04  -0.03     0.05  -0.00   0.03
  13   1     0.01  -0.07  -0.01    -0.11  -0.05  -0.03     0.04  -0.00   0.03
  14   1     0.09  -0.17  -0.13     0.06  -0.03  -0.13     0.02  -0.01   0.04
  15   1     0.01  -0.24   0.08     0.03  -0.07  -0.06     0.01  -0.01   0.05
  16   1     0.01  -0.01  -0.09     0.10   0.04   0.15     0.06   0.01  -0.01
  17   1     0.06   0.06  -0.08    -0.02  -0.13   0.13     0.01  -0.01  -0.00
  18   1    -0.10  -0.14  -0.09     0.01  -0.10   0.15     0.20  -0.20   0.47
  19   1    -0.10  -0.01   0.06    -0.20  -0.09  -0.06    -0.44  -0.14  -0.15
  20   1    -0.17  -0.10   0.05     0.01   0.14  -0.05     0.33   0.30  -0.25
                      7                      8                      9
                        a                      a                      a 
 Frequencies --   229.7578               297.3903               326.4695
 Red. masses --     1.7636                 9.5298                11.0220
 Frc consts  --     0.0000                 0.0000                 0.0000
 IR Inten    --     0.2675                17.9697                 5.9144
 Raman Activ --     0.0000                 0.0000                 0.0000
 Depolar     --     0.0000                 0.0000                 0.0000
 Atom AN      X      Y      Z        X      Y      Z        X      Y      Z
   1   6     0.01  -0.04  -0.01    -0.10   0.01  -0.10    -0.53  -0.10  -0.05
   2   6    -0.05   0.22   0.05     0.06  -0.05   0.18    -0.35  -0.13   0.13
   3   6     0.02  -0.11  -0.03     0.09  -0.04   0.14    -0.08  -0.02  -0.07
   4   6     0.00  -0.02   0.00    -0.05   0.10  -0.14     0.08   0.09   0.05
   5   8    -0.01  -0.02   0.00    -0.41  -0.02  -0.25     0.38   0.05   0.07
   6   8     0.01  -0.00   0.00    -0.02   0.22  -0.19     0.14   0.23   0.11
   7   6     0.00  -0.00  -0.01     0.26  -0.15   0.34     0.19  -0.04  -0.09
   8   6     0.01  -0.00  -0.00     0.13  -0.04   0.01     0.21  -0.05  -0.10
   9   1    -0.31   0.25  -0.32    -0.08  -0.00  -0.04    -0.20  -0.03  -0.03
  10   1     0.11  -0.54  -0.13     0.03   0.03  -0.09    -0.10   0.00  -0.08
  11   1     0.22   0.18   0.43    -0.08  -0.01  -0.04    -0.21  -0.04  -0.03
  12   1    -0.03   0.09   0.09     0.04  -0.01   0.05    -0.12  -0.04   0.03
  13   1    -0.01   0.13  -0.04     0.03  -0.01   0.05    -0.12  -0.04   0.04
  14   1     0.00  -0.08  -0.12     0.07  -0.02   0.01     0.01  -0.01  -0.04
  15   1     0.04  -0.12   0.07     0.05  -0.03   0.06    -0.02  -0.03   0.01
  16   1    -0.00  -0.00  -0.00     0.23   0.06   0.21     0.07  -0.02  -0.04
  17   1     0.00   0.00  -0.00     0.02  -0.23   0.19     0.08  -0.01  -0.04
  18   1     0.01  -0.00   0.01    -0.03   0.07  -0.18     0.06   0.00  -0.01
  19   1    -0.01  -0.00  -0.00     0.22  -0.01  -0.01     0.07  -0.02  -0.04
  20   1     0.01   0.00  -0.01    -0.10  -0.05   0.09     0.08  -0.02  -0.04
                     10                     11                     12
                        a                      a                      a 
 Frequencies --   373.8703               456.9022               574.7784
 Red. masses --    10.4343                10.4644                 9.5225
 Frc consts  --     0.0000                 0.0000                 0.0000
 IR Inten    --     2.3992                 1.5787                14.9569
 Raman Activ --     0.0000                 0.0000                 0.0000
 Depolar     --     0.0000                 0.0000                 0.0000
 Atom AN      X      Y      Z        X      Y      Z        X      Y      Z
   1   6    -0.19  -0.02  -0.11     0.09   0.03  -0.03    -0.01  -0.01   0.01
   2   6     0.08  -0.05   0.37     0.19  -0.05   0.19    -0.02  -0.04  -0.05
   3   6     0.24   0.01   0.15     0.11  -0.02   0.13    -0.06   0.13   0.04
   4   6     0.12  -0.08  -0.23    -0.14   0.26  -0.06    -0.10   0.59   0.23
   5   8     0.26   0.14  -0.17     0.25   0.01  -0.13     0.05  -0.26  -0.08
   6   8     0.01  -0.30  -0.20    -0.41   0.14   0.13     0.14  -0.33  -0.16
   7   6    -0.13   0.19   0.04    -0.37  -0.31  -0.09     0.08   0.09   0.02
   8   6    -0.31   0.07   0.13     0.16  -0.03  -0.10    -0.06   0.04   0.04
   9   1    -0.15  -0.02  -0.05     0.00   0.01  -0.02     0.02  -0.00   0.01
  10   1     0.05   0.03  -0.15     0.06   0.04  -0.05    -0.02   0.01   0.02
  11   1    -0.14  -0.02  -0.05    -0.02   0.00  -0.02    -0.01  -0.01  -0.00
  12   1     0.04  -0.01   0.11     0.08  -0.01   0.04    -0.03  -0.05  -0.09
  13   1     0.04  -0.00   0.10     0.08  -0.02   0.06     0.03  -0.07   0.04
  14   1     0.10   0.03   0.09     0.15  -0.03  -0.07     0.17  -0.07  -0.30
  15   1     0.16   0.06   0.02     0.03  -0.11   0.12    -0.15  -0.27   0.22
  16   1    -0.07   0.05   0.01    -0.11  -0.11  -0.06    -0.01   0.03   0.02
  17   1    -0.06   0.08   0.02    -0.08  -0.04  -0.05     0.00   0.03   0.02
  18   1    -0.07  -0.08  -0.00     0.01   0.19   0.08    -0.00  -0.08  -0.03
  19   1    -0.15   0.05   0.08     0.15  -0.04  -0.08    -0.07   0.03   0.04
  20   1    -0.14   0.02   0.07     0.18  -0.04  -0.09    -0.07   0.02   0.04
                     13                     14                     15
                        a                      a                      a 
 Frequencies --   676.4927               773.8182               818.5012
 Red. masses --    11.7635                 3.1264                 3.3454
 Frc consts  --     0.0000                 0.0000                 0.0000
 IR Inten    --    10.9487                33.9060                 9.7470
 Raman Activ --     0.0000                 0.0000                 0.0000
 Depolar     --     0.0000                 0.0000                 0.0000
 Atom AN      X      Y      Z        X      Y      Z        X      Y      Z
   1   6    -0.12  -0.03   0.02    -0.00  -0.02  -0.00     0.03   0.01  -0.02
   2   6    -0.03  -0.01   0.02     0.04  -0.21  -0.05    -0.01   0.00   0.00
   3   6     0.34   0.17  -0.31     0.04  -0.18  -0.05    -0.15  -0.07   0.14
   4   6     0.30   0.11  -0.00    -0.05   0.28   0.09    -0.09  -0.01  -0.10
   5   8    -0.41  -0.04  -0.16     0.02  -0.08  -0.04     0.07   0.06  -0.10
   6   8     0.13  -0.13   0.45     0.01  -0.06  -0.02    -0.07  -0.00  -0.00
   7   6    -0.10  -0.10   0.09     0.00  -0.00   0.01     0.21  -0.01   0.23
   8   6    -0.03   0.01  -0.00     0.00   0.00   0.00     0.09  -0.05   0.06
   9   1    -0.08  -0.02  -0.00     0.14   0.16  -0.09     0.03   0.00   0.00
  10   1     0.01   0.01  -0.05    -0.02   0.08   0.02    -0.02  -0.01   0.03
  11   1    -0.08  -0.02  -0.01    -0.19   0.04   0.14     0.04   0.01  -0.00
  12   1    -0.06  -0.02  -0.02    -0.06   0.14   0.46     0.03   0.00  -0.00
  13   1    -0.06  -0.02   0.00    -0.04   0.34  -0.34     0.03  -0.00   0.01
  14   1     0.12   0.05  -0.10     0.12   0.10   0.30    -0.05  -0.02   0.03
  15   1     0.11   0.03  -0.06    -0.19   0.17  -0.23    -0.04  -0.02   0.04
  16   1    -0.18  -0.13  -0.09    -0.01  -0.01  -0.01    -0.07  -0.30  -0.31
  17   1     0.07   0.16  -0.09     0.00   0.02  -0.00    -0.04   0.48  -0.04
  18   1    -0.02   0.06   0.02     0.00  -0.01  -0.00    -0.02  -0.04  -0.17
  19   1     0.02  -0.04  -0.07    -0.00  -0.00  -0.01     0.06  -0.24  -0.30
  20   1     0.01   0.05  -0.02    -0.01   0.01   0.00    -0.22   0.36   0.05
                     16                     17                     18
                        a                      a                      a 
 Frequencies --   881.5137               895.8448               925.1113
 Red. masses --     3.7835                10.0615                 8.2493
 Frc consts  --     0.0000                 0.0000                 0.0000
 IR Inten    --     3.3226                13.9281                 6.4416
 Raman Activ --     0.0000                 0.0000                 0.0000
 Depolar     --     0.0000                 0.0000                 0.0000
 Atom AN      X      Y      Z        X      Y      Z        X      Y      Z
   1   6    -0.04   0.15   0.04     0.10   0.03  -0.00     0.22   0.01   0.12
   2   6    -0.02   0.13   0.03     0.03  -0.02   0.11     0.07  -0.03   0.21
   3   6     0.08  -0.31  -0.09    -0.12  -0.03  -0.03     0.07   0.14  -0.44
   4   6    -0.05   0.26   0.10    -0.15   0.02  -0.14    -0.18  -0.07   0.16
   5   8     0.02  -0.07  -0.02    -0.01   0.06  -0.18    -0.00  -0.12   0.32
   6   8     0.01  -0.04  -0.04    -0.34  -0.18   0.42    -0.16   0.05  -0.21
   7   6    -0.01  -0.01   0.00     0.28   0.25  -0.04     0.04   0.05  -0.02
   8   6    -0.00   0.00   0.01     0.25  -0.05  -0.20     0.07  -0.03   0.02
   9   1    -0.29  -0.24   0.15    -0.02  -0.01  -0.01    -0.18  -0.01  -0.04
  10   1     0.04  -0.15  -0.04     0.07   0.02  -0.05     0.33   0.14  -0.28
  11   1     0.33  -0.02  -0.21     0.00  -0.00  -0.02    -0.20  -0.05  -0.03
  12   1     0.32   0.02  -0.11     0.02  -0.00   0.03    -0.13  -0.03   0.03
  13   1    -0.29  -0.15   0.07     0.00  -0.01   0.03    -0.10  -0.03   0.03
  14   1     0.05   0.06   0.29    -0.00   0.00   0.01     0.00   0.03  -0.12
  15   1    -0.10   0.16  -0.24    -0.01   0.01  -0.01     0.02   0.03  -0.11
  16   1     0.00  -0.01  -0.00    -0.11   0.13   0.11     0.08  -0.01  -0.05
  17   1    -0.01   0.00   0.00     0.13   0.01  -0.03    -0.13   0.04   0.07
  18   1    -0.00   0.01   0.00     0.15  -0.35  -0.13     0.01  -0.06  -0.08
  19   1     0.00  -0.00  -0.00    -0.15   0.12   0.15     0.00  -0.06  -0.07
  20   1    -0.00   0.01   0.00    -0.02  -0.13   0.03    -0.08   0.10   0.03
                     19                     20                     21
                        a                      a                      a 
 Frequencies --   978.4113              1052.5469              1067.5588
 Red. masses --     7.7781                 8.7698                 4.2280
 Frc consts  --     0.0000                 0.0000                 0.0000
 IR Inten    --     5.8909                23.7185                10.2933
 Raman Activ --     0.0000                 0.0000                 0.0000
 Depolar     --     0.0000                 0.0000                 0.0000
 Atom AN      X      Y      Z        X      Y      Z        X      Y      Z
   1   6     0.29   0.05   0.07    -0.03   0.00  -0.07    -0.03   0.13   0.03
   2   6    -0.03  -0.05   0.17    -0.01  -0.01   0.05     0.04  -0.19  -0.05
   3   6    -0.41  -0.09   0.02     0.07   0.03  -0.11    -0.04   0.31   0.07
   4   6     0.08   0.04  -0.11    -0.23  -0.02  -0.01     0.02  -0.33  -0.12
   5   8     0.01   0.09  -0.26     0.01  -0.03   0.07    -0.02   0.05   0.04
   6   8     0.28  -0.03   0.13    -0.25  -0.13   0.08     0.00   0.04   0.03
   7   6     0.04  -0.11  -0.00     0.53  -0.11  -0.23     0.02   0.00  -0.01
   8   6    -0.19   0.07   0.06    -0.30   0.19   0.18    -0.01   0.00   0.01
   9   1    -0.12  -0.00  -0.03     0.07   0.01  -0.00    -0.14  -0.10   0.07
  10   1     0.29   0.11  -0.22    -0.08  -0.03   0.06     0.02  -0.07  -0.02
  11   1    -0.10  -0.03  -0.05     0.06   0.02   0.01     0.15   0.00  -0.10
  12   1    -0.08  -0.02   0.04     0.03   0.00   0.01     0.16   0.05   0.18
  13   1    -0.09  -0.03   0.04     0.05   0.00   0.02    -0.19   0.06  -0.15
  14   1    -0.24  -0.05  -0.01     0.13   0.03  -0.00     0.50   0.09  -0.12
  15   1    -0.26  -0.05  -0.01     0.17   0.04  -0.01    -0.45  -0.18   0.10
  16   1    -0.01  -0.04  -0.01     0.16  -0.07  -0.11     0.01   0.00  -0.00
  17   1     0.17  -0.03  -0.09     0.23  -0.06  -0.11    -0.00  -0.00   0.00
  18   1    -0.07   0.21   0.14    -0.12   0.30   0.16    -0.01   0.01   0.00
  19   1     0.05   0.03   0.03     0.07   0.04   0.01     0.01  -0.00  -0.00
  20   1     0.09  -0.05  -0.04     0.06   0.05  -0.03     0.00   0.01  -0.00
                     22                     23                     24
                        a                      a                      a 
 Frequencies --  1087.8338              1095.6523              1132.7453
 Red. masses --     8.8356                 7.6370                10.4267
 Frc consts  --     0.0000                 0.0000                 0.0000
 IR Inten    --    49.3367                17.1497               311.6386
 Raman Activ --     0.0000                 0.0000                 0.0000
 Depolar     --     0.0000                 0.0000                 0.0000
 Atom AN      X      Y      Z        X      Y      Z        X      Y      Z
   1   6    -0.33  -0.15   0.35    -0.04  -0.01   0.02     0.16   0.05  -0.05
   2   6     0.50   0.16  -0.25     0.06   0.02  -0.00    -0.26  -0.04  -0.08
   3   6    -0.02  -0.01   0.02    -0.01   0.01  -0.03     0.12  -0.03   0.25
   4   6     0.17   0.00   0.03    -0.02   0.00   0.01     0.56   0.05   0.12
   5   8    -0.01   0.02  -0.04     0.00  -0.01   0.01    -0.05   0.01  -0.04
   6   8    -0.20  -0.02  -0.02    -0.05  -0.11  -0.02    -0.42  -0.07  -0.01
   7   6     0.12  -0.04  -0.08     0.02   0.54   0.19     0.11   0.09  -0.24
   8   6    -0.03   0.06   0.03    -0.11  -0.47  -0.13     0.00  -0.03   0.09
   9   1    -0.24  -0.06   0.06    -0.01  -0.00   0.01     0.00   0.01  -0.03
  10   1     0.02   0.01  -0.04    -0.01  -0.00   0.01     0.07   0.03  -0.06
  11   1    -0.24  -0.07   0.06    -0.01  -0.00   0.01     0.02   0.00  -0.03
  12   1     0.17   0.05  -0.07     0.03   0.01  -0.00    -0.18  -0.03  -0.02
  13   1     0.16   0.05  -0.06     0.04   0.01   0.00    -0.20  -0.03  -0.04
  14   1    -0.21  -0.05  -0.04     0.01   0.00  -0.01    -0.09  -0.04   0.04
  15   1    -0.22  -0.03  -0.03    -0.01   0.00  -0.01    -0.09  -0.03   0.05
  16   1     0.02  -0.02  -0.03     0.04   0.12   0.02     0.13   0.05  -0.02
  17   1    -0.00  -0.02  -0.00     0.04   0.11   0.04    -0.18  -0.09   0.09
  18   1    -0.01   0.01   0.00    -0.09   0.29   0.15    -0.03   0.04  -0.03
  19   1    -0.01   0.02   0.02     0.27  -0.19  -0.15     0.05  -0.07  -0.08
  20   1    -0.01   0.02   0.01     0.25  -0.16  -0.18    -0.03   0.10   0.01
                     25                     26                     27
                        a                      a                      a 
 Frequencies --  1136.9557              1163.2980              1205.7363
 Red. masses --     7.3593                 7.9686                 4.6676
 Frc consts  --     0.0000                 0.0000                 0.0000
 IR Inten    --    52.0851               137.9467                 0.2484
 Raman Activ --     0.0000                 0.0000                 0.0000
 Depolar     --     0.0000                 0.0000                 0.0000
 Atom AN      X      Y      Z        X      Y      Z        X      Y      Z
   1   6     0.09  -0.03   0.19    -0.01  -0.03   0.09     0.06  -0.30  -0.08
   2   6    -0.17   0.09  -0.45     0.02   0.06  -0.14    -0.09   0.43   0.12
   3   6     0.26  -0.04   0.34    -0.01  -0.03   0.06     0.05  -0.13  -0.03
   4   6    -0.24  -0.03  -0.06    -0.28  -0.00  -0.11     0.02  -0.08  -0.02
   5   8     0.04   0.00   0.02     0.01   0.04  -0.12    -0.00   0.01   0.00
   6   8     0.02   0.02  -0.05     0.24  -0.09   0.32    -0.01   0.01   0.00
   7   6     0.06  -0.04   0.16    -0.17   0.13  -0.35     0.01  -0.00   0.00
   8   6    -0.04   0.02  -0.09     0.10  -0.09   0.26    -0.00   0.00  -0.00
   9   1    -0.18  -0.01  -0.02    -0.07  -0.00  -0.00     0.23   0.16  -0.14
  10   1     0.21   0.09  -0.17     0.06   0.03  -0.05    -0.04   0.14   0.04
  11   1    -0.19  -0.05  -0.03    -0.08  -0.02   0.00    -0.24  -0.01   0.18
  12   1    -0.20  -0.00  -0.14     0.01   0.01  -0.04     0.09   0.00  -0.25
  13   1    -0.19  -0.02  -0.12     0.02   0.00  -0.02    -0.07  -0.15   0.22
  14   1     0.16   0.01   0.11     0.11   0.02   0.05     0.34   0.07   0.13
  15   1     0.17   0.01   0.10     0.11   0.01   0.03    -0.40  -0.03  -0.12
  16   1    -0.11  -0.06  -0.01     0.24   0.18   0.07     0.00  -0.00  -0.00
  17   1     0.15   0.09  -0.07    -0.12  -0.25   0.05    -0.01   0.01   0.00
  18   1     0.01   0.00   0.06    -0.04   0.04  -0.12     0.00  -0.00   0.00
  19   1    -0.02   0.07   0.07     0.07  -0.22  -0.21    -0.00   0.01   0.01
  20   1     0.06  -0.10  -0.03    -0.14   0.27   0.07     0.00  -0.00  -0.00
                     28                     29                     30
                        a                      a                      a 
 Frequencies --  1250.5245              1261.7803              1274.3773
 Red. masses --     2.7853                 2.0834                 5.2061
 Frc consts  --     0.0000                 0.0000                 0.0000
 IR Inten    --     7.5313                 3.6833                92.6195
 Raman Activ --     0.0000                 0.0000                 0.0000
 Depolar     --     0.0000                 0.0000                 0.0000
 Atom AN      X      Y      Z        X      Y      Z        X      Y      Z
   1   6     0.01  -0.02   0.05    -0.05   0.21   0.02     0.03   0.00   0.15
   2   6    -0.03   0.00  -0.05     0.02   0.03   0.03    -0.19   0.00  -0.10
   3   6    -0.12  -0.02  -0.00     0.12  -0.17  -0.03    -0.42  -0.11  -0.06
   4   6    -0.01   0.01  -0.02    -0.04  -0.03  -0.02     0.29   0.02   0.08
   5   8    -0.01   0.02  -0.06     0.01   0.01  -0.01    -0.03  -0.02   0.03
   6   8     0.10  -0.06   0.18     0.01  -0.00   0.03    -0.07   0.04  -0.11
   7   6     0.06  -0.04   0.03     0.00  -0.00   0.00     0.03  -0.02  -0.02
   8   6    -0.10   0.07  -0.22    -0.01   0.01  -0.01     0.01  -0.03   0.04
   9   1    -0.02   0.01  -0.01    -0.12  -0.09   0.09    -0.07   0.01  -0.00
  10   1     0.04   0.02  -0.03    -0.01  -0.06   0.01     0.14   0.05  -0.11
  11   1    -0.03  -0.01  -0.00     0.16   0.02  -0.10    -0.02  -0.03  -0.04
  12   1     0.09   0.02   0.01    -0.62  -0.11  -0.11     0.20   0.04   0.00
  13   1     0.05   0.01  -0.00     0.52   0.07   0.10     0.40   0.06   0.05
  14   1     0.11   0.02   0.01     0.14   0.02   0.11     0.44   0.08   0.04
  15   1     0.13   0.02   0.02    -0.30  -0.02  -0.11     0.32   0.09   0.00
  16   1     0.44  -0.15  -0.23     0.05  -0.01  -0.02    -0.22   0.04   0.09
  17   1    -0.57   0.18   0.28    -0.03   0.01   0.02     0.04  -0.03  -0.02
  18   1     0.02  -0.00   0.09     0.00  -0.00   0.00    -0.01   0.01  -0.01
  19   1    -0.05   0.17   0.15    -0.00   0.01   0.01     0.01  -0.03  -0.02
  20   1     0.09  -0.19  -0.06     0.01  -0.01  -0.00    -0.01   0.04   0.01
                     31                     32                     33
                        a                      a                      a 
 Frequencies --  1314.2414              1352.7155              1393.6952
 Red. masses --     3.4265                 5.4388                 3.1114
 Frc consts  --     0.0000                 0.0000                 0.0000
 IR Inten    --     6.2280                37.8940                 5.4160
 Raman Activ --     0.0000                 0.0000                 0.0000
 Depolar     --     0.0000                 0.0000                 0.0000
 Atom AN      X      Y      Z        X      Y      Z        X      Y      Z
   1   6    -0.01   0.00  -0.02    -0.04   0.02  -0.10    -0.00   0.00  -0.00
   2   6     0.06   0.01   0.02     0.47   0.09   0.04     0.00   0.00  -0.00
   3   6     0.04   0.00   0.00    -0.36  -0.09   0.04    -0.01  -0.00   0.00
   4   6    -0.10  -0.00  -0.01     0.12   0.02   0.02     0.03  -0.00   0.00
   5   8     0.01   0.01  -0.03    -0.02  -0.01   0.01    -0.00  -0.00   0.01
   6   8     0.11   0.08   0.03    -0.01   0.00  -0.02    -0.04  -0.02  -0.01
   7   6     0.32  -0.13  -0.17    -0.03   0.01   0.01    -0.08  -0.02   0.02
   8   6    -0.07  -0.13   0.01     0.00   0.01   0.00     0.24  -0.30  -0.19
   9   1     0.01  -0.01   0.00    -0.02  -0.07   0.04    -0.00  -0.00   0.00
  10   1    -0.03  -0.01   0.02    -0.12  -0.05   0.10    -0.00  -0.00   0.00
  11   1     0.00   0.01   0.01    -0.04   0.03   0.07    -0.00   0.00   0.00
  12   1    -0.06  -0.01  -0.00    -0.44  -0.05  -0.03    -0.01  -0.00  -0.00
  13   1    -0.07  -0.01  -0.01    -0.42  -0.11  -0.03    -0.00  -0.00   0.00
  14   1    -0.04  -0.01   0.00     0.29   0.01  -0.07     0.01  -0.00  -0.01
  15   1    -0.02  -0.01  -0.00     0.24   0.14  -0.04     0.00   0.01  -0.00
  16   1    -0.58   0.16   0.29     0.02  -0.02  -0.02     0.18   0.07   0.06
  17   1    -0.46   0.12   0.22     0.02  -0.02  -0.01     0.10   0.12  -0.10
  18   1    -0.06   0.16   0.08     0.01  -0.02  -0.01    -0.07   0.47   0.17
  19   1     0.03   0.01   0.05     0.00  -0.00  -0.01    -0.31   0.21   0.33
  20   1    -0.02   0.09  -0.02     0.01  -0.01   0.00    -0.36   0.31   0.11
                     34                     35                     36
                        a                      a                      a 
 Frequencies --  1410.9436              1425.4126              1429.8989
 Red. masses --     3.2218                 2.0834                 2.0200
 Frc consts  --     0.0000                 0.0000                 0.0000
 IR Inten    --     1.4308                25.9090                 2.0992
 Raman Activ --     0.0000                 0.0000                 0.0000
 Depolar     --     0.0000                 0.0000                 0.0000
 Atom AN      X      Y      Z        X      Y      Z        X      Y      Z
   1   6    -0.39  -0.12   0.16     0.03   0.01  -0.00     0.01   0.00  -0.00
   2   6     0.10   0.02   0.02    -0.09  -0.02   0.00    -0.02  -0.00   0.00
   3   6    -0.02  -0.01   0.03     0.07  -0.05   0.27     0.02  -0.00   0.04
   4   6    -0.01  -0.00  -0.00    -0.04   0.01  -0.03    -0.04  -0.01   0.02
   5   8     0.00   0.00  -0.00     0.00  -0.01   0.03     0.00   0.01  -0.03
   6   8     0.00  -0.00   0.00     0.01  -0.01   0.02     0.05   0.02   0.01
   7   6    -0.00   0.00   0.00    -0.00  -0.04  -0.02     0.06   0.25   0.08
   8   6     0.00  -0.00  -0.00    -0.01   0.01   0.01     0.07  -0.06  -0.05
   9   1     0.44   0.26  -0.06    -0.01  -0.01   0.01    -0.00  -0.00   0.00
  10   1     0.30   0.15  -0.37     0.01   0.00  -0.00    -0.00  -0.00   0.00
  11   1     0.49  -0.02  -0.13    -0.01   0.00   0.01    -0.01   0.00   0.00
  12   1    -0.08  -0.03  -0.06     0.07   0.00   0.00     0.01   0.00   0.00
  13   1    -0.10   0.02  -0.05     0.06   0.02   0.00     0.01   0.00   0.00
  14   1     0.01  -0.01  -0.02     0.06  -0.25  -0.61     0.01  -0.04  -0.09
  15   1     0.00   0.03  -0.01    -0.10   0.50  -0.41    -0.02   0.07  -0.06
  16   1    -0.00  -0.00  -0.00     0.04   0.06   0.07    -0.31  -0.37  -0.45
  17   1    -0.00  -0.01   0.00    -0.01   0.09  -0.03    -0.03  -0.60   0.22
  18   1     0.00  -0.00   0.00     0.00  -0.02  -0.01    -0.01   0.11   0.04
  19   1    -0.00   0.00   0.00     0.02  -0.01  -0.01    -0.08   0.05   0.08
  20   1    -0.00   0.00   0.00     0.02  -0.00  -0.01    -0.09   0.07   0.03
                     37                     38                     39
                        a                      a                      a 
 Frequencies --  1470.9577              1485.2393              1494.9701
 Red. masses --     1.5111                 1.5726                 1.5835
 Frc consts  --     0.0000                 0.0000                 0.0000
 IR Inten    --     6.1912                 2.1787                 2.3842
 Raman Activ --     0.0000                 0.0000                 0.0000
 Depolar     --     0.0000                 0.0000                 0.0000
 Atom AN      X      Y      Z        X      Y      Z        X      Y      Z
   1   6     0.00  -0.00   0.00    -0.00   0.00  -0.00    -0.04   0.02  -0.15
   2   6    -0.00  -0.00  -0.00    -0.00  -0.00   0.01    -0.05  -0.05   0.15
   3   6     0.00   0.00   0.00     0.00   0.00   0.00    -0.01  -0.00   0.01
   4   6     0.00  -0.00   0.01     0.00  -0.00  -0.00     0.00  -0.00   0.01
   5   8     0.00   0.00  -0.01     0.00  -0.00   0.00     0.00   0.00  -0.01
   6   8    -0.00  -0.00   0.00    -0.00  -0.00   0.00     0.00  -0.00   0.00
   7   6    -0.03   0.01  -0.04     0.05   0.01  -0.02    -0.00  -0.00   0.00
   8   6    -0.09   0.03  -0.19     0.14   0.16  -0.04    -0.00  -0.00   0.00
   9   1    -0.00  -0.00  -0.00     0.00  -0.01   0.01     0.09  -0.35   0.32
  10   1    -0.00   0.00   0.00     0.00  -0.00  -0.00     0.13   0.07  -0.15
  11   1     0.00   0.00   0.00    -0.00   0.00   0.01    -0.01   0.19   0.45
  12   1     0.00   0.00   0.00     0.00  -0.01  -0.02     0.10  -0.17  -0.42
  13   1     0.00  -0.00   0.00     0.00   0.01  -0.01    -0.01   0.36  -0.29
  14   1    -0.00  -0.00  -0.00     0.00  -0.00  -0.01     0.01   0.01   0.02
  15   1    -0.00   0.00  -0.00    -0.00   0.00  -0.00     0.01  -0.01   0.02
  16   1     0.00   0.02   0.01    -0.03   0.02   0.02     0.00  -0.00  -0.00
  17   1     0.02  -0.03  -0.02    -0.03   0.02   0.01     0.00  -0.00  -0.00
  18   1     0.23  -0.28   0.60     0.02   0.21   0.25    -0.00  -0.01  -0.01
  19   1     0.53   0.04   0.01    -0.33  -0.29  -0.39     0.01   0.01   0.01
  20   1    -0.38   0.11   0.17    -0.28  -0.55   0.33     0.01   0.02  -0.01
                     40                     41                     42
                        a                      a                      a 
 Frequencies --  1497.2240              1498.8491              1704.9051
 Red. masses --     1.5275                 1.8980                13.3110
 Frc consts  --     0.0000                 0.0000                 0.0000
 IR Inten    --     2.5028                 0.0572               660.6345
 Raman Activ --     0.0000                 0.0000                 0.0000
 Depolar     --     0.0000                 0.0000                 0.0000
 Atom AN      X      Y      Z        X      Y      Z        X      Y      Z
   1   6     0.04  -0.20  -0.05     0.08  -0.02   0.12     0.00  -0.00   0.01
   2   6     0.01  -0.04  -0.02     0.03  -0.05   0.23     0.00   0.00  -0.00
   3   6     0.00   0.00  -0.00    -0.03  -0.01   0.01    -0.05  -0.03   0.04
   4   6    -0.00   0.00   0.00     0.01  -0.00   0.01     0.13   0.29  -0.73
   5   8     0.00  -0.00  -0.00     0.00   0.00  -0.01    -0.07  -0.21   0.55
   6   8     0.00  -0.00  -0.00     0.00   0.00  -0.00     0.02  -0.02   0.05
   7   6     0.00   0.00  -0.00    -0.00  -0.00   0.00     0.01   0.01  -0.02
   8   6     0.00   0.00  -0.00    -0.00  -0.00  -0.00    -0.00  -0.01   0.00
   9   1    -0.43   0.03  -0.17    -0.15   0.30  -0.29    -0.00   0.00  -0.00
  10   1    -0.14   0.68   0.16    -0.16  -0.05   0.19     0.00   0.00  -0.00
  11   1     0.40   0.12   0.23    -0.02  -0.16  -0.39    -0.00  -0.00  -0.00
  12   1    -0.02   0.00   0.04     0.05  -0.19  -0.45     0.01  -0.00  -0.01
  13   1     0.02  -0.01   0.00    -0.07   0.37  -0.31     0.01   0.01  -0.01
  14   1    -0.01  -0.00  -0.00     0.02   0.00  -0.00    -0.05   0.00   0.03
  15   1     0.01  -0.00   0.00     0.02   0.01  -0.00    -0.03  -0.03   0.02
  16   1    -0.00  -0.00  -0.00    -0.00  -0.00   0.00    -0.02  -0.01  -0.02
  17   1    -0.00  -0.00   0.00     0.00   0.00  -0.00    -0.02  -0.03   0.02
  18   1    -0.00   0.00   0.00     0.00  -0.00  -0.00    -0.00   0.01   0.00
  19   1    -0.00  -0.00  -0.00     0.00   0.00   0.00     0.00   0.00   0.00
  20   1    -0.00  -0.00   0.00     0.00   0.00  -0.00    -0.01   0.01   0.00
                     43                     44                     45
                        a                      a                      a 
 Frequencies --  2945.4352              2965.1632              2979.2066
 Red. masses --     1.7187                 1.9077                 1.9326
 Frc consts  --     0.0000                 0.0000                 0.0000
 IR Inten    --    30.3656                 0.5088                58.1362
 Raman Activ --     0.0000                 0.0000                 0.0000
 Depolar     --     0.0000                 0.0000                 0.0000
 Atom AN      X      Y      Z        X      Y      Z        X      Y      Z
   1   6     0.00   0.00  -0.00    -0.00   0.01  -0.00     0.00  -0.02  -0.01
   2   6    -0.00  -0.00   0.00     0.02  -0.10  -0.03    -0.05   0.25   0.06
   3   6    -0.00  -0.00   0.00    -0.06   0.23   0.12    -0.02   0.06   0.09
   4   6    -0.00  -0.00  -0.00    -0.00   0.01   0.00    -0.00   0.00   0.00
   5   8    -0.00  -0.00   0.00     0.00   0.00  -0.00     0.00   0.00  -0.00
   6   8     0.01   0.01  -0.01    -0.00  -0.00  -0.00    -0.00  -0.00  -0.00
   7   6    -0.03   0.20  -0.15    -0.00  -0.00   0.00     0.00  -0.00   0.00
   8   6    -0.00  -0.01   0.01    -0.00  -0.00   0.00     0.00  -0.00   0.00
   9   1    -0.00   0.00   0.00     0.01  -0.01  -0.01    -0.02   0.04   0.06
  10   1    -0.00   0.00  -0.00     0.00   0.00   0.00     0.01  -0.00   0.00
  11   1     0.00  -0.00   0.00     0.00  -0.02   0.01    -0.00   0.05  -0.03
  12   1    -0.00   0.00  -0.00    -0.02   0.20  -0.09     0.06  -0.55   0.24
  13   1     0.00  -0.00  -0.00    -0.06   0.16   0.21     0.13  -0.36  -0.46
  14   1    -0.00   0.01  -0.00     0.05  -0.37   0.18    -0.01   0.06  -0.01
  15   1     0.00  -0.00  -0.01     0.16  -0.48  -0.61     0.09  -0.26  -0.31
  16   1     0.08  -0.75   0.60    -0.00   0.00  -0.00     0.00   0.00  -0.00
  17   1    -0.01   0.02  -0.03     0.00   0.00   0.00    -0.00  -0.00  -0.00
  18   1     0.01   0.00  -0.00    -0.00  -0.00  -0.00    -0.00  -0.00   0.00
  19   1    -0.00   0.05  -0.03     0.00   0.00  -0.00     0.00  -0.00   0.00
  20   1    -0.01  -0.01  -0.01     0.00   0.00   0.00    -0.00  -0.00  -0.00
                     46                     47                     48
                        a                      a                      a 
 Frequencies --  2985.5882              2990.0849              2997.2482
 Red. masses --     1.5883                 1.7414                 1.5055
 Frc consts  --     0.0000                 0.0000                 0.0000
 IR Inten    --    12.9863                15.7682                54.8150
 Raman Activ --     0.0000                 0.0000                 0.0000
 Depolar     --     0.0000                 0.0000                 0.0000
 Atom AN      X      Y      Z        X      Y      Z        X      Y      Z
   1   6    -0.00   0.01  -0.00    -0.00   0.00   0.00    -0.01   0.01  -0.02
   2   6     0.02  -0.05  -0.06     0.00  -0.00  -0.00    -0.02  -0.07   0.19
   3   6     0.01  -0.15   0.15     0.00  -0.01   0.00     0.00  -0.03   0.05
   4   6    -0.00  -0.01   0.01     0.00  -0.00  -0.00    -0.00  -0.00   0.00
   5   8     0.00   0.00  -0.00     0.00   0.00   0.00    -0.00   0.00  -0.00
   6   8    -0.00   0.00  -0.00    -0.01  -0.00  -0.00     0.00   0.00  -0.00
   7   6     0.00   0.00   0.01    -0.12  -0.06  -0.22    -0.00  -0.00   0.00
   8   6     0.00   0.00  -0.00     0.02   0.00   0.02     0.00  -0.00  -0.00
   9   1     0.00  -0.01  -0.01     0.00  -0.00  -0.00    -0.01   0.03   0.03
  10   1     0.00   0.00   0.00     0.00   0.00   0.00     0.05   0.00   0.05
  11   1     0.00  -0.03   0.01     0.00  -0.00   0.00     0.00  -0.06   0.02
  12   1     0.00  -0.01  -0.00     0.00  -0.00   0.00    -0.08   0.67  -0.24
  13   1    -0.07   0.20   0.23    -0.00   0.01   0.01     0.13  -0.41  -0.45
  14   1    -0.12   0.79  -0.30    -0.00   0.03  -0.01    -0.03   0.17  -0.06
  15   1     0.07  -0.24  -0.25     0.00  -0.01  -0.01     0.02  -0.08  -0.08
  16   1     0.00   0.01  -0.00    -0.01  -0.01  -0.03    -0.00   0.00  -0.00
  17   1    -0.02  -0.01  -0.03     0.46   0.23   0.80     0.00  -0.00   0.00
  18   1    -0.00  -0.00   0.00    -0.02  -0.01   0.01    -0.00  -0.00   0.00
  19   1     0.00  -0.00   0.00     0.00   0.02  -0.01    -0.00  -0.00  -0.00
  20   1     0.00   0.00   0.00    -0.06  -0.03  -0.10     0.00   0.00   0.00
                     49                     50                     51
                        a                      a                      a 
 Frequencies --  3034.6360              3038.6449              3039.8009
 Red. masses --     1.9597                 1.7597                 1.7996
 Frc consts  --     0.0000                 0.0000                 0.0000
 IR Inten    --    74.6357                70.7591                32.0851
 Raman Activ --     0.0000                 0.0000                 0.0000
 Depolar     --     0.0000                 0.0000                 0.0000
 Atom AN      X      Y      Z        X      Y      Z        X      Y      Z
   1   6    -0.06   0.28   0.08    -0.06   0.06  -0.25    -0.01   0.00  -0.02
   2   6    -0.01   0.04   0.01     0.00   0.01  -0.03     0.00   0.00  -0.00
   3   6    -0.00   0.00   0.00    -0.00   0.00  -0.01    -0.00   0.00  -0.00
   4   6    -0.00   0.00   0.00    -0.00   0.00  -0.00    -0.00   0.00   0.00
   5   8     0.00  -0.00   0.00    -0.00  -0.00   0.00     0.00  -0.00  -0.00
   6   8     0.00  -0.00   0.00     0.00  -0.00   0.00     0.00  -0.00   0.00
   7   6     0.00   0.00   0.00    -0.00  -0.00  -0.00     0.02   0.00   0.04
   8   6     0.00  -0.00   0.00    -0.01  -0.00  -0.02     0.13   0.03   0.23
   9   1     0.15  -0.42  -0.53    -0.15   0.40   0.42    -0.01   0.03   0.03
  10   1    -0.02   0.04   0.00     0.28   0.00   0.24     0.03   0.00   0.02
  11   1     0.06  -0.59   0.26     0.06  -0.61   0.21     0.00  -0.04   0.01
  12   1     0.01  -0.06   0.03     0.01  -0.06   0.02     0.00  -0.00   0.00
  13   1     0.01  -0.04  -0.05    -0.01   0.04   0.04    -0.00   0.00   0.00
  14   1     0.00  -0.01   0.00     0.01  -0.03   0.01     0.00  -0.00   0.00
  15   1     0.00  -0.00  -0.01    -0.00   0.02   0.02    -0.00   0.00   0.00
  16   1     0.00   0.00  -0.00    -0.00  -0.00   0.00    -0.00   0.02  -0.01
  17   1    -0.00  -0.00  -0.00     0.00   0.00   0.01    -0.06  -0.03  -0.10
  18   1     0.00   0.00  -0.00     0.00   0.00  -0.00     0.00  -0.00   0.03
  19   1     0.00   0.00  -0.00    -0.00  -0.00   0.00     0.02   0.11  -0.05
  20   1    -0.00  -0.00  -0.00     0.04   0.02   0.06    -0.47  -0.22  -0.79
                     52                     53                     54
                        a                      a                      a 
 Frequencies --  3049.2558              3049.4494              3062.4906
 Red. masses --     1.4398                 1.6200                 1.7482
 Frc consts  --     0.0000                 0.0000                 0.0000
 IR Inten    --    43.6685                26.9962                23.2759
 Raman Activ --     0.0000                 0.0000                 0.0000
 Depolar     --     0.0000                 0.0000                 0.0000
 Atom AN      X      Y      Z        X      Y      Z        X      Y      Z
   1   6    -0.18  -0.02  -0.08    -0.03  -0.00  -0.01    -0.00   0.00  -0.00
   2   6    -0.00   0.00  -0.01    -0.00   0.00  -0.00    -0.00   0.00   0.00
   3   6    -0.00   0.00  -0.00     0.00  -0.00   0.00     0.00   0.00  -0.00
   4   6     0.00   0.00  -0.00     0.00  -0.00  -0.00    -0.00   0.00  -0.00
   5   8    -0.00  -0.00   0.00    -0.00   0.00  -0.00    -0.00  -0.00   0.00
   6   8    -0.00  -0.00  -0.00    -0.00   0.00   0.00     0.00  -0.00   0.00
   7   6    -0.00   0.00  -0.00     0.00  -0.02   0.01     0.01   0.01   0.00
   8   6    -0.00   0.03  -0.02     0.00  -0.20   0.12     0.23   0.08  -0.07
   9   1     0.04  -0.18  -0.22     0.01  -0.03  -0.04     0.00  -0.00  -0.00
  10   1     0.64  -0.01   0.60     0.10  -0.00   0.10     0.00   0.00   0.00
  11   1    -0.05   0.26  -0.12    -0.01   0.05  -0.02    -0.00  -0.00   0.00
  12   1     0.00  -0.02   0.01     0.00  -0.00   0.00    -0.00  -0.00   0.00
  13   1    -0.01   0.02   0.02    -0.00   0.00   0.00    -0.00  -0.00  -0.00
  14   1     0.00  -0.00   0.00    -0.00   0.00  -0.00     0.00  -0.00   0.00
  15   1    -0.00   0.00   0.00    -0.00  -0.00   0.00    -0.00   0.00   0.00
  16   1     0.00  -0.01   0.01    -0.00   0.04  -0.03     0.00  -0.01   0.01
  17   1     0.00   0.00   0.00    -0.00  -0.00  -0.00    -0.01  -0.00  -0.02
  18   1     0.01   0.01  -0.01    -0.05  -0.04   0.03    -0.90  -0.27   0.22
  19   1     0.01  -0.12   0.10    -0.03   0.75  -0.57     0.03  -0.03   0.03
  20   1    -0.01   0.00  -0.02     0.07   0.01   0.13     0.03   0.02  -0.00
