      -----------------------------------------------------------      
     |                   =====================                   |     
     |                           x T B                           |     
     |                   =====================                   |     
     |                         S. Grimme                         |     
     |          Mulliken Center for Theoretical Chemistry        |     
     |                    University of Bonn                     |     
      -----------------------------------------------------------      

   * xtb version 6.7.1 (edcfbbe) compiled by 'albert@albert-system' on 2024-07-22

   xtb is free software: you can redistribute it and/or modify it under
   the terms of the GNU Lesser General Public License as published by
   the Free Software Foundation, either version 3 of the License, or
   (at your option) any later version.
   
   xtb is distributed in the hope that it will be useful,
   but WITHOUT ANY WARRANTY; without even the implied warranty of
   MERCHANTABILITY or FITNESS FOR A PARTICULAR PURPOSE.  See the
   GNU Lesser General Public License for more details.
   
   Cite this work as:
   * C. Bannwarth, E. Caldeweyher, S. Ehlert, A. Hansen, P. Pracht,
     J. Seibert, S. Spicher, S. Grimme, WIREs Comput. Mol. Sci., 2020, 11,
     e01493. DOI: 10.1002/wcms.1493
   
   for GFN2-xTB:
   * C. Bannwarth, S. Ehlert and S. Grimme., J. Chem. Theory Comput., 2019,
     15, 1652-1671. DOI: 10.1021/acs.jctc.8b01176
   for GFN1-xTB:
   * S. Grimme, C. Bannwarth, P. Shushkov, J. Chem. Theory Comput., 2017,
     13, 1989-2009. DOI: 10.1021/acs.jctc.7b00118
   for GFN0-xTB:
   * P. Pracht, E. Caldeweyher, S. Ehlert, S. Grimme, ChemRxiv, 2019, preprint.
     DOI: 10.26434/chemrxiv.8326202.v1
   for GFN-FF:
   * S. Spicher and S. Grimme, Angew. Chem. Int. Ed., 2020, 59, 15665-15673.
     DOI: 10.1002/anie.202004239
   
   for ALPB and GBSA implicit solvation:
   * S. Ehlert, M. Stahn, S. Spicher, S. Grimme, J. Chem. Theory Comput.,
     2021, 17, 4250-4261. DOI: 10.1021/acs.jctc.1c00471
   
   for ddCOSMO and CPCM-X implicit solvation:
   * M. Stahn, S. Ehlert, S. Grimme, J. Phys. Chem. A,
     2023, XX, XXXX-XXXX. DOI: 10.1021/acs.jpca.3c04382
   
   for DFT-D4:
   * E. Caldeweyher, C. Bannwarth and S. Grimme, J. Chem. Phys., 2017,
     147, 034112. DOI: 10.1063/1.4993215
   * E. Caldeweyher, S. Ehlert, A. Hansen, H. Neugebauer, S. Spicher,
     C. Bannwarth and S. Grimme, J. Chem. Phys., 2019, 150, 154122.
     DOI: 10.1063/1.5090222
   * E. Caldeweyher, J.-M. Mewes, S. Ehlert and S. Grimme, Phys. Chem. Chem. Phys.
     2020, 22, 8499-8512. DOI: 10.1039/D0CP00502A
   
   for sTDA-xTB:
   * S. Grimme and C. Bannwarth, J. Chem. Phys., 2016, 145, 054103.
     DOI: 10.1063/1.4959605
   
   in the mass-spec context:
   * V. Asgeirsson, C. Bauer and S. Grimme, Chem. Sci., 2017, 8, 4879.
     DOI: 10.1039/c7sc00601b
   * J. Koopman and S. Grimme, ACS Omega 2019, 4, 12, 15120-15133.
     DOI: 10.1021/acsomega.9b02011
   
   for metadynamics refer to:
   * S. Grimme, J. Chem. Theory Comput., 2019, 155, 2847-2862
     DOI: 10.1021/acs.jctc.9b00143
   
   for SPH calculations refer to:
   * S. Spicher and S. Grimme, J. Chem. Theory Comput., 2021, 17, 1701-1714
     DOI: 10.1021/acs.jctc.0c01306
   
   for ONIOM refer to:
   * C. Plett, A. Katbashev, S. Ehlert, S. Grimme, M. Bursch,
     Phys. Chem. Chem. Phys., 2023, 25, 17860-17868. DOI: 10.1039/D3CP02178E
   
   for DIPRO refer to:
   * J. Kohn, N. Gildemeister, S. Grimme, D. Fazzi, A. Hansen,
     J. Chem. Phys., 2023, just accepted.
   
   for PTB refer to:
   * S. Grimme, M. Mueller, A. Hansen, J. Chem. Phys., 2023, 158, 124111.
     DOI: 10.1063/5.0137838
   
   with help from (in alphabetical order)
   P. Atkinson, C. Bannwarth, F. Bohle, G. Brandenburg, E. Caldeweyher
   M. Checinski, S. Dohm, S. Ehlert, S. Ehrlich, I. Gerasimov, C. Hölzer
   A. Katbashev, J. Kohn, J. Koopman, C. Lavigne, S. Lehtola, F. März, M. Müller,
   F. Musil, H. Neugebauer, J. Pisarek, C. Plett, P. Pracht, F. Pultar,
   J. Seibert, P. Shushkov, S. Spicher, M. Stahn, M. Steiner, T. Strunk,
   J. Stückrath, T. Rose, and J. Unsleber
   
 * started run on 2025/04/11 at 16:43:58.544     
   ID    Z sym.   atoms
    1    6 C      1-4, 7, 8
    2    8 O      5, 6
    3    1 H      9-20

           -------------------------------------------------
          |                Calculation Setup                |
           -------------------------------------------------

          program call               : /srv/scratch/z5358697/.xtb/bin/xtb xtb_rrho.coord --gfn2 --bhess vtight --chrg 0 --enso --norestart -I rrho-xcontrol-inp --parallel 1 --alpb water
          hostname                   : k061
          coordinate file            : xtb_rrho.coord
          omp threads                :                     1


           -------------------------------------------------
          |                 G F N 2 - x T B                 |
           -------------------------------------------------

        Reference                      10.1021/acs.jctc.8b01176
      * Hamiltonian:
        H0-scaling (s, p, d)           1.850000    2.230000    2.230000
        zeta-weighting                 0.500000
      * Dispersion:
        s8                             2.700000
        a1                             0.520000
        a2                             5.000000
        s9                             5.000000
      * Repulsion:
        kExp                           1.500000    1.000000
        rExp                           1.000000
      * Coulomb:
        alpha                          2.000000
        third order                    shell-resolved
        anisotropic                    true
        a3                             3.000000
        a5                             4.000000
        cn-shift                       1.200000
        cn-exp                         4.000000
        max-rad                        5.000000

      * Solvation model:               ALPB
        Solvent                        water
        Parameter file                 internal GFN2-xTB/ALPB
        Dielectric constant                8.0200E+01
        Reference state                gsolv [1 M gas/solution]
        Free energy shift                  1.0808E-03 Eh       6.7819E-01 kcal/mol
        Temperature                        2.9815E+02 K
        Density                            1.0000E+00 kg/L
        Solvent mass                       1.8000E+01 g/mol
        Interaction kernel             P16
        Born radius scaling (c1)           1.4744E+00
        Born radii integrator          GBOBC
        Born offset                        0.0000E+00 a0       0.0000E+00 AA
        H-bond correction              true
        Ion screening                  false
        Surface tension                    1.0000E-05 Eh       1.5569E+01 dyn/cm
        Grid points                               974 per atom

          ...................................................
          :                      SETUP                      :
          :.................................................:
          :  # basis functions                  44          :
          :  # atomic orbitals                  44          :
          :  # shells                           28          :
          :  # electrons                        48          :
          :  max. iterations                   250          :
          :  Hamiltonian                  GFN2-xTB          :
          :  restarted?                      false          :
          :  GBSA solvation                   true          :
          :  PC potential                    false          :
          :  electronic temp.          300.0000000     K    :
          :  accuracy                    1.0000000          :
          :  -> integral cutoff          0.2500000E+02      :
          :  -> integral neglect         0.1000000E-07      :
          :  -> SCF convergence          0.1000000E-05 Eh   :
          :  -> wf. convergence          0.1000000E-03 e    :
          :  Broyden damping             0.4000000          :
          :  net charge                          0          :
          :  unpaired electrons                  0          :
          ...................................................

 iter      E             dE          RMSdq      gap      omega  full diag
   1    -27.3612329 -0.273612E+02  0.402E+00    5.74       0.0  T
   2    -27.4222832 -0.610503E-01  0.199E+00    4.79       1.0  T
   3    -27.4241136 -0.183039E-02  0.103E+00    5.14       1.0  T
   4    -27.4257607 -0.164708E-02  0.162E-01    4.89       1.0  T
   5    -27.4259755 -0.214802E-03  0.666E-02    4.95       1.0  T
   6    -27.4259770 -0.156810E-05  0.220E-02    4.94       1.0  T
   7    -27.4259778 -0.734084E-06  0.353E-03    4.94       6.3  T
   8    -27.4259778 -0.179265E-07  0.195E-03    4.94      11.4  T
   9    -27.4259778 -0.581133E-08  0.305E-04    4.94      73.4  T
  10    -27.4259778 -0.261046E-09  0.165E-04    4.94     135.9  T

   *** convergence criteria satisfied after 10 iterations ***

         #    Occupation            Energy/Eh            Energy/eV
      -------------------------------------------------------------
         1        2.0000           -0.7440710             -20.2472
       ...           ...                  ...                  ...
        18        2.0000           -0.4661589             -12.6848
        19        2.0000           -0.4612205             -12.5504
        20        2.0000           -0.4510998             -12.2751
        21        2.0000           -0.4464752             -12.1492
        22        2.0000           -0.4421128             -12.0305
        23        2.0000           -0.4287939             -11.6681
        24        2.0000           -0.4229938             -11.5102 (HOMO)
        25                         -0.2413988              -6.5688 (LUMO)
        26                         -0.0306967              -0.8353
        27                          0.0845900               2.3018
        28                          0.1150023               3.1294
        29                          0.1171946               3.1890
       ...                                ...                  ...
        44                          0.5934424              16.1484
      -------------------------------------------------------------
                  HL-Gap            0.1815950 Eh            4.9415 eV
             Fermi-level           -0.3321963 Eh           -9.0395 eV

 SCC (total)                   0 d,  0 h,  0 min,  0.053 sec
 SCC setup                      ...        0 min,  0.001 sec (  2.642%)
 Dispersion                     ...        0 min,  0.000 sec (  0.226%)
 classical contributions        ...        0 min,  0.000 sec (  0.040%)
 integral evaluation            ...        0 min,  0.002 sec (  3.130%)
 iterations                     ...        0 min,  0.037 sec ( 70.133%)
 molecular gradient             ...        0 min,  0.012 sec ( 23.103%)
 printout                       ...        0 min,  0.000 sec (  0.681%)

         :::::::::::::::::::::::::::::::::::::::::::::::::::::
         ::                     SUMMARY                     ::
         :::::::::::::::::::::::::::::::::::::::::::::::::::::
         :: total energy             -27.121474942948 Eh    ::
         :: total w/o Gsasa/hb       -27.121444313032 Eh    ::
         :: gradient norm              0.033506433887 Eh/a0 ::
         :: HOMO-LUMO gap              4.941452539249 eV    ::
         ::.................................................::
         :: SCC energy               -27.426004680535 Eh    ::
         :: -> isotropic ES            0.059353167195 Eh    ::
         :: -> anisotropic ES          0.001368645333 Eh    ::
         :: -> anisotropic XC          0.008877611019 Eh    ::
         :: -> dispersion             -0.011195474417 Eh    ::
         :: -> Gsolv                  -0.008907297918 Eh    ::
         ::    -> Gelec               -0.008876668002 Eh    ::
         ::    -> Gsasa                0.001113565770 Eh    ::
         ::    -> Ghb                 -0.002224955384 Eh    ::
         ::    -> Gshift               0.001080759698 Eh    ::
         :: repulsion energy           0.304529737587 Eh    ::
         :: add. restraining           0.000000000000 Eh    ::
         :: total charge               0.000000000000 e     ::
         :::::::::::::::::::::::::::::::::::::::::::::::::::::

metadynamics with 1 initial structures loaded
           -------------------------------------------------
          |           Optimal kpush determination           |
           -------------------------------------------------
      ----------------------------------------------------------- 
     |                   =====================                   |
     |                        A N C O P T                        |
     |                   =====================                   |
     |               Approximate Normal Coordinate               |
     |                Rational Function Optimizer                |
      ----------------------------------------------------------- 
target rmsd / Å         0.100000
unbiased initial rmsd   0.037397
 
iter. min.        max.        rmsd       kpush
final kpush:  0.000000
           -------------------------------------------------
          |            Biased Numerical Hessian             |
           -------------------------------------------------
kpush                :   0.00000
alpha                :   1.00000
step length          :   0.00500
SCC accuracy         :   0.30000
Hessian scale factor :   1.00000
frozen atoms in %    :   0.00000    0
RMS gradient         :   0.00019
estimated CPU  time      0.02 min
estimated wall time      0.02 min

writing file <hessian>.

 projected vibrational frequencies (cm⁻¹)
eigval :       -0.00    -0.00    -0.00     0.00     0.00     0.00
eigval :       13.41    49.54    61.27   121.76   134.72   210.26
eigval :      229.76   297.39   326.47   373.87   456.90   574.78
eigval :      676.49   773.82   818.50   881.51   895.84   925.11
eigval :      978.41  1052.55  1067.56  1087.83  1095.65  1132.75
eigval :     1136.96  1163.30  1205.74  1250.52  1261.78  1274.38
eigval :     1314.24  1352.72  1393.70  1410.94  1425.41  1429.90
eigval :     1470.96  1485.24  1494.97  1497.22  1498.85  1704.91
eigval :     2945.44  2965.16  2979.21  2985.59  2990.08  2997.25
eigval :     3034.64  3038.64  3039.80  3049.26  3049.45  3062.49
           -------------------------------------------------
          |                Property Printout                |
           -------------------------------------------------

    * Orbital Energies and Occupations

         #    Occupation            Energy/Eh            Energy/eV
      -------------------------------------------------------------
         1        2.0000           -0.7492537             -20.3882
       ...           ...                  ...                  ...
        12        2.0000           -0.5200984             -14.1526
        13        2.0000           -0.5153147             -14.0224
        14        2.0000           -0.5051408             -13.7456
        15        2.0000           -0.4954956             -13.4831
        16        2.0000           -0.4854837             -13.2107
        17        2.0000           -0.4688653             -12.7585
        18        2.0000           -0.4671743             -12.7125
        19        2.0000           -0.4601232             -12.5206
        20        2.0000           -0.4495605             -12.2332
        21        2.0000           -0.4463059             -12.1446
        22        2.0000           -0.4417398             -12.0204
        23        2.0000           -0.4291446             -11.6776
        24        2.0000           -0.4224343             -11.4950 (HOMO)
        25                         -0.2365690              -6.4374 (LUMO)
        26                         -0.0091213              -0.2482
        27                          0.0988339               2.6894
        28                          0.1142328               3.1084
        29                          0.1147110               3.1214
        30                          0.1365491               3.7157
        31                          0.1454301               3.9574
        32                          0.1544354               4.2024
        33                          0.1594128               4.3378
        34                          0.1630144               4.4358
        35                          0.1799736               4.8973
       ...                                ...                  ...
        44                          0.6202622              16.8782
      -------------------------------------------------------------
                  HL-Gap            0.1858653 Eh            5.0577 eV
             Fermi-level           -0.3295016 Eh           -8.9662 eV

     #   Z          covCN         q      C6AA      α(0)
     1   6 C        3.753    -0.118    22.827     6.813
     2   6 C        3.802    -0.054    21.545     6.608
     3   6 C        3.805    -0.102    22.451     6.745
     4   6 C        2.711     0.364    20.817     7.468
     5   8 O        0.856    -0.482    23.389     6.484
     6   8 O        1.703    -0.281    18.657     5.832
     7   6 C        3.693     0.068    19.605     6.335
     8   6 C        3.750    -0.127    23.004     6.840
     9   1 H        0.925     0.046     2.370     2.407
    10   1 H        0.925     0.047     2.357     2.401
    11   1 H        0.925     0.047     2.359     2.402
    12   1 H        0.924     0.043     2.408     2.427
    13   1 H        0.924     0.042     2.425     2.435
    14   1 H        0.924     0.088     1.896     2.153
    15   1 H        0.924     0.090     1.881     2.145
    16   1 H        0.924     0.058     2.223     2.332
    17   1 H        0.924     0.081     1.967     2.193
    18   1 H        0.925     0.071     2.077     2.254
    19   1 H        0.925     0.066     2.130     2.282
    20   1 H        0.925     0.053     2.285     2.364

 Mol. C6AA /au·bohr⁶  :       2995.951874
 Mol. C8AA /au·bohr⁸  :      63822.681566
 Mol. α(0) /au        :         80.921946


Wiberg/Mayer (AO) data.
largest (>0.10) Wiberg bond orders for each atom

 ---------------------------------------------------------------------------
     #   Z sym  total        # sym  WBO       # sym  WBO       # sym  WBO
 ---------------------------------------------------------------------------
     1   6 C    3.994 --     2 C    1.020     9 H    0.987    11 H    0.987
                            10 H    0.986
     2   6 C    3.994 --     1 C    1.020     3 C    1.007    13 H    0.978
                            12 H    0.977
     3   6 C    3.989 --     2 C    1.007     4 C    0.982    14 H    0.950
                            15 H    0.944
     4   6 C    3.905 --     5 O    1.700     6 O    1.157     3 C    0.982
     5   8 O    1.980 --     4 C    1.700     6 O    0.168
     6   8 O    2.305 --     4 C    1.157     7 C    0.920     5 O    0.168
     7   6 C    3.911 --     8 C    1.014    16 H    0.970    17 H    0.969
                             6 O    0.920
     8   6 C    3.989 --     7 C    1.014    20 H    0.986    19 H    0.985
                            18 H    0.980
     9   1 H    0.998 --     1 C    0.987
    10   1 H    0.997 --     1 C    0.986
    11   1 H    0.998 --     1 C    0.987
    12   1 H    0.998 --     2 C    0.977
    13   1 H    0.998 --     2 C    0.978
    14   1 H    0.992 --     3 C    0.950
    15   1 H    0.992 --     3 C    0.944
    16   1 H    0.997 --     7 C    0.970
    17   1 H    0.993 --     7 C    0.969
    18   1 H    0.994 --     8 C    0.980
    19   1 H    0.996 --     8 C    0.985
    20   1 H    0.997 --     8 C    0.986
 ---------------------------------------------------------------------------

Topologies differ in total number of bonds
Writing topology from bond orders to xtbtopo.mol

molecular dipole:
                 x           y           z       tot (Debye)
 q only:        0.214      -0.465       0.960
   full:        0.227      -0.425       1.006       2.836
molecular quadrupole (traceless):
                xx          xy          yy          xz          yz          zz
 q only:       10.247       1.050      -3.445      -0.472       2.169      -6.802
  q+dip:        7.425       0.740      -1.111      -0.197       2.677      -6.315
   full:        8.096       0.802      -1.178      -0.424       3.026      -6.918

           -------------------------------------------------
          |                Geometry Summary                 |
           -------------------------------------------------

      molecular mass/u    :      116.1585142
   center of mass at/Å    :       -0.0008060      -0.0015199      -0.0031026
  moments of inertia/u·Å² :        0.8438675E+02   0.5947445E+03   0.6216802E+03
rotational constants/cm⁻¹ :        0.1997663E+00   0.2834433E-01   0.2711625E-01

 * 18 selected distances

     #   Z          #   Z                                           value/Å
     1   6 C        2   6 C                                       1.5231486
     2   6 C        3   6 C                                       1.5260370 (max)
     4   6 C        5   8 O                                       1.2124327
     4   6 C        6   8 O                                       1.3303560
     6   8 O        7   6 C                                       1.4377462
     7   6 C        8   6 C                                       1.5209963
     1   6 C        9   1 H                                       1.0871119
     1   6 C       10   1 H                                       1.0863707
     1   6 C       11   1 H                                       1.0871044
     2   6 C       12   1 H                                       1.0915108
     2   6 C       13   1 H                                       1.0915602
     3   6 C       14   1 H                                       1.0913657
     3   6 C       15   1 H                                       1.0922742
     7   6 C       16   1 H                                       1.0943096
     7   6 C       17   1 H                                       1.0904051
     8   6 C       18   1 H                                       1.0850883 (min)
     8   6 C       19   1 H                                       1.0866263
     8   6 C       20   1 H                                       1.0877374

 * 3 distinct bonds (by element types)

   Z      Z             #   av. dist./Å        max./Å        min./Å
   1 H    6 C          12     1.0892887     1.0943096     1.0850883
   6 C    6 C           3     1.5233940     1.5260370     1.5209963
   6 C    8 O           3     1.3268450     1.4377462     1.2124327

           -------------------------------------------------
          |               Frequency Printout                |
           -------------------------------------------------
 projected vibrational frequencies (cm⁻¹)
eigval :       -0.00    -0.00    -0.00     0.00     0.00     0.00
eigval :       13.41    49.54    61.27   121.76   134.72   210.26
eigval :      229.76   297.39   326.47   373.87   456.90   574.78
eigval :      676.49   773.82   818.50   881.51   895.84   925.11
eigval :      978.41  1052.55  1067.56  1087.83  1095.65  1132.75
eigval :     1136.96  1163.30  1205.74  1250.52  1261.78  1274.38
eigval :     1314.24  1352.72  1393.70  1410.94  1425.41  1429.90
eigval :     1470.96  1485.24  1494.97  1497.22  1498.85  1704.91
eigval :     2945.44  2965.16  2979.21  2985.59  2990.08  2997.25
eigval :     3034.64  3038.64  3039.80  3049.26  3049.45  3062.49
 reduced masses (amu)
   1: 10.55   2: 12.16   3: 11.57   4: 10.99   5: 11.36   6: 10.41   7:  7.25   8:  9.87
   9:  9.83  10:  9.76  11:  9.17  12:  3.33  13:  1.76  14:  9.53  15: 11.02  16: 10.43
  17: 10.46  18:  9.52  19: 11.76  20:  3.13  21:  3.35  22:  3.78  23: 10.06  24:  8.25
  25:  7.78  26:  8.77  27:  4.23  28:  8.84  29:  7.64  30: 10.43  31:  7.36  32:  7.97
  33:  4.67  34:  2.79  35:  2.08  36:  5.21  37:  3.43  38:  5.44  39:  3.11  40:  3.22
  41:  2.08  42:  2.02  43:  1.51  44:  1.57  45:  1.58  46:  1.53  47:  1.90  48: 13.31
  49:  1.72  50:  1.91  51:  1.93  52:  1.59  53:  1.74  54:  1.51  55:  1.96  56:  1.76
  57:  1.80  58:  1.44  59:  1.62  60:  1.75
 IR intensities (km·mol⁻¹)
   1:  2.22   2:  1.45   3:  0.28   4:  0.23   5:  0.25   6:  0.03   7:  0.07   8:  2.16
   9:  0.86  10:  5.34  11:  2.53  12:  3.12  13:  0.27  14: 17.97  15:  5.91  16:  2.40
  17:  1.58  18: 14.96  19: 10.95  20: 33.91  21:  9.75  22:  3.32  23: 13.93  24:  6.44
  25:  5.89  26: 23.72  27: 10.29  28: 49.34  29: 17.15  30:311.64  31: 52.09  32:137.95
  33:  0.25  34:  7.53  35:  3.68  36: 92.62  37:  6.23  38: 37.89  39:  5.42  40:  1.43
  41: 25.91  42:  2.10  43:  6.19  44:  2.18  45:  2.38  46:  2.50  47:  0.06  48:660.63
  49: 30.37  50:  0.51  51: 58.14  52: 12.99  53: 15.77  54: 54.81  55: 74.64  56: 70.76
  57: 32.09  58: 43.67  59: 27.00  60: 23.28
 Raman intensities (Ä⁴*amu⁻¹)
   1:  0.00   2:  0.00   3:  0.00   4:  0.00   5:  0.00   6:  0.00   7:  0.00   8:  0.00
   9:  0.00  10:  0.00  11:  0.00  12:  0.00  13:  0.00  14:  0.00  15:  0.00  16:  0.00
  17:  0.00  18:  0.00  19:  0.00  20:  0.00  21:  0.00  22:  0.00  23:  0.00  24:  0.00
  25:  0.00  26:  0.00  27:  0.00  28:  0.00  29:  0.00  30:  0.00  31:  0.00  32:  0.00
  33:  0.00  34:  0.00  35:  0.00  36:  0.00  37:  0.00  38:  0.00  39:  0.00  40:  0.00
  41:  0.00  42:  0.00  43:  0.00  44:  0.00  45:  0.00  46:  0.00  47:  0.00  48:  0.00
  49:  0.00  50:  0.00  51:  0.00  52:  0.00  53:  0.00  54:  0.00  55:  0.00  56:  0.00
  57:  0.00  58:  0.00  59:  0.00  60:  0.00
 output can be read by thermo (or use thermo option).
 writing <g98.out> molden fake output.
 recommended (thermochemical) frequency scaling factor: 1.0
           -------------------------------------------------
          |             Thermodynamic Functions             |
           -------------------------------------------------

Molecule has no symmetry elements
It seems to be the C1 point group
c1  symmetry found (for desy threshold:  0.10E+00) used in thermo

          ...................................................
          :                      SETUP                      :
          :.................................................:
          :  # frequencies                          54      :
          :  # imaginary freq.                       0      :
          :  linear?                             false      :
          :  only rotor calc.                    false      :
          :  symmetry                               c1      :
          :  rotational number                       1      :
          :  scaling factor                  1.0000000      :
          :  rotor cutoff                    0.0000000 cm⁻¹ :
          :  imag. cutoff                 -100.0000000 cm⁻¹ :
          :.................................................:

    mode    ω/cm⁻¹     T·S(HO)/kcal·mol⁻¹    T·S(FR)/kcal·mol⁻¹   T·S(vib)
   ------------------------------------------------------------------------
       1     13.41    -2.21465 (100.00%)    -1.44553 (  0.00%)    -2.21465
       2     49.54    -1.44180 (100.00%)    -1.05908 (  0.00%)    -1.44180
       3     61.27    -1.31656 (100.00%)    -0.99613 (  0.00%)    -1.31656
       4    121.76    -0.91598 (100.00%)    -0.79279 (  0.00%)    -0.91598
       5    134.72    -0.85792 (100.00%)    -0.76283 (  0.00%)    -0.85792
       6    210.26    -0.60865 (100.00%)    -0.63100 (  0.00%)    -0.60865
       7    229.76    -0.56077 (100.00%)    -0.60473 (  0.00%)    -0.56077
       8    297.39    -0.42681 (100.00%)    -0.52831 (  0.00%)    -0.42681
   ------------------------------------------------------------------------

   temp. (K)  partition function   enthalpy   heat capacity  entropy
                                   cal/mol     cal/K/mol   cal/K/mol   J/K/mol
 298.15  VIB  0.925E+04             4614.127     28.495     33.624
         ROT  0.427E+06              888.752      2.981     28.743
         INT  0.395E+10             5502.879     31.476     62.367
         TR   0.121E+28             1481.254      4.968     40.146
         TOT                        6984.1333    36.4445   102.5138   428.9176

       T/K    H(0)-H(T)+PV         H(T)/Eh          T*S/Eh         G(T)/Eh
   ------------------------------------------------------------------------
    298.15    0.111299E-01    0.182323E+00    0.487076E-01    0.133615E+00
   ------------------------------------------------------------------------

         :::::::::::::::::::::::::::::::::::::::::::::::::::::
         ::                  THERMODYNAMIC                  ::
         :::::::::::::::::::::::::::::::::::::::::::::::::::::
         :: total free energy         -26.989163656935 Eh   ::
         ::.................................................::
         :: total energy              -27.122778649751 Eh   ::
         :: zero point energy           0.171192664875 Eh   ::
         :: G(RRHO) w/o ZPVE           -0.037577672058 Eh   ::
         :: G(RRHO) contrib.            0.133614992817 Eh   ::
         :::::::::::::::::::::::::::::::::::::::::::::::::::::

optimized geometry written to: xtbopt.coord


           -------------------------------------------------
          | TOTAL ENERGY              -27.122778649751 Eh   |
          | TOTAL ENTHALPY            -26.940456060026 Eh   |
          | TOTAL FREE ENERGY         -26.989163656935 Eh   |
          | GRADIENT NORM               0.000186096869 Eh/α |
          | HOMO-LUMO GAP               5.057652845984 eV   |
           -------------------------------------------------

------------------------------------------------------------------------
 * finished run on 2025/04/11 at 16:43:59.981     
------------------------------------------------------------------------
 total:
 * wall-time:     0 d,  0 h,  0 min,  1.435 sec
 *  cpu-time:     0 d,  0 h,  0 min,  1.344 sec
 * ratio c/w:     0.936 speedup
 SCF:
 * wall-time:     0 d,  0 h,  0 min,  0.053 sec
 *  cpu-time:     0 d,  0 h,  0 min,  0.022 sec
 * ratio c/w:     0.423 speedup
 analytical hessian:
 * wall-time:     0 d,  0 h,  0 min,  1.168 sec
 *  cpu-time:     0 d,  0 h,  0 min,  1.154 sec
 * ratio c/w:     0.988 speedup

