17
 energy: -20.871071493270 gnorm: 0.025636357138 xtb: 6.7.1 (edcfbbe)
C            3.02440790397694       -0.75013743326734       -0.14690687950168
C            1.56724303963461       -0.43224535281284        0.17914407867045
C            1.18980707406930        0.98727807548653       -0.24407902626076
C           -0.20735678545945        1.46217517246124        0.15997314446263
C           -1.37136470282265        0.77562298704650       -0.52561784617030
Cl          -1.84510379892487       -0.83108583426173        0.26806380363678
H            3.28905034212608       -1.76914499968936        0.15311320926947
H            3.70216968708510       -0.06122039177538        0.36980966836622
H            3.21358989329140       -0.65843019280636       -1.22246805041351
H            0.91563083310280       -1.15742184448408       -0.32001962092812
H            1.39424187042285       -0.54865750535372        1.25693029491921
H            1.29322597209444        1.07784130514055       -1.33403152876731
H            1.91742228230004        1.68396794482119        0.19265706737988
H           -0.29905621036520        2.52226228330027       -0.11405216117066
H           -0.33593759674857        1.41621446411572        1.24768474287687
H           -2.28017194211132        1.37570625813207       -0.47235510022411
H           -1.15381123275537        0.53223824779369       -1.56791364517259
17
 energy: -20.872237525582 gnorm: 0.013954948183 xtb: 6.7.1 (edcfbbe)
C            3.00659951385084       -0.74482402943881       -0.14655405372435
C            1.55264550373159       -0.42657697184070        0.17934362669645
C            1.19288944156268        0.99343650596112       -0.25181523612732
C           -0.20145478616806        1.46480556060356        0.16089890376073
C           -1.35729419940573        0.77054542267592       -0.53020932160654
Cl          -1.79060539195234       -0.82232250149615        0.26201167448695
H            3.25836769811809       -1.76012077770509        0.15696721189899
H            3.67789228588316       -0.05926151961755        0.37086255899069
H            3.19030693862989       -0.65506420634442       -1.21725438028540
H            0.90357320356802       -1.14741626470442       -0.32345021078888
H            1.38898413015524       -0.53558517593488        1.25593286493765
H            1.29044600105658        1.07391913618254       -1.33900001141627
H            1.91971349788278        1.68131661320302        0.19129793825654
H           -0.28567585529024        2.52433249795871       -0.10331225886175
H           -0.32130531705884        1.39103279596576        1.24501272267703
H           -2.27337719881924        1.35397673282290       -0.46373522571849
H           -1.13771883682825        0.52276936555541       -1.56706465220355
17
 energy: -20.872572798857 gnorm: 0.004819486301 xtb: 6.7.1 (edcfbbe)
C            2.99626675433784       -0.74743119616069       -0.14612145493955
C            1.54409907319058       -0.41902338774643        0.17837908611929
C            1.19360565103290        1.00161486192066       -0.25755400183516
C           -0.19972664489321        1.47157761463115        0.16276520813896
C           -1.34726136472038        0.75830162910754       -0.52791918282504
Cl          -1.75118554472475       -0.82293143767682        0.25563005493786
H            3.23783968785851       -1.76138675237716        0.16035154551499
H            3.66432081612994       -0.06365906913248        0.37084959559434
H            3.17571696862706       -0.65907924086706       -1.21422764799831
H            0.89376716875311       -1.13553991250693       -0.32406892873331
H            1.38143577365364       -0.52011586594892        1.25337100804160
H            1.28503304414156        1.07357935292694       -1.34278194854831
H            1.92258247274109        1.68425386278918        0.18350234905317
H           -0.28694951710209        2.53074710322508       -0.09020174725541
H           -0.31145161041035        1.37534946141673        1.24391320134737
H           -2.26543839117466        1.33634689996114       -0.46226212284290
H           -1.11866770852463        0.52235926028499       -1.56369286279712
17
 energy: -20.872614270782 gnorm: 0.002177777910 xtb: 6.7.1 (edcfbbe)
C            2.99491890164988       -0.74944417536942       -0.14573831819017
C            1.54308315917035       -0.41567115046025        0.17822804348053
C            1.19451082000274        1.00543768676320       -0.25933735003909
C           -0.19965381109371        1.47136839840189        0.16508426203669
C           -1.34642610375610        0.75336917580600       -0.52679500963336
Cl          -1.74258057937536       -0.82375056580887        0.25477580571761
H            3.23139432232335       -1.76449282577405        0.16204583929103
H            3.66595663542514       -0.06768884635121        0.37082357888419
H            3.17437535609511       -0.66334868651179       -1.21441630801876
H            0.89128139806149       -1.13131821974243       -0.32343847667258
H            1.37882373801479       -0.51486709491559        1.25326560604634
H            1.28256535605759        1.07695057017482       -1.34496580311337
H            1.92471598692961        1.68892896555772        0.17845796506909
H           -0.29221486740596        2.53024956974109       -0.08455000282335
H           -0.30843937291800        1.37225435655410        1.24605331967507
H           -2.26506159848277        1.33230299392132       -0.46536010003918
H           -1.11326271178199        0.52468303186039       -1.56420090069822
17
 energy: -20.872623687260 gnorm: 0.000542514656 xtb: 6.7.1 (edcfbbe)
C            2.99548825548627       -0.75120990501955       -0.14543028687934
C            1.54424370829672       -0.41344255830752        0.17781164336563
C            1.19429227744562        1.00739048454118       -0.26001738527720
C           -0.19985174291850        1.47149340950355        0.16680395539844
C           -1.34659423100288        0.75078292176280       -0.52537699682241
Cl          -1.74374915800836       -0.82460749912242        0.25299211552928
H            3.22896984739459       -1.76715058248859        0.16335951131944
H            3.66958301862351       -0.07113107903765        0.37050291858459
H            3.17579296879012       -0.66709126725659       -1.21471080384608
H            0.89148244906398       -1.12913674375914       -0.32303562605028
H            1.37901919272948       -0.51181518930496        1.25315910680779
H            1.28020359978847        1.07955922732948       -1.34622447750432
H            1.92502949299009        1.69251903915885        0.17519955629674
H           -0.29648990557712        2.53048873783231       -0.08138556761836
H           -0.30719285877846        1.37176083208247        1.24800110112229
H           -2.26530565975257        1.33116743253250       -0.46787177402185
H           -1.11093462565480        0.52538592340021       -1.56384483943191
17
 energy: -20.872624233855 gnorm: 0.000195508066 xtb: 6.7.1 (edcfbbe)
C            2.99571822663513       -0.75126798196244       -0.14551796861107
C            1.54486433102252       -0.41302709288153        0.17778874758505
C            1.19417820289088        1.00751325047876       -0.26003037714876
C           -0.19991404144763        1.47058295758076        0.16719715519245
C           -1.34701400691261        0.75091559272190       -0.52560117122854
Cl          -1.74533304189307       -0.82414626001029        0.25341354562034
H            3.22872862214020       -1.76728358047688        0.16371410606364
H            3.67086256496712       -0.07171725514276        0.37000185222377
H            3.17668555177098       -0.66796739216682       -1.21490604514518
H            0.89175543773087       -1.12903604569007       -0.32252484773804
H            1.37987251652120       -0.51121100045685        1.25335789965050
H            1.27964399346645        1.08011224184111       -1.34644255931931
H            1.92481910753231        1.69344758590192        0.17460646991062
H           -0.29730835789555        2.52978901293678       -0.08049051754961
H           -0.30746077689728        1.37069525083731        1.24852976311007
H           -2.26526824838059        1.33245050909177       -0.46916555957172
H           -1.11084345233478        0.52511339124425       -1.56399834207175
17
 energy: -20.872624436753 gnorm: 0.000132021337 xtb: 6.7.1 (edcfbbe)
C            2.99565402490780       -0.75123150280757       -0.14566240425836
C            1.54498526857828       -0.41286246730621        0.17790587398093
C            1.19411759063169        1.00755096050291       -0.26006834182029
C           -0.19985844890858        1.47060063530899        0.16728122028666
C           -1.34678106531486        0.75089528014126       -0.52574277008683
Cl          -1.74634364799787       -0.82384204850317        0.25322400502113
H            3.22870451247965       -1.76714926094355        0.16375607601605
H            3.67084421881934       -0.07156911817738        0.36955968287693
H            3.17639945457688       -0.66815418444941       -1.21505909222856
H            0.89166833919312       -1.12893952733199       -0.32202438974396
H            1.38037027377471       -0.51078239183496        1.25353295705749
H            1.27949547563063        1.07996091933581       -1.34647571568039
H            1.92473446979544        1.69354909928929        0.17445335608327
H           -0.29715001383226        2.52997521956292       -0.07976641355550
H           -0.30746170057890        1.36996214139191        1.24853685713056
H           -2.26495847634980        1.33250156513537       -0.46962288553835
H           -1.11043364648910        0.52449786453272       -1.56389586456830
17
 energy: -20.872624573315 gnorm: 0.000067522377 xtb: 6.7.1 (edcfbbe)
C            2.99553316290597       -0.75121393117660       -0.14592913000240
C            1.54503463917269       -0.41268681729225        0.17823064927200
C            1.19409796352937        1.00762565713606       -0.26005272958561
C           -0.19989753448727        1.47048167776010        0.16745401375053
C           -1.34660810700861        0.75094539765992       -0.52609158869624
Cl          -1.74684610969753       -0.82344603701237        0.25332405740322
H            3.22874142837117       -1.76699923173371        0.16371838271672
H            3.67082024541786       -0.07129647407760        0.36877241835122
H            3.17568939861767       -0.66844024059076       -1.21541041018263
H            0.89135313740033       -1.12881958521954       -0.32110359610049
H            1.38097347526161       -0.51017458681976        1.25394933832502
H            1.27932218564654        1.07969584263930       -1.34645121774229
H            1.92473680556988        1.69368060530246        0.17424684373125
H           -0.29712992064503        2.53002431395698       -0.07868053923429
H           -0.30752531949330        1.36887922020887        1.24857642401197
H           -2.26464116835973        1.33276638367102       -0.47069515441486
H           -1.10966765328548        0.52394098943482       -1.56392561063065
17
 energy: -20.872624656807 gnorm: 0.000041580746 xtb: 6.7.1 (edcfbbe)
C            2.99549617628285       -0.75121762880498       -0.14627871319762
C            1.54518208189313       -0.41250418036462        0.17868625628994
C            1.19408689923305        1.00769954525046       -0.25992410740632
C           -0.19997151872320        1.47029887234257        0.16775149246570
C           -1.34646629924528        0.75095645240169       -0.52642669736856
Cl          -1.74789334155941       -0.82301739226660        0.25334452584880
H            3.22887750706363       -1.76688430656594        0.16364615121536
H            3.67113725321241       -0.07109183793887        0.36771532865046
H            3.17495170087007       -0.66889738026434       -1.21592550047364
H            0.89112319316300       -1.12876729269689       -0.31996681790760
H            1.38176564898188       -0.50956770201946        1.25454445205831
H            1.27908574517195        1.07951315040920       -1.34635677314904
H            1.92470976173259        1.69396560972854        0.17405389865297
H           -0.29728709401903        2.52997006494639       -0.07766449995293
H           -0.30764938881997        1.36799233609523        1.24877768483481
H           -2.26437741498338        1.33305941700770       -0.47204670715535
H           -1.10878428133813        0.52345545658687       -1.56399782243282
