      -----------------------------------------------------------      
     |                   =====================                   |     
     |                           x T B                           |     
     |                   =====================                   |     
     |                         S. Grimme                         |     
     |          Mulliken Center for Theoretical Chemistry        |     
     |                    University of Bonn                     |     
      -----------------------------------------------------------      

   * xtb version 6.7.1 (edcfbbe) compiled by 'albert@albert-system' on 2024-07-22

   xtb is free software: you can redistribute it and/or modify it under
   the terms of the GNU Lesser General Public License as published by
   the Free Software Foundation, either version 3 of the License, or
   (at your option) any later version.
   
   xtb is distributed in the hope that it will be useful,
   but WITHOUT ANY WARRANTY; without even the implied warranty of
   MERCHANTABILITY or FITNESS FOR A PARTICULAR PURPOSE.  See the
   GNU Lesser General Public License for more details.
   
   Cite this work as:
   * C. Bannwarth, E. Caldeweyher, S. Ehlert, A. Hansen, P. Pracht,
     J. Seibert, S. Spicher, S. Grimme, WIREs Comput. Mol. Sci., 2020, 11,
     e01493. DOI: 10.1002/wcms.1493
   
   for GFN2-xTB:
   * C. Bannwarth, S. Ehlert and S. Grimme., J. Chem. Theory Comput., 2019,
     15, 1652-1671. DOI: 10.1021/acs.jctc.8b01176
   for GFN1-xTB:
   * S. Grimme, C. Bannwarth, P. Shushkov, J. Chem. Theory Comput., 2017,
     13, 1989-2009. DOI: 10.1021/acs.jctc.7b00118
   for GFN0-xTB:
   * P. Pracht, E. Caldeweyher, S. Ehlert, S. Grimme, ChemRxiv, 2019, preprint.
     DOI: 10.26434/chemrxiv.8326202.v1
   for GFN-FF:
   * S. Spicher and S. Grimme, Angew. Chem. Int. Ed., 2020, 59, 15665-15673.
     DOI: 10.1002/anie.202004239
   
   for ALPB and GBSA implicit solvation:
   * S. Ehlert, M. Stahn, S. Spicher, S. Grimme, J. Chem. Theory Comput.,
     2021, 17, 4250-4261. DOI: 10.1021/acs.jctc.1c00471
   
   for ddCOSMO and CPCM-X implicit solvation:
   * M. Stahn, S. Ehlert, S. Grimme, J. Phys. Chem. A,
     2023, XX, XXXX-XXXX. DOI: 10.1021/acs.jpca.3c04382
   
   for DFT-D4:
   * E. Caldeweyher, C. Bannwarth and S. Grimme, J. Chem. Phys., 2017,
     147, 034112. DOI: 10.1063/1.4993215
   * E. Caldeweyher, S. Ehlert, A. Hansen, H. Neugebauer, S. Spicher,
     C. Bannwarth and S. Grimme, J. Chem. Phys., 2019, 150, 154122.
     DOI: 10.1063/1.5090222
   * E. Caldeweyher, J.-M. Mewes, S. Ehlert and S. Grimme, Phys. Chem. Chem. Phys.
     2020, 22, 8499-8512. DOI: 10.1039/D0CP00502A
   
   for sTDA-xTB:
   * S. Grimme and C. Bannwarth, J. Chem. Phys., 2016, 145, 054103.
     DOI: 10.1063/1.4959605
   
   in the mass-spec context:
   * V. Asgeirsson, C. Bauer and S. Grimme, Chem. Sci., 2017, 8, 4879.
     DOI: 10.1039/c7sc00601b
   * J. Koopman and S. Grimme, ACS Omega 2019, 4, 12, 15120-15133.
     DOI: 10.1021/acsomega.9b02011
   
   for metadynamics refer to:
   * S. Grimme, J. Chem. Theory Comput., 2019, 155, 2847-2862
     DOI: 10.1021/acs.jctc.9b00143
   
   for SPH calculations refer to:
   * S. Spicher and S. Grimme, J. Chem. Theory Comput., 2021, 17, 1701-1714
     DOI: 10.1021/acs.jctc.0c01306
   
   for ONIOM refer to:
   * C. Plett, A. Katbashev, S. Ehlert, S. Grimme, M. Bursch,
     Phys. Chem. Chem. Phys., 2023, 25, 17860-17868. DOI: 10.1039/D3CP02178E
   
   for DIPRO refer to:
   * J. Kohn, N. Gildemeister, S. Grimme, D. Fazzi, A. Hansen,
     J. Chem. Phys., 2023, just accepted.
   
   for PTB refer to:
   * S. Grimme, M. Mueller, A. Hansen, J. Chem. Phys., 2023, 158, 124111.
     DOI: 10.1063/5.0137838
   
   with help from (in alphabetical order)
   P. Atkinson, C. Bannwarth, F. Bohle, G. Brandenburg, E. Caldeweyher
   M. Checinski, S. Dohm, S. Ehlert, S. Ehrlich, I. Gerasimov, C. Hölzer
   A. Katbashev, J. Kohn, J. Koopman, C. Lavigne, S. Lehtola, F. März, M. Müller,
   F. Musil, H. Neugebauer, J. Pisarek, C. Plett, P. Pracht, F. Pultar,
   J. Seibert, P. Shushkov, S. Spicher, M. Stahn, M. Steiner, T. Strunk,
   J. Stückrath, T. Rose, and J. Unsleber
   
 * started run on 2025/04/11 at 13:31:10.481     
   ID    Z sym.   atoms
    1    6 C      1, 2, 4-9, 11-17
    2    1 H      3, 20-31
    3    9 F      10
    4    8 O      18, 19

           -------------------------------------------------
          |                Calculation Setup                |
           -------------------------------------------------

          program call               : /software/projects/pawsey0265/mwang1/xtb/bin/xtb solv.coord --gfn2 --sp --chrg 0 --norestart --parallel 1 --alpb water reference -I xtb_sp-xcontrol-inp
          hostname                   : nid002050
          coordinate file            : solv.coord
          omp threads                :                     1


           -------------------------------------------------
          |                 G F N 2 - x T B                 |
           -------------------------------------------------

        Reference                      10.1021/acs.jctc.8b01176
      * Hamiltonian:
        H0-scaling (s, p, d)           1.850000    2.230000    2.230000
        zeta-weighting                 0.500000
      * Dispersion:
        s8                             2.700000
        a1                             0.520000
        a2                             5.000000
        s9                             5.000000
      * Repulsion:
        kExp                           1.500000    1.000000
        rExp                           1.000000
      * Coulomb:
        alpha                          2.000000
        third order                    shell-resolved
        anisotropic                    true
        a3                             3.000000
        a5                             4.000000
        cn-shift                       1.200000
        cn-exp                         4.000000
        max-rad                        5.000000

      * Solvation model:               ALPB
        Solvent                        water
        Parameter file                 internal GFN2-xTB/ALPB
        Dielectric constant                8.0200E+01
        Reference state                gsolv=reference [X=1]
        Free energy shift                  2.8945E-03 Eh       1.8164E+00 kcal/mol
        Temperature                        2.9815E+02 K
        Density                            1.0000E+00 kg/L
        Solvent mass                       1.8000E+01 g/mol
        Interaction kernel             P16
        Born radius scaling (c1)           1.4744E+00
        Born radii integrator          GBOBC
        Born offset                        0.0000E+00 a0       0.0000E+00 AA
        H-bond correction              true
        Ion screening                  false
        Surface tension                    1.0000E-05 Eh       1.5569E+01 dyn/cm
        Grid points                               974 per atom

          ...................................................
          :                      SETUP                      :
          :.................................................:
          :  # basis functions                  85          :
          :  # atomic orbitals                  85          :
          :  # shells                           49          :
          :  # electrons                        92          :
          :  max. iterations                   250          :
          :  Hamiltonian                  GFN2-xTB          :
          :  restarted?                      false          :
          :  GBSA solvation                   true          :
          :  PC potential                    false          :
          :  electronic temp.          300.0000000     K    :
          :  accuracy                    1.0000000          :
          :  -> integral cutoff          0.2500000E+02      :
          :  -> integral neglect         0.1000000E-07      :
          :  -> SCF convergence          0.1000000E-05 Eh   :
          :  -> wf. convergence          0.1000000E-03 e    :
          :  Broyden damping             0.4000000          :
          :  net charge                          0          :
          :  unpaired electrons                  0          :
          ...................................................

 iter      E             dE          RMSdq      gap      omega  full diag
   1    -52.3234142 -0.523234E+02  0.467E+00    3.73       0.0  T
   2    -52.3780094 -0.545952E-01  0.263E+00    3.54       1.0  T
   3    -52.3732849  0.472449E-02  0.120E+00    3.68       1.0  T
   4    -52.3850337 -0.117487E-01  0.267E-01    3.66       1.0  T
   5    -52.3860964 -0.106274E-02  0.901E-02    3.66       1.0  T
   6    -52.3861605 -0.640789E-04  0.376E-02    3.65       1.0  T
   7    -52.3861651 -0.458631E-05  0.138E-02    3.65       1.3  T
   8    -52.3861665 -0.137980E-05  0.498E-03    3.65       3.6  T
   9    -52.3861667 -0.223801E-06  0.221E-03    3.65       8.1  T
  10    -52.3861667 -0.302827E-07  0.102E-03    3.65      17.7  T
  11    -52.3861667 -0.370202E-08  0.490E-04    3.65      36.6  T
  12    -52.3861667 -0.237622E-08  0.198E-04    3.65      90.6  T

   *** convergence criteria satisfied after 12 iterations ***

         #    Occupation            Energy/Eh            Energy/eV
      -------------------------------------------------------------
         1        2.0000           -0.8233033             -22.4032
       ...           ...                  ...                  ...
        40        2.0000           -0.4313034             -11.7364
        41        2.0000           -0.4248989             -11.5621
        42        2.0000           -0.4226078             -11.4997
        43        2.0000           -0.4176296             -11.3643
        44        2.0000           -0.4142813             -11.2732
        45        2.0000           -0.4065973             -11.0641
        46        2.0000           -0.3930405             -10.6952 (HOMO)
        47                         -0.2588408              -7.0434 (LUMO)
        48                         -0.2432096              -6.6181
        49                         -0.2372030              -6.4546
        50                         -0.2247450              -6.1156
        51                         -0.2089999              -5.6872
       ...                                ...                  ...
        85                          0.6805914              18.5198
      -------------------------------------------------------------
                  HL-Gap            0.1341997 Eh            3.6518 eV
             Fermi-level           -0.3259406 Eh           -8.8693 eV

 SCC (total)                   0 d,  0 h,  0 min,  0.051 sec
 SCC setup                      ...        0 min,  0.004 sec (  7.873%)
 Dispersion                     ...        0 min,  0.000 sec (  0.782%)
 classical contributions        ...        0 min,  0.000 sec (  0.140%)
 integral evaluation            ...        0 min,  0.007 sec ( 14.072%)
 iterations                     ...        0 min,  0.026 sec ( 51.354%)
 molecular gradient             ...        0 min,  0.013 sec ( 25.351%)
 printout                       ...        0 min,  0.000 sec (  0.385%)

         :::::::::::::::::::::::::::::::::::::::::::::::::::::
         ::                     SUMMARY                     ::
         :::::::::::::::::::::::::::::::::::::::::::::::::::::
         :: total energy             -51.624665985720 Eh    ::
         :: total w/o Gsasa/hb       -51.621040176356 Eh    ::
         :: gradient norm              0.000081958165 Eh/a0 ::
         :: HOMO-LUMO gap              3.651759961709 eV    ::
         ::.................................................::
         :: SCC energy               -52.386189824998 Eh    ::
         :: -> isotropic ES            0.088352351862 Eh    ::
         :: -> anisotropic ES          0.000119325288 Eh    ::
         :: -> anisotropic XC          0.016382242055 Eh    ::
         :: -> dispersion             -0.031475727510 Eh    ::
         :: -> Gsolv                  -0.023738210053 Eh    ::
         ::    -> Gelec               -0.020112400689 Eh    ::
         ::    -> Gsasa                0.002030192021 Eh    ::
         ::    -> Ghb                 -0.008550550545 Eh    ::
         ::    -> Gshift               0.002894549160 Eh    ::
         :: repulsion energy           0.761523839277 Eh    ::
         :: add. restraining           0.000000000000 Eh    ::
         :: total charge              -0.000000000000 e     ::
         :::::::::::::::::::::::::::::::::::::::::::::::::::::

           -------------------------------------------------
          |                Property Printout                |
           -------------------------------------------------

    * Orbital Energies and Occupations

         #    Occupation            Energy/Eh            Energy/eV
      -------------------------------------------------------------
         1        2.0000           -0.8233033             -22.4032
       ...           ...                  ...                  ...
        34        2.0000           -0.4776144             -12.9965
        35        2.0000           -0.4705409             -12.8041
        36        2.0000           -0.4692867             -12.7699
        37        2.0000           -0.4608339             -12.5399
        38        2.0000           -0.4491113             -12.2209
        39        2.0000           -0.4465598             -12.1515
        40        2.0000           -0.4313034             -11.7364
        41        2.0000           -0.4248989             -11.5621
        42        2.0000           -0.4226078             -11.4997
        43        2.0000           -0.4176296             -11.3643
        44        2.0000           -0.4142813             -11.2732
        45        2.0000           -0.4065973             -11.0641
        46        2.0000           -0.3930405             -10.6952 (HOMO)
        47                         -0.2588408              -7.0434 (LUMO)
        48                         -0.2432096              -6.6181
        49                         -0.2372030              -6.4546
        50                         -0.2247450              -6.1156
        51                         -0.2089999              -5.6872
        52                         -0.1158770              -3.1532
        53                         -0.0843240              -2.2946
        54                          0.0268944               0.7318
        55                          0.0578635               1.5745
        56                          0.0769061               2.0927
        57                          0.0840872               2.2881
       ...                                ...                  ...
        85                          0.6805914              18.5198
      -------------------------------------------------------------
                  HL-Gap            0.1341997 Eh            3.6518 eV
             Fermi-level           -0.3259406 Eh           -8.8693 eV

     #   Z          covCN         q      C6AA      α(0)
     1   6 C        3.756    -0.115    22.764     6.803
     2   6 C        3.856    -0.054    21.502     6.595
     3   1 H        0.924     0.076     2.026     2.226
     4   6 C        2.982     0.015    27.660     8.627
     5   6 C        2.920    -0.048    29.201     8.861
     6   6 C        2.931    -0.039    28.972     8.827
     7   6 C        2.972    -0.005    28.144     8.702
     8   6 C        2.791     0.162    24.480     8.105
     9   6 C        2.920    -0.056    29.387     8.890
    10   9 F        0.786    -0.273    12.015     4.095
    11   6 C        2.976     0.014    27.693     8.632
    12   6 C        2.924    -0.032    28.795     8.800
    13   6 C        2.919    -0.034    28.848     8.808
    14   6 C        2.920    -0.034    28.854     8.809
    15   6 C        2.919    -0.034    28.850     8.808
    16   6 C        2.925    -0.038    28.957     8.825
    17   6 C        2.697     0.372    20.696     7.446
    18   8 O        0.856    -0.457    22.857     6.410
    19   8 O        1.659    -0.419    21.212     6.217
    20   1 H        0.925     0.057     2.234     2.337
    21   1 H        0.925     0.055     2.258     2.350
    22   1 H        0.925     0.065     2.139     2.287
    23   1 H        0.926     0.074     2.047     2.237
    24   1 H        0.926     0.071     2.077     2.254
    25   1 H        0.926     0.061     2.191     2.315
    26   1 H        0.926     0.034     2.536     2.490
    27   1 H        0.926     0.038     2.475     2.460
    28   1 H        0.926     0.041     2.434     2.440
    29   1 H        0.926     0.044     2.396     2.420
    30   1 H        0.926     0.046     2.375     2.410
    31   1 H        0.804     0.415     0.458     1.063

 Mol. C6AA /au·bohr⁶  :      11900.407007
 Mol. C8AA /au·bohr⁸  :     290229.990897
 Mol. α(0) /au        :        171.548357


Wiberg/Mayer (AO) data.
largest (>0.10) Wiberg bond orders for each atom

 ---------------------------------------------------------------------------
     #   Z sym  total        # sym  WBO       # sym  WBO       # sym  WBO
 ---------------------------------------------------------------------------
     1   6 C    3.987 --     2 C    0.988    20 H    0.984    21 H    0.984
                            22 H    0.984
     2   6 C    3.991 --     1 C    0.988     4 C    0.974     3 H    0.957
                            17 C    0.950
     3   1 H    0.994 --     2 C    0.957
     4   6 C    3.981 --     5 C    1.404     9 C    1.401     2 C    0.974
                             7 C    0.100
     5   6 C    3.987 --     6 C    1.454     4 C    1.404    23 H    0.964
     6   6 C    3.986 --     5 C    1.454     7 C    1.383    24 H    0.964
                             9 C    0.106
     7   6 C    3.984 --     6 C    1.383     8 C    1.352    11 C    1.044
                             4 C    0.100
     8   6 C    3.863 --     9 C    1.420     7 C    1.352    10 F    0.920
     9   6 C    3.988 --     8 C    1.420     4 C    1.401    25 H    0.963
                             6 C    0.106
    10   9 F    1.040 --     8 C    0.920
    11   6 C    3.989 --    12 C    1.393    16 C    1.387     7 C    1.044
                            14 C    0.106
    12   6 C    3.991 --    13 C    1.448    11 C    1.393    26 H    0.970
                            15 C    0.109
    13   6 C    3.991 --    12 C    1.448    14 C    1.437    27 H    0.970
                            16 C    0.109
    14   6 C    3.987 --    13 C    1.437    15 C    1.433    28 H    0.971
                            11 C    0.106
    15   6 C    3.991 --    16 C    1.453    14 C    1.433    29 H    0.970
                            12 C    0.109
    16   6 C    3.990 --    15 C    1.453    11 C    1.387    30 H    0.968
                            13 C    0.109
    17   6 C    3.900 --    18 O    1.728    19 O    1.166     2 C    0.950
    18   8 O    2.003 --    17 C    1.728    19 O    0.161
    19   8 O    2.182 --    17 C    1.166    31 H    0.804    18 O    0.161
    20   1 H    0.996 --     1 C    0.984
    21   1 H    0.997 --     1 C    0.984
    22   1 H    0.996 --     1 C    0.984
    23   1 H    0.994 --     5 C    0.964
    24   1 H    0.994 --     6 C    0.964
    25   1 H    0.996 --     9 C    0.963
    26   1 H    0.999 --    12 C    0.970
    27   1 H    0.998 --    13 C    0.970
    28   1 H    0.998 --    14 C    0.971
    29   1 H    0.997 --    15 C    0.970
    30   1 H    0.998 --    16 C    0.968
    31   1 H    0.828 --    19 O    0.804
 ---------------------------------------------------------------------------

Topologies differ in total number of bonds
Writing topology from bond orders to xtbtopo.mol

molecular dipole:
                 x           y           z       tot (Debye)
 q only:        0.340      -2.291      -2.196
   full:        0.392      -2.323      -2.218       8.224
molecular quadrupole (traceless):
                xx          xy          yy          xz          yz          zz
 q only:       -1.824      12.667       3.337      15.662      -2.034      -1.513
  q+dip:        0.507      13.458       0.178      17.432       0.953      -0.685
   full:       -1.534      13.854       2.762      17.854      -1.516      -1.228


           -------------------------------------------------
          | TOTAL ENERGY              -51.624665985720 Eh   |
          | GRADIENT NORM               0.000081958165 Eh/α |
          | HOMO-LUMO GAP               3.651759961709 eV   |
           -------------------------------------------------

------------------------------------------------------------------------
 * finished run on 2025/04/11 at 13:31:10.567     
------------------------------------------------------------------------
 total:
 * wall-time:     0 d,  0 h,  0 min,  0.084 sec
 *  cpu-time:     0 d,  0 h,  0 min,  0.068 sec
 * ratio c/w:     0.815 speedup
 SCF:
 * wall-time:     0 d,  0 h,  0 min,  0.051 sec
 *  cpu-time:     0 d,  0 h,  0 min,  0.051 sec
 * ratio c/w:     0.999 speedup

