33
 energy: -897.809654055314 gnorm: 0.003333076046 xtb: 6.7.1 (edcfbbe)
C           -4.53520107336192       -1.15037727155311       -0.38895101423595
C           -3.73297306893211       -2.29090522613954       -0.44774821773347
C           -2.35320978106474       -2.18262802708617       -0.33820437245464
C           -1.75533406563110       -0.93163355499384       -0.16639137899283
C           -2.56448921387235        0.21514609715252       -0.10665961644111
C           -3.95264353849196        0.09706483491528       -0.22047174977586
C           -1.95568426417570        1.54529683890474        0.07075150133403
O           -2.65442235660094        2.56402052017678        0.09414215209367
C           -0.48131338750344        1.62303616173366        0.21540867841206
C            0.07859539666259        2.87579434768662        0.41076286853043
C            1.46433839253653        3.00396519222106        0.54387478967453
C            2.28650482268767        1.90267417360169        0.48243899181577
C            1.75267103219834        0.60165068416832        0.28535694451582
C            0.32953581606535        0.45761550948521        0.14901907858036
C           -0.27885822988728       -0.84389141351885       -0.04946880278009
O            0.39097835591056       -1.89813560069856       -0.12397919134601
N            2.57390395461599       -0.46399155824146        0.23563297877821
C            4.02377026350170       -0.40690140172505        0.30508764741997
C            4.60310879589226       -1.80225370963005        0.16325950112971
O            4.27071339731708       -2.41251054142898       -1.09652701632597
H           -5.61310567560403       -1.23766088704198       -0.47496255689916
H           -4.18735362838622       -3.26740365364405       -0.57956973345188
H           -1.72663810029423       -3.06591048491348       -0.38347928978200
H           -4.56306889707439        0.99199545853864       -0.17413148168251
H           -0.56478637323331        3.74575308250038        0.45796079988083
H            1.90022629674968        3.98598497707343        0.69733915918581
H            3.35730789612890        2.02709199406001        0.58785861779075
H            2.12312331472656       -1.35594732974931        0.05473710899194
H            4.35591515861602        0.00898609586644        1.26657112207188
H            4.42740502555100        0.23753788448583       -0.48916199356077
H            4.19628653309318       -2.46550732435498        0.93263368038625
H            5.69048202726457       -1.74456533872482        0.29288608411572
H            4.67689787102349       -1.87809201715610       -1.79146742647552
33
 energy: -897.809668077124 gnorm: 0.001729793339 xtb: 6.7.1 (edcfbbe)
C           -4.53600727367659       -1.14988422995144       -0.38872116731308
C           -3.73393626487039       -2.29049838069874       -0.44818570164771
C           -2.35405751891121       -2.18255421651022       -0.33898792305580
C           -1.75610363665225       -0.93160793574329       -0.16705821065220
C           -2.56509159714538        0.21520714021111       -0.10649767280908
C           -3.95334035506314        0.09748952861590       -0.21957900339340
C           -1.95574445606796        1.54531222609023        0.07060362472678
O           -2.65444622041937        2.56372455953289        0.09845647079705
C           -0.48118161218829        1.62277706481075        0.21527514859967
C            0.07899558626535        2.87539083196080        0.41048500303935
C            1.46499787032128        3.00282205011903        0.54332981582611
C            2.28671015959046        1.90121962164297        0.48203822247062
C            1.75248563520008        0.60031944507209        0.28497841454928
C            0.32913740004395        0.45700039500716        0.14862369387639
C           -0.27933706140280       -0.84411473282082       -0.05170251585163
O            0.39037795233057       -1.89838288380592       -0.12730724378708
N            2.57367220855808       -0.46493669890913        0.23545092281381
C            4.02431344015756       -0.40640095203198        0.30448496587955
C            4.60442454205457       -1.80078483842043        0.16386662519801
O            4.27229928349737       -2.41318498007686       -1.09354332018943
H           -5.61390482974098       -1.23755853823798       -0.47460288345075
H           -4.18875249607811       -3.26679898751459       -0.58010115083219
H           -1.72839634701069       -3.06642261829555       -0.38499835574964
H           -4.56444899946627        0.99191410138560       -0.17289279423891
H           -0.56307383986265        3.74637338297705        0.45769007539732
H            1.90182866417142        3.98442958960845        0.69680479106861
H            3.35758931369147        2.02518477837145        0.58756280218697
H            2.12377190382741       -1.35721268611547        0.05405437685367
H            4.35534065774130        0.01081802744140        1.26567653557242
H            4.42617826091484        0.23868576378301       -0.49022153379159
H            4.19952041237165       -2.46266087421198        0.93581458230455
H            5.69205804188369       -1.74174407724915        0.29365280358679
H            4.67680325904713       -1.87862364515659       -1.78990283954986
33
 energy: -897.809679587779 gnorm: 0.003163830315 xtb: 6.7.1 (edcfbbe)
C           -4.53934213389364       -1.14768816138740       -0.38852172057410
C           -3.73808159398477       -2.28873868509698       -0.45069686953618
C           -2.35774419068641       -2.18210360052637       -0.34345655637822
C           -1.75915100455146       -0.93162954065852       -0.17039530832543
C           -2.56737768495338        0.21542753354462       -0.10612593262507
C           -3.95584980014702        0.09929854046234       -0.21783561214052
C           -1.95690603763876        1.54443935273477        0.07904585386370
O           -2.65499575945307        2.56248703471269        0.11657395479818
C           -0.48088386330973        1.62151784848895        0.21476525493688
C            0.08052518101297        2.87368258721063        0.40802670500397
C            1.46726061009711        2.99870787969207        0.54022018109337
C            2.28733319318505        1.89612320480316        0.47953415355266
C            1.75181446212609        0.59558089016752        0.28245456484261
C            0.32775065271928        0.45462313381461        0.14686444091269
C           -0.28166806284053       -0.84524156174466       -0.05696857748107
O            0.38774887269275       -1.89914074569873       -0.14048133658328
N            2.57299860164316       -0.46856543373088        0.23430191453653
C            4.02598056947206       -0.40445075708880        0.30242674815863
C            4.61092810363739       -1.79535723382352        0.16761558183086
O            4.27943741127786       -2.41665710448686       -1.08134126042558
H           -5.61729846014206       -1.23612790890853       -0.47331634223741
H           -4.19447127438522       -3.26425222693884       -0.58329452758646
H           -1.73505366938911       -3.06790051502987       -0.39163155421776
H           -4.56885052600109        0.99221938799424       -0.16787993196386
H           -0.55745503000750        3.74769730724868        0.45620440262453
H            1.90709475983221        3.97904392845683        0.69334238477819
H            3.35833732971400        2.01872139387185        0.58534896161185
H            2.12676482566841       -1.36197601448986        0.05019807926624
H            4.35320431191199        0.01842795354687        1.26212688474267
H            4.42182882997839        0.24167276826522       -0.49460504888502
H            4.21343449754232       -2.45238622086901        0.94858863039539
H            5.69929362241827       -1.72996617364781        0.29680847296380
H            4.67607269304134       -1.88219721713159       -1.78335551922358
33
 energy: -897.809687100663 gnorm: 0.002002011762 xtb: 6.7.1 (edcfbbe)
C           -4.53962972368914       -1.14742283058235       -0.38829355671520
C           -3.73849856041879       -2.28851154186377       -0.45113884029931
C           -2.35816149552283       -2.18200593660205       -0.34404630612223
C           -1.75926845086306       -0.93174316862287       -0.17060210230460
C           -2.56740327175536        0.21539665908813       -0.10585486463709
C           -3.95591319106004        0.09933209909334       -0.21702338816016
C           -1.95685703272129        1.54440280212606        0.07830669397786
O           -2.65526936149740        2.56229509285208        0.11875370776269
C           -0.48103309358665        1.62120333454893        0.21509225037142
C            0.08034781602139        2.87335752235529        0.40850029727021
C            1.46698769719326        2.99876109713462        0.53996072155678
C            2.28713459428876        1.89627757423861        0.47923112442289
C            1.75175454304140        0.59560540919256        0.28242516931395
C            0.32778873637706        0.45443053916550        0.14683976336769
C           -0.28174241501994       -0.84526018756644       -0.05808747044412
O            0.38753773877237       -1.89918948849863       -0.14121156091750
N            2.57322438476288       -0.46867018935216        0.23409743908077
C            4.02576905664581       -0.40421115230821        0.30243903714698
C            4.61193818112200       -1.79527078542226        0.16878394917964
O            4.28030090392179       -2.41781530119106       -1.08028717129615
H           -5.61762866633389       -1.23529808883417       -0.47300423947860
H           -4.19486049510026       -3.26398991447145       -0.58396766265721
H           -1.73509643532902       -3.06751233060823       -0.39283891274249
H           -4.56826606254343        0.99270700564661       -0.16703394023093
H           -0.55824133448179        3.74686442337123        0.45640703466107
H            1.90645204950276        3.97933081046492        0.69253202132794
H            3.35807587551602        2.01914248980606        0.58475425434549
H            2.12728304938190       -1.36201858872686        0.04926743925231
H            4.35320111808346        0.01929837268684        1.26181324307867
H            4.42210583966310        0.24081933043593       -0.49512488677770
H            4.21478662930420       -2.45238549059166        0.94950476374567
H            5.70011434819012       -1.72881710693583        0.29712149675452
H            4.67574622772086       -1.88381137919285       -1.78277508459669
33
 energy: -897.809694898371 gnorm: 0.000725072936 xtb: 6.7.1 (edcfbbe)
C           -4.54047125390432       -1.14660359482990       -0.38814503687451
C           -3.73964416196098       -2.28778963000039       -0.45283505832556
C           -2.35924652268112       -2.18167073984953       -0.34634856367548
C           -1.75968401105747       -0.93193285396441       -0.17153521038643
C           -2.56762987214759        0.21531388995274       -0.10510371202353
C           -3.95619227639836        0.09960448900609       -0.21559185585332
C           -1.95691901767433        1.54367942661219        0.08054602975813
O           -2.65573324848434        2.56138097898814        0.12589715946657
C           -0.48128783493836        1.62045246093413        0.21584881179940
C            0.08007981032296        2.87266906281725        0.40885530548677
C            1.46654942202227        2.99868633632471        0.53875162346259
C            2.28676500398944        1.89627078735529        0.47788801530257
C            1.75160595359489        0.59535521363584        0.28180541124897
C            0.32780295258931        0.45384288318683        0.14659736092547
C           -0.28211703128004       -0.84558058846347       -0.05977919980186
O            0.38701048522277       -1.89941629006103       -0.14407501608893
N            2.57376499927442       -0.46906291664591        0.23336889731014
C            4.02539586993783       -0.40334830881355        0.30199632801223
C            4.61428809719183       -1.79456628387737        0.17211156316172
O            4.28245218267492       -2.42139667670786       -1.07628198168214
H           -5.61860313828104       -1.23330951239503       -0.47230431180552
H           -4.19604699515978       -3.26311995568880       -0.58652920654345
H           -1.73556275372212       -3.06669993218658       -0.39657214439121
H           -4.56722935815800        0.99382759003051       -0.16431817243183
H           -0.55982810253298        3.74511941958579        0.45697068938779
H            1.90542187325136        3.97967431169194        0.69014476709753
H            3.35765393257017        2.01963571008287        0.58240548375498
H            2.12872689175572       -1.36228693135168        0.04658452086255
H            4.35295245586502        0.02251685198909        1.26032413889954
H            4.42264814379500        0.23895998272227       -0.49718415000538
H            4.21860153168447       -2.45118420532552        0.95340384653235
H            5.70215992964007       -1.72527000753234        0.29821136335146
H            4.67499440780035       -1.88846179547217       -1.78056948163600
33
 energy: -897.809699080760 gnorm: 0.000991667864 xtb: 6.7.1 (edcfbbe)
C           -4.54164233363756       -1.14539961131020       -0.38820025680635
C           -3.74119081726977       -2.28667627891359       -0.45565485175730
C           -2.36068723067988       -2.18121895311015       -0.34996237082962
C           -1.76042726694687       -0.93209579683577       -0.17296043741854
C           -2.56810821120080        0.21526578889370       -0.10370076161536
C           -3.95679580106197        0.10020681754653       -0.21359206241072
C           -1.95756977207562        1.54307723916478        0.08590317879472
O           -2.65652903933027        2.56039072082004        0.13720553566049
C           -0.48157676647075        1.61937971852511        0.21696586607191
C            0.07995816157947        2.87172875472420        0.40896358307720
C            1.46643145161998        2.99796715589763        0.53680704633388
C            2.28649775358283        1.89542664211607        0.47550717030636
C            1.75129218076972        0.59439189171859        0.28029388766981
C            0.32746707107683        0.45275291904145        0.14610824743796
C           -0.28261728912429       -0.84646774075884       -0.06213492386546
O            0.38639577444423       -1.89996184509722       -0.14922652125703
N            2.57425743313351       -0.46990653881377        0.23208233687420
C            4.02547610753033       -0.40210609299354        0.30060812957095
C            4.61742671699169       -1.79288241850802        0.17663338115046
O            4.28501196030301       -2.42632095054561       -1.06898333470527
H           -5.61989712196547       -1.23121811075262       -0.47168091184478
H           -4.19790608639270       -3.26163320287787       -0.59090078963396
H           -1.73704186813305       -3.06614360237762       -0.40246120642559
H           -4.56698553190671        0.99488390027806       -0.15994979732595
H           -0.56060937004085        3.74363954662687        0.45783257637947
H            1.90535290464931        3.97914613642035        0.68681614051979
H            3.35749288903372        2.01907835270100        0.57857207016793
H            2.13059545908450       -1.36317223476808        0.04271083479001
H            4.35241498410695        0.02803434181353        1.25728681386230
H            4.42253443420065        0.23726365319275       -0.50112694617359
H            4.22448114168337       -2.44727201166200        0.96101709176743
H            5.70525858213248       -1.71995687529993        0.30011645646861
H            4.67391647455432       -1.89491524844077       -1.77636062427287
33
 energy: -897.809699080760 gnorm: 0.000991667864 xtb: 6.7.1 (edcfbbe)
C           -4.54164233363756       -1.14539961131020       -0.38820025680635
C           -3.74119081726977       -2.28667627891359       -0.45565485175730
C           -2.36068723067988       -2.18121895311015       -0.34996237082962
C           -1.76042726694687       -0.93209579683577       -0.17296043741854
C           -2.56810821120080        0.21526578889370       -0.10370076161536
C           -3.95679580106197        0.10020681754653       -0.21359206241072
C           -1.95756977207562        1.54307723916478        0.08590317879472
O           -2.65652903933027        2.56039072082004        0.13720553566049
C           -0.48157676647075        1.61937971852511        0.21696586607191
C            0.07995816157947        2.87172875472420        0.40896358307720
C            1.46643145161998        2.99796715589763        0.53680704633388
C            2.28649775358283        1.89542664211607        0.47550717030636
C            1.75129218076972        0.59439189171859        0.28029388766981
C            0.32746707107683        0.45275291904145        0.14610824743796
C           -0.28261728912429       -0.84646774075884       -0.06213492386546
O            0.38639577444423       -1.89996184509722       -0.14922652125703
N            2.57425743313351       -0.46990653881377        0.23208233687420
C            4.02547610753033       -0.40210609299354        0.30060812957095
C            4.61742671699169       -1.79288241850802        0.17663338115046
O            4.28501196030301       -2.42632095054561       -1.06898333470527
H           -5.61989712196547       -1.23121811075262       -0.47168091184478
H           -4.19790608639270       -3.26163320287787       -0.59090078963396
H           -1.73704186813305       -3.06614360237762       -0.40246120642559
H           -4.56698553190671        0.99488390027806       -0.15994979732595
H           -0.56060937004085        3.74363954662687        0.45783257637947
H            1.90535290464931        3.97914613642035        0.68681614051979
H            3.35749288903372        2.01907835270100        0.57857207016793
H            2.13059545908450       -1.36317223476808        0.04271083479001
H            4.35241498410695        0.02803434181353        1.25728681386230
H            4.42253443420065        0.23726365319275       -0.50112694617359
H            4.22448114168337       -2.44727201166200        0.96101709176743
H            5.70525858213248       -1.71995687529993        0.30011645646861
H            4.67391647455432       -1.89491524844077       -1.77636062427287
