20
 energy: -27.120864120758 gnorm: 0.035429848899 xtb: 6.7.1 (edcfbbe)
C           -2.37122091100404       -0.88667584331093        1.00813073409302
C           -2.10361731725185       -0.73663496522895       -0.48597256601313
C           -1.43684035124408        0.60451942309246       -0.82851016685516
C           -0.13251614504500        0.80086789368593       -0.10753778349397
O            0.10937607526627        1.71012104631430        0.67193927407621
O            0.76111583664345       -0.15503622051993       -0.41609132193489
C            2.06631132320511       -0.06386877843612        0.23895671916375
C            2.89256480590298       -1.22690252231415       -0.24693638309326
H           -3.00802942643566       -0.07486350953096        1.37652438699023
H           -2.87377356355912       -1.83468090426450        1.22250844421292
H           -1.43812220296406       -0.86825159766209        1.58399475179219
H           -3.04534900464936       -0.79177011370073       -1.04243611947182
H           -1.47429058850769       -1.55913881079640       -0.84174614585097
H           -2.08917522431192        1.43745481658400       -0.55483905132112
H           -1.23956818473278        0.65862024383980       -1.90540036383026
H            2.51619923922739        0.89757763108139       -0.02608599662880
H            1.91050296387891       -0.09631166994080        1.32145294805740
H            2.42368651249275       -2.17994862357111        0.01422193982562
H            3.03458959836542       -1.18475355364720       -1.33058326052085
H            3.87641275889632       -1.18673023809820        0.22991202830570
20
 energy: -27.121985539659 gnorm: 0.013855777782 xtb: 6.7.1 (edcfbbe)
C           -2.37045245501691       -0.88302166482986        1.00406194053498
C           -2.09871929577421       -0.73675858057667       -0.48610786657506
C           -1.43744423709128        0.60575372421121       -0.82210947468563
C           -0.13164862193042        0.79329554241078       -0.09957566203068
O            0.11268109798106        1.70052979068102        0.67005535964643
O            0.75869804044247       -0.15032179345208       -0.40786842672076
C            2.05774503530795       -0.06856411767777        0.23273460276868
C            2.89787384565774       -1.22988420751085       -0.24684079960414
H           -3.00519287317046       -0.07354750547411        1.36306874497117
H           -2.86879340340237       -1.82878118413558        1.21090603662958
H           -1.44018480139116       -0.85691047982198        1.57257528858817
H           -3.04047735993176       -0.79758106291740       -1.03631859238914
H           -1.45532657135947       -1.55085552951438       -0.82717280663202
H           -2.09170626511788        1.43508484004603       -0.54735984572020
H           -1.23674262868315        0.65080573395341       -1.89510818411044
H            2.50152101484754        0.89585146965655       -0.02953491351335
H            1.90106872868399       -0.09485139874065        1.31475434798393
H            2.42245554602502       -2.17370696561038        0.01036025077674
H            3.02603335930609       -1.18517184489512       -1.32598136336117
H            3.87686803879026       -1.18777106222634        0.22696343094570
20
 energy: -27.122190398176 gnorm: 0.004762884231 xtb: 6.7.1 (edcfbbe)
C           -2.36940304905800       -0.88113446428674        1.00369534266686
C           -2.09105258156181       -0.73912793807472       -0.48665002072904
C           -1.43574456886122        0.60605865692944       -0.82085437220818
C           -0.12694607681341        0.79205913066128       -0.10004174638449
O            0.11501112239236        1.69526522234615        0.67352482957103
O            0.75751129355725       -0.14812045493137       -0.40454559949449
C            2.04865975340666       -0.06985366984952        0.23053292473364
C            2.89305709412236       -1.23216262535164       -0.24949274130342
H           -3.00659954650880       -0.07286748218336        1.35353158918617
H           -2.86456506136911       -1.82611500501523        1.20835244047903
H           -1.44254002946917       -0.84779058820105        1.57250634293537
H           -3.02926945388637       -0.80838208362901       -1.03845877434143
H           -1.43605716981323       -1.54600272136921       -0.81770423803819
H           -2.09028001335518        1.43181888617054       -0.54051686499806
H           -1.23466900215603        0.65115640608158       -1.89180063801175
H            2.49538953255223        0.89474849856732       -0.02923859000402
H            1.89706878855593       -0.09391272986010        1.31418183136041
H            2.41538548587224       -2.17213566422099        0.00770228882889
H            3.01509284468256       -1.18459657653066       -1.32692498306878
H            3.86820683188380       -1.18531109367691        0.22370304632324
20
 energy: -27.122232127091 gnorm: 0.001855940518 xtb: 6.7.1 (edcfbbe)
C           -2.36978749542419       -0.87971845897519        1.00380084590772
C           -2.08448142871927       -0.74141068705496       -0.48675671605868
C           -1.43522710527323        0.60689234322737       -0.82092943603772
C           -0.12693970161250        0.79123349940856       -0.09691052731887
O            0.11397610692502        1.69646058674605        0.67639540427241
O            0.75673072933978       -0.14655432458594       -0.40262613394920
C            2.04508947226404       -0.06950699658037        0.22979606905235
C            2.88856909622293       -1.23334168153943       -0.25216401656064
H           -3.01190785674064       -0.07226839609165        1.34678419357560
H           -2.86218068385731       -1.82590004695411        1.20890379266833
H           -1.44561780854361       -0.84043087772436        1.57668578272087
H           -3.01878215162743       -0.81854645139538       -1.04352007724686
H           -1.42210575278414       -1.54481454956530       -0.81098130369350
H           -2.09073558416632        1.43072399278438       -0.53839317784200
H           -1.23342629633809        0.65388434386352       -1.89146965771478
H            2.49580996627178        0.89457533306126       -0.02777949193842
H            1.89809036927885       -0.09450446429385        1.31470536500074
H            2.40979994719795       -2.17250918389390        0.00609421020104
H            3.00761014524945       -1.18471152232118       -1.32988976709429
H            3.86377222650999       -1.18595875453970        0.21975670955869
20
 energy: -27.122260292010 gnorm: 0.003045416446 xtb: 6.7.1 (edcfbbe)
C           -2.37150287710989       -0.87775107130063        1.00332304442196
C           -2.07433874775786       -0.74530060351816       -0.48648639566167
C           -1.43509966985616        0.60830603151285       -0.81999425552738
C           -0.12600584521952        0.79622000278774       -0.09680254491833
O            0.11072301436602        1.70127406384859        0.68026785454963
O            0.75677725497525       -0.14185700862235       -0.40112880049786
C            2.04265504174856       -0.06915820569324        0.23040829051835
C            2.88213407566134       -1.23536438748453       -0.25586090919262
H           -3.02295054234876       -0.07243920643043        1.33603111903733
H           -2.85877555800805       -1.82674557935290        1.21042041319904
H           -1.45204311999259       -0.82818459581395        1.58447734003647
H           -3.00243241115173       -0.83649146027052       -1.05202056910144
H           -1.40056928091053       -1.54348885608913       -0.80061339716077
H           -2.09441426153621        1.42768286325140       -0.53389032636847
H           -1.23493174792851        0.66034709249767       -1.89079349659587
H            2.49973782521027        0.89348955886417       -0.02424413305711
H            1.90045129528113       -0.09644071868035        1.31657546111317
H            2.40207436547772       -2.17418077354175        0.00388558438223
H            2.99720694384179       -1.18600661434251       -1.33458571530032
H            3.85956043943081       -1.19031682804617        0.21253350362647
20
 energy: -27.122272025903 gnorm: 0.002190888465 xtb: 6.7.1 (edcfbbe)
C           -2.37313237511892       -0.87735269174359        1.00285433694333
C           -2.07182980340147       -0.74615229724499       -0.48586323943932
C           -1.43508096417676        0.60848902096619       -0.81917491586529
C           -0.12653497427690        0.79750077297822       -0.09556562849627
O            0.11040043386381        1.70377016233152        0.67966856434507
O            0.75712894287927       -0.14026050434229       -0.40070857029218
C            2.04381372797563       -0.06884550777231        0.23073469869292
C            2.88114214831931       -1.23571116584047       -0.25683579874025
H           -3.02770609353228       -0.07339949300236        1.33273206351627
H           -2.85845213105366       -1.82737195841244        1.21049695561129
H           -1.45558618405168       -0.82439273445438        1.58687907567123
H           -2.99777563224522       -0.84082146160033       -1.05441299749977
H           -1.39510410211666       -1.54299155299237       -0.79705101843010
H           -2.09593096522483        1.42660928060481       -0.53276038208744
H           -1.23556890828845        0.66172014312120       -1.89022274194995
H            2.50158465988377        0.89347268045694       -0.02346593366886
H            1.90131063507995       -0.09719202012674        1.31671951416505
H            2.40090525412156       -2.17440415031514        0.00350198091520
H            2.99491571951575       -1.18672417929438       -1.33581245634958
H            3.85975680602086       -1.19234863974128        0.20978856046145
20
 energy: -27.122287060083 gnorm: 0.000653058028 xtb: 6.7.1 (edcfbbe)
C           -2.37661949818181       -0.87683963540004        1.00198559800188
C           -2.06812459158564       -0.74763661545377       -0.48464151249166
C           -1.43494034791382        0.60858932955331       -0.81702310625667
C           -0.12627654475733        0.80056262567412       -0.09508191870225
O            0.11163634988800        1.70758008236774        0.67786924293518
O            0.75782059209590       -0.13789330666571       -0.40041903228209
C            2.04614100106579       -0.06864863913450        0.23119188642277
C            2.88033611825653       -1.23626279953247       -0.25813842758187
H           -3.03683014148488       -0.07570405951211        1.32684275958285
H           -2.85828235262458       -1.82867483026806        1.20978342812698
H           -1.46262782360342       -0.81786549292079        1.59079780046475
H           -2.99055449812804       -0.84722958044343       -1.05792288271425
H           -1.38666391924285       -1.54223182348006       -0.79083220454799
H           -2.09817081400559        1.42460367415930       -0.52959748061203
H           -1.23711364806388        0.66368510702046       -1.88839356434901
H            2.50416221164567        0.89317559561313       -0.02289637503245
H            1.90231265186303       -0.09812814079470        1.31664760618106
H            2.39992361003803       -2.17445092602116        0.00348624404537
H            2.99133539094848       -1.18797095153314       -1.33739330834140
H            3.86079244796350       -1.19506590965231        0.20523731465363
20
 energy: -27.122300057935 gnorm: 0.001577880090 xtb: 6.7.1 (edcfbbe)
C           -2.38275607372964       -0.87613602550775        1.00111917221416
C           -2.06259628481841       -0.74981255961847       -0.48284481259418
C           -1.43430868882981        0.60885864587946       -0.81369571184077
C           -0.12507977100633        0.80359230388275       -0.09399673432010
O            0.11541515135978        1.71219981381917        0.67531007525724
O            0.75844724996977       -0.13598888129860       -0.39945482919185
C            2.04869535238095       -0.06846107916036        0.23110612539251
C            2.87947596080673       -1.23710114613835       -0.26031593968472
H           -3.05267986840298       -0.07970607124527        1.31717016018252
H           -2.85801983627647       -1.83119440832988        1.20833899812456
H           -1.47451700271552       -0.80688088235876        1.59751266276386
H           -2.97954684081397       -0.85639692774769       -1.06350236579890
H           -1.37369095314136       -1.54100593935426       -0.78088825420533
H           -2.10010322712549        1.42219177402618       -0.52426911258413
H           -1.23825710715535        0.66641092154829       -1.88523209477212
H            2.50665590663105        0.89287527778941       -0.02346425173294
H            1.90435673452435       -0.09853919501780        1.31619371058548
H            2.39914687790482       -2.17435673166032        0.00405384285589
H            2.98549876324324       -1.18989725487500       -1.33997287339230
H            3.86211985136770       -1.19705793105695        0.19833430024391
20
 energy: -27.122309600162 gnorm: 0.001220600171 xtb: 6.7.1 (edcfbbe)
C           -2.38789268729678       -0.87569391079926        1.00074366305880
C           -2.05907950475726       -0.75110102745682       -0.48169083884960
C           -1.43356753062647        0.60920763070327       -0.81132595949560
C           -0.12348139781239        0.80465800508157       -0.09328360452169
O            0.11892825644760        1.71458695312531        0.67405366697692
O            0.75864249610195       -0.13617156944749       -0.39796079842712
C            2.04978228368022       -0.06837956465072        0.23045751844831
C            2.87926449410694       -1.23770878887609       -0.26194797540906
H           -3.06588473576057       -0.08339389215693        1.30990037132574
H           -2.85737606257610       -1.83369101391434        1.20732079176254
H           -1.48407496909048       -0.79784713499942        1.60271058949968
H           -2.97211225934276       -0.86231029219038       -1.06748103051359
H           -1.36534407913475       -1.54014053323933       -0.77392254079297
H           -2.10026699288786        1.42115312037622       -0.52032385614366
H           -1.23822288059833        0.66830576592022       -1.88283349751822
H            2.50753129739118        0.89272623682853       -0.02542236252116
H            1.90723671444061       -0.09769687389361        1.31582882432794
H            2.39950431677110       -2.17444198138438        0.00510402863250
H            2.98150814204535       -1.19161531825734       -1.34197705856810
H            3.86316129307186       -1.19685210719320        0.19355213623114
20
 energy: -27.122320973735 gnorm: 0.000420111269 xtb: 6.7.1 (edcfbbe)
C           -2.39621382841222       -0.87487400941707        1.00004766356645
C           -2.05514596005462       -0.75267791857528       -0.48018798784332
C           -1.43237434088723        0.60948935868525       -0.80763207596118
C           -0.12099174387232        0.80532352723749       -0.09178419883752
O            0.12371802697812        1.71754163930215        0.67269141480667
O            0.75901573562746       -0.13755326024065       -0.39459416734997
C            2.05165882343754       -0.06818631602800        0.22911275307329
C            2.87972105683339       -1.23849734994115       -0.26425448723764
H           -3.08737031064493       -0.08989308236425        1.29905273527693
H           -2.85556252918889       -1.83798266849187        1.20599619293045
H           -1.49907572127656       -0.78297682839574        1.61018438367310
H           -2.96260224272457       -0.86970907288665       -1.07340742052838
H           -1.35520498041944       -1.53915985107485       -0.76437469379726
H           -2.09968457520318        1.42003205693315       -0.51452486697137
H           -1.23787966269888        0.67089614787445       -1.87917718064119
H            2.50877971757970        0.89251976686448       -0.03005826582497
H            1.91375784543910       -0.09538099841251        1.31527421840747
H            2.40144940032626       -2.17474723339104        0.00738601990060
H            2.97670410439507       -1.19483144404134       -1.34492277859947
H            3.86555737893925       -1.19573876006075        0.18667480946011
20
 energy: -27.122328147108 gnorm: 0.000634381185 xtb: 6.7.1 (edcfbbe)
C           -2.40697119063709       -0.87405964855903        0.99888507388789
C           -2.05083763165024       -0.75445877481214       -0.47823819620473
C           -1.43079615897347        0.60958991369486       -0.80307357077917
C           -0.11815570631684        0.80597952279120       -0.08944348251593
O            0.12889776892220        1.72111307286706        0.67119388647350
O            0.75980548548715       -0.13918252410955       -0.39000300952669
C            2.05475330439028       -0.06773483242533        0.22737279230778
C            2.88066609740952       -1.23941819470741       -0.26696640184662
H           -3.11437910829085       -0.09875223849668        1.28548853501432
H           -2.85295203691972       -1.84349822271983        1.20509919606236
H           -1.51822892342576       -0.76396613626905        1.61851451640470
H           -2.95161226751607       -0.87780154145184       -1.08031643276671
H           -1.34427903237568       -1.53841908912858       -0.75300957124449
H           -2.09879427009501        1.41863859792324       -0.50752924693663
H           -1.23725924459693        0.67404177650384       -1.87469065280501
H            2.51086976856645        0.89232538611235       -0.03656637667031
H            1.92288356499023       -0.09194733573796        1.31445470556433
H            2.40417547113283       -2.17499917493112        0.01032795963703
H            2.97152418029023       -1.19911109100193       -1.34835834124729
H            3.86894612378183       -1.19474576196625        0.17836068469447
20
 energy: -27.122329839379 gnorm: 0.000455717272 xtb: 6.7.1 (edcfbbe)
C           -2.41205036919790       -0.87346671579466        0.99809176984816
C           -2.04934031559537       -0.75538121383206       -0.47739275541046
C           -1.43005332311808        0.60928533455418       -0.80063823829075
C           -0.11695350266548        0.80616184946318       -0.08785683832415
O            0.13096564099900        1.72258954944026        0.67092382273325
O            0.76044932771422       -0.13973053536078       -0.38773450388552
C            2.05674966344220       -0.06730742844944        0.22648586235789
C            2.88131845011926       -1.23980630692102       -0.26819112477821
H           -3.12713485196001       -0.10335955257710        1.27858218602067
H           -2.85128780498288       -1.84569719139283        1.20488285152621
H           -1.52780128017955       -0.75452480101706        1.62207367236470
H           -2.94690576523925       -0.88122772445761       -1.08366744791441
H           -1.34005467539384       -1.53835047084074       -0.74780775872447
H           -2.09841832281375        1.41770751201147       -0.50417670584598
H           -1.23693654662386        0.67511870782876       -1.87226953860362
H            2.51230902383511        0.89231525956019       -0.04006143096718
H            1.92772552477072       -0.08992393185575        1.31391525845206
H            2.40542302889956       -2.17493340863802        0.01163355601803
H            2.96951776423320       -1.20115305505870       -1.34985202972272
H            3.87073452792974       -1.19472217308641        0.17456146064927
20
 energy: -27.122330275967 gnorm: 0.000152770287 xtb: 6.7.1 (edcfbbe)
C           -2.41407036352867       -0.87337003039829        0.99787500939995
C           -2.04896729232184       -0.75560871794918       -0.47691352893331
C           -1.42973694341209        0.60911120749332       -0.79988966658386
C           -0.11664357564310        0.80607859852085       -0.08716305175739
O            0.13135255509326        1.72259543623223        0.67127669271981
O            0.76088876306612       -0.13975022763655       -0.38724597083023
C            2.05779432000102       -0.06706235847079        0.22602682187833
C            2.88180329193940       -1.23991280729745       -0.26854189936231
H           -3.13211012962276       -0.10534774978615        1.27598699708039
H           -2.85046670340068       -1.84677165483799        1.20520637820816
H           -1.53132732588031       -0.75063906641699        1.62300461157563
H           -2.94562612151499       -0.88182165346971       -1.08432740907333
H           -1.33921635682801       -1.53847598559030       -0.74623185173900
H           -2.09821864970204        1.41740590120073       -0.50321270012726
H           -1.23656853071181        0.67541643451335       -1.87150558779512
H            2.51307462980659        0.89232778404163       -0.04162450363250
H            1.92946149650365       -0.08896799106179        1.31348204625086
H            2.40585674058283       -2.17478949633098        0.01191698445602
H            2.96947370078544       -1.20180630071925       -1.35023218365905
H            3.87150268896104       -1.19501761846087        0.17361487942699
20
 energy: -27.122330146510 gnorm: 0.000305303005 xtb: 6.7.1 (edcfbbe)
C           -2.41620471881281       -0.87324832617911        0.99764443442075
C           -2.04857911047832       -0.75585721168501       -0.47641774433760
C           -1.42940310584338        0.60892191602394       -0.79908679956102
C           -0.11631356720014        0.80598327828360       -0.08641874447837
O            0.13176394010767        1.72258036587931        0.67168328096560
O            0.76135918199695       -0.13976560019910       -0.38674560551016
C            2.05890064840980       -0.06680040562364        0.22553329581057
C            2.88231665924247       -1.24002584137331       -0.26891840837207
H           -3.13740823321207       -0.10745309675073        1.27323048166780
H           -2.84957237104947       -1.84789883978220        1.20554087820504
H           -1.53507029123486       -0.74648373884210        1.62402027541581
H           -2.94427335935843       -0.88247214306346       -1.08505671338409
H           -1.33831332586438       -1.53861175711728       -0.74455640548384
H           -2.09800837588076        1.41708170477827       -0.50218515074855
H           -1.23618188753614        0.67571920112031       -1.87068581943386
H            2.51389279153875        0.89234310114898       -0.04328062614862
H            1.93129324740101       -0.08795603280728        1.31301669113260
H            2.40630939297356       -2.17463743423670        0.01220482484673
H            2.96943804704031       -1.20249320443025       -1.35064018589371
H            3.87231063193325       -1.19533223156840        0.17262010838977
20
 energy: -27.122330444422 gnorm: 0.000116491978 xtb: 6.7.1 (edcfbbe)
C           -2.41475176751194       -0.87308818373442        0.99778221821857
C           -2.04919902171958       -0.75571362223615       -0.47686864435674
C           -1.42962910347256        0.60889045357417       -0.79953259014605
C           -0.11661206745995        0.80580046265475       -0.08665351184960
O            0.13127427124660        1.72196342445589        0.67212671312166
O            0.76125404079186       -0.13958755159853       -0.38748946373134
C            2.05838496123250       -0.06688397181471        0.22568424745574
C            2.88218025880795       -1.23991116564828       -0.26865023344602
H           -3.13423775635028       -0.10617613366845        1.27501586820257
H           -2.84972474529945       -1.84702264353863        1.20540602325350
H           -1.53267392449313       -0.74860090490710        1.62346521876173
H           -2.94566558599291       -0.88184010550097       -1.08469219005369
H           -1.33936398125111       -1.53867630390751       -0.74586952212564
H           -2.09810729533898        1.41724582463042       -0.50295014700262
H           -1.23637797391551        0.67517064782654       -1.87112643391814
H            2.51358513329405        0.89238807779225       -0.04236276007212
H            1.92998080508831       -0.08849733181604        1.31309239523434
H            2.40600110265147       -2.17466663941189        0.01175143402880
H            2.97011236569347       -1.20191255945669       -1.35030755185963
H            3.87182647817221       -1.19528807011882        0.17368099778749
20
 energy: -27.122330544548 gnorm: 0.000056249600 xtb: 6.7.1 (edcfbbe)
C           -2.41397583971737       -0.87309105938471        0.99793484728669
C           -2.04953519955873       -0.75551696123564       -0.47700060793814
C           -1.42971579111695        0.60891174686394       -0.79999437626997
C           -0.11680559164826        0.80560921002789       -0.08687478601792
O            0.13071482853610        1.72115197905687        0.67282030315004
O            0.76130196975510       -0.13935146936085       -0.38826075459200
C            2.05807277918939       -0.06688130033818        0.22565067920841
C            2.88213723501143       -1.23983048101556       -0.26845775596021
H           -3.13235953181502       -0.10550871748428        1.27617202029250
H           -2.84974801613032       -1.84663939575114        1.20559688708610
H           -1.53121370972444       -0.74978555561548        1.62286783927553
H           -2.94654155535159       -0.88120423532136       -1.08412265235597
H           -1.34024280374190       -1.53874080554349       -0.74666766454244
H           -2.09809511609290        1.41741023116674       -0.50361887566635
H           -1.23632551785487        0.67485444904779       -1.87157569055731
H            2.51351922011407        0.89243064657759       -0.04188683300357
H            1.92907056466098       -0.08872263130943        1.31300687584030
H            2.40569206105128       -2.17464167094534        0.01133127125042
H            2.97085611506266       -1.20150943350591       -1.35004872483677
H            3.87145009354436       -1.19535084235364        0.17463006585346
20
 energy: -27.122330769751 gnorm: 0.000081411168 xtb: 6.7.1 (edcfbbe)
C           -2.41333011778816       -0.87282057216018        0.99821738886630
C           -2.05017526517353       -0.75526448753647       -0.47708126134645
C           -1.42975108198680        0.60880538479070       -0.80059272996200
C           -0.11712942035912        0.80494732948438       -0.08681611391954
O            0.12941317101730        1.71875385839429        0.67532761429272
O            0.76181780096620       -0.13859761752797       -0.39016389601530
C            2.05797480176451       -0.06669248626925        0.22511700580020
C            2.88238831027756       -1.23970527502693       -0.26827528477430
H           -3.13132372342582       -0.10503206893089        1.27719149365079
H           -2.84908929434088       -1.84632367938614        1.20617861632187
H           -1.52991308814808       -0.74970117951022        1.62237581210750
H           -2.94785761004155       -0.88027415367624       -1.08339434173828
H           -1.34166929786198       -1.53897669898765       -0.74749928751606
H           -2.09791621997926        1.41762632240782       -0.50466022498356
H           -1.23597667017446        0.67409222730188       -1.87212686866314
H            2.51398072581364        0.89256092770407       -0.04170831788865
H            1.92777674638341       -0.08868477456558        1.31234931210629
H            2.40514777714499       -2.17448674806282        0.01028743213610
H            2.97290556537745       -1.20087662829184       -1.34971228528055
H            3.87098308470763       -1.19575597657512        0.17648800430886
20
 energy: -27.122331003917 gnorm: 0.000094390835 xtb: 6.7.1 (edcfbbe)
C           -2.41369975283783       -0.87230941115984        0.99841590322467
C           -2.05065394097653       -0.75518722555703       -0.47696119204015
C           -1.42958389222460        0.60854056534858       -0.80089281761306
C           -0.11732718213519        0.80412091292658       -0.08630371318969
O            0.12786108569391        1.71563074246688        0.67902772642884
O            0.76281673036047       -0.13744191194480       -0.39240805632074
C            2.05841684754469       -0.06623089316416        0.22414215690321
C            2.88284410887055       -1.23961281688088       -0.26833665107683
H           -3.13266861097400       -0.10536770267247        1.27695959942318
H           -2.84807635543281       -1.84624922112571        1.20707611247429
H           -1.53049164217974       -0.74755731722882        1.62246782779303
H           -2.94850419255247       -0.87987838235906       -1.08311662630355
H           -1.34256282625785       -1.53930884758265       -0.74737908035156
H           -2.09758851008458        1.41765869186497       -0.50543127163638
H           -1.23532516485583        0.67319550041115       -1.87235628694969
H            2.51516687289156        0.89277678279096       -0.04229343523762
H            1.92712180742483       -0.08806822229266        1.31125066811206
H            2.40452330129945       -2.17419169315155        0.00906701110740
H            2.97529214058233       -1.20045247037835       -1.34960275219046
H            3.87069537001664       -1.19647337673529        0.17817694494584
20
 energy: -27.122331166951 gnorm: 0.000102220441 xtb: 6.7.1 (edcfbbe)
C           -2.41430352743321       -0.87178140912662        0.99860331161018
C           -2.05078006172691       -0.75527340191678       -0.47670699698281
C           -1.42939629793882        0.60827525813240       -0.80105363693779
C           -0.11749862048711        0.80346051781070       -0.08570132362001
O            0.12634417113719        1.71281458454706        0.68261152373018
O            0.76381342817977       -0.13616442745069       -0.39441895549147
C            2.05891478960083       -0.06574013823660        0.22320192313570