 Entering Gaussian System
 *********************************************
 Gaussian 98:
 frequency output generated by the xtb code
 *********************************************
                         Standard orientation:
 --------------------------------------------------------------------
  Center     Atomic     Atomic              Coordinates (Angstroms)
  Number     Number      Type              X           Y           Z
 --------------------------------------------------------------------
    1          6             0       -4.469491   -1.247319   -0.225055
    2          6             0       -3.642736   -2.362142   -0.243845
    3          6             0       -2.270918   -2.208053   -0.167614
    4          6             0       -1.700755   -0.940465   -0.072228
    5          6             0       -2.535612    0.182365   -0.054084
    6          6             0       -3.917492    0.016010   -0.130516
    7          6             0       -1.973701    1.535265    0.044126
    8          8             0       -2.695722    2.530408    0.068559
    9          6             0       -0.505873    1.642849    0.110141
   10          6             0        0.025284    2.919000    0.190197
   11          6             0        1.403646    3.106171    0.252949
   12          6             0        2.245526    2.026958    0.238274
   13          6             0        1.747989    0.701954    0.162311
   14          6             0        0.334403    0.504998    0.093611
   15          6             0       -0.229976   -0.824990    0.007866
   16          8             0        0.455515   -1.861181   -0.002124
   17          7             0        2.590316   -0.334811    0.158466
   18          6             0        4.029533   -0.260460    0.211414
   19          6             0        4.602987   -1.677248    0.305385
   20          8             0        4.229255   -2.493535   -0.779296
   21          1             0       -5.540074   -1.364639   -0.284002
   22          1             0       -4.068492   -3.350530   -0.317772
   23          1             0       -1.610155   -3.062284   -0.180339
   24          1             0       -4.536248    0.901074   -0.113738
   25          1             0       -0.654815    3.756773    0.200608
   26          1             0        1.804639    4.105812    0.311515
   27          1             0        3.310169    2.181593    0.283611
   28          1             0        2.178177   -1.260249    0.056229
   29          1             0        4.352898    0.303858    1.091711
   30          1             0        4.416553    0.236391   -0.687170
   31          1             0        4.207387   -2.176973    1.192330
   32          1             0        5.694908   -1.619494    0.392526
   33          1             0        4.595394   -2.130499   -1.597883
 --------------------------------------------------------------------
     1 basis functions        1 primitive gaussians
     1 alpha electrons        1 beta electrons
 
 Harmonic frequencies (cm**-1), IR intensities (km*mol⁻¹),
 Raman scattering activities (A**4/amu), Raman depolarization ratios,
 reduced masses (AMU), force constants (mDyne/A) and normal coordinates:
                      1                      2                      3
                        a                      a                      a 
 Frequencies --    24.6997                28.6003                50.9102
 Red. masses --    13.2902                12.9319                12.6917
 Frc consts  --     0.0000                 0.0000                 0.0000
 IR Inten    --     2.9038                14.2106                 1.5231
 Raman Activ --     0.0000                 0.0000                 0.0000
 Depolar     --     0.0000                 0.0000                 0.0000
 Atom AN      X      Y      Z        X      Y      Z        X      Y      Z
   1   6    -0.01   0.01  -0.03     0.03   0.01  -0.32    -0.09   0.08   0.02
   2   6    -0.02   0.00   0.12     0.03   0.01  -0.27    -0.11   0.06  -0.04
   3   6    -0.03  -0.01   0.18     0.02  -0.00  -0.07    -0.11   0.02  -0.05
   4   6    -0.01  -0.01   0.08     0.01  -0.01   0.07    -0.07   0.01  -0.01
   5   6     0.00   0.00  -0.07     0.01  -0.01   0.02    -0.05   0.02   0.05
   6   6     0.00   0.02  -0.13     0.02  -0.00  -0.17    -0.06   0.06   0.07
   7   6     0.01   0.01  -0.16    -0.00  -0.01   0.15    -0.02   0.01   0.08
   8   8     0.03   0.02  -0.40    -0.02  -0.03   0.37     0.00   0.02   0.26
   9   6     0.01  -0.01  -0.03     0.00  -0.00   0.05    -0.01  -0.02  -0.05
  10   6     0.02  -0.01  -0.03     0.00   0.01  -0.11     0.02  -0.03  -0.13
  11   6     0.02  -0.03   0.09     0.01   0.02  -0.24     0.02  -0.05  -0.19
  12   6     0.00  -0.04   0.18     0.01   0.02  -0.18    -0.00  -0.08  -0.14
  13   6    -0.01  -0.03   0.15     0.00   0.01   0.02    -0.03  -0.07  -0.07
  14   6    -0.00  -0.02   0.08     0.00  -0.00   0.12    -0.04  -0.04  -0.05
  15   6    -0.01  -0.02   0.14    -0.00  -0.01   0.25    -0.07  -0.03  -0.01
  16   8    -0.03  -0.03   0.28    -0.01  -0.02   0.55    -0.11  -0.05   0.02
  17   7    -0.01  -0.05   0.20     0.00   0.01   0.11    -0.04  -0.09  -0.02
  18   6    -0.01  -0.04   0.15     0.01   0.02  -0.11    -0.04  -0.04   0.20
  19   6     0.01  -0.05  -0.22     0.03   0.02  -0.13     0.05  -0.00   0.16
  20   8     0.03   0.27  -0.51    -0.14  -0.03  -0.05     0.66   0.18  -0.16
  21   1    -0.00   0.01  -0.02     0.01   0.00  -0.14    -0.03   0.03   0.01
  22   1    -0.01  -0.00   0.06     0.01   0.00  -0.11    -0.04   0.02  -0.02
  23   1    -0.01  -0.01   0.09     0.01  -0.00  -0.00    -0.04   0.00  -0.03
  24   1     0.00   0.01  -0.07     0.00  -0.00  -0.06    -0.01   0.02   0.03
  25   1     0.01  -0.00  -0.04     0.00   0.00  -0.04     0.01  -0.00  -0.04
  26   1     0.01  -0.01   0.04     0.00   0.01  -0.11     0.01  -0.02  -0.08
  27   1     0.00  -0.02   0.08     0.00   0.01  -0.08    -0.00  -0.03  -0.05
  28   1    -0.01  -0.01   0.05    -0.00  -0.00   0.07    -0.01  -0.02   0.01
  29   1     0.00  -0.07   0.08     0.04   0.02  -0.05    -0.06  -0.03   0.09
  30   1    -0.01   0.06   0.08    -0.04  -0.01  -0.06     0.02   0.02   0.09
  31   1     0.01  -0.09  -0.10     0.05   0.02  -0.01    -0.07  -0.06  -0.02
  32   1     0.00  -0.02  -0.06     0.01   0.01  -0.08     0.00   0.03   0.17
  33   1     0.00   0.13  -0.10    -0.07  -0.02  -0.03     0.24   0.11   0.02
                      4                      5                      6
                        a                      a                      a 
 Frequencies --    70.5523                97.4123               107.4644
 Red. masses --    11.7922                10.3376                11.4246
 Frc consts  --     0.0000                 0.0000                 0.0000
 IR Inten    --     0.5868                 1.5076                 1.0370
 Raman Activ --     0.0000                 0.0000                 0.0000
 Depolar     --     0.0000                 0.0000                 0.0000
 Atom AN      X      Y      Z        X      Y      Z        X      Y      Z
   1   6     0.04  -0.05   0.16     0.09  -0.07  -0.17    -0.05   0.08  -0.17
   2   6     0.07  -0.03  -0.06     0.11  -0.07   0.18    -0.11   0.03   0.24
   3   6     0.07  -0.01  -0.18     0.09  -0.02   0.29    -0.10  -0.02   0.30
   4   6     0.05  -0.00  -0.11     0.05   0.01   0.10    -0.04  -0.02   0.05
   5   6     0.03  -0.02   0.05     0.03  -0.00  -0.09    -0.01   0.01  -0.14
   6   6     0.03  -0.05   0.20     0.05  -0.05  -0.28    -0.00   0.07  -0.32
   7   6     0.02  -0.01   0.03    -0.01   0.01   0.02     0.01  -0.02   0.02
   8   8     0.00  -0.03   0.18    -0.05  -0.03   0.28     0.03  -0.01   0.29
   9   6     0.02   0.01  -0.11    -0.00   0.05  -0.03     0.01  -0.05   0.01
  10   6     0.03   0.02  -0.26    -0.01   0.05   0.04     0.02  -0.05  -0.06
  11   6     0.03   0.03  -0.26    -0.01   0.06   0.04     0.02  -0.06  -0.08
  12   6     0.02   0.02  -0.04     0.01   0.08  -0.04     0.00  -0.07   0.02
  13   6     0.02   0.02   0.08     0.02   0.09  -0.14    -0.00  -0.07   0.08
  14   6     0.03   0.01  -0.03     0.02   0.07  -0.11    -0.00  -0.06   0.04
  15   6     0.05   0.01  -0.11     0.05   0.05  -0.00    -0.03  -0.05  -0.08
  16   8     0.06   0.02  -0.21     0.08   0.07  -0.03    -0.03  -0.05  -0.42
  17   7    -0.00   0.01   0.34    -0.02   0.07  -0.31     0.03  -0.06   0.23
  18   6    -0.00  -0.04   0.37    -0.03  -0.11   0.16     0.03   0.10   0.01
  19   6    -0.10  -0.10   0.02    -0.31  -0.23   0.14     0.23   0.17  -0.09
  20   8    -0.38   0.18  -0.11    -0.12   0.02  -0.13    -0.03   0.07   0.10
  21   1     0.01  -0.02   0.08     0.03  -0.03  -0.09    -0.01   0.03  -0.09
  22   1     0.02  -0.01  -0.03     0.04  -0.03   0.10    -0.04   0.01   0.13
  23   1     0.03   0.00  -0.09     0.03  -0.00   0.14    -0.04  -0.02   0.15
  24   1     0.00  -0.02   0.10     0.01  -0.02  -0.14     0.01   0.03  -0.16
  25   1     0.01   0.01  -0.10    -0.01   0.01   0.03     0.01  -0.01  -0.03
  26   1     0.01   0.01  -0.11    -0.01   0.02   0.03     0.01  -0.02  -0.04
  27   1     0.01   0.00   0.01     0.00   0.02  -0.01    -0.00  -0.02   0.01
  28   1    -0.00   0.00   0.08    -0.02   0.03  -0.08     0.03  -0.02   0.04
  29   1    -0.00  -0.07   0.15    -0.06  -0.08   0.10     0.03   0.04  -0.01
  30   1     0.01   0.04   0.14     0.09  -0.02   0.10    -0.05   0.04  -0.01
  31   1    -0.01  -0.07  -0.01    -0.20  -0.08  -0.02     0.17   0.05   0.02
  32   1    -0.02  -0.06  -0.03    -0.09  -0.13   0.15     0.07   0.09  -0.13
  33   1    -0.12   0.09  -0.02     0.07   0.03   0.02    -0.10   0.02  -0.02
                      7                      8                      9
                        a                      a                      a 
 Frequencies --   143.3771               150.1513               179.3434
 Red. masses --    11.9736                11.5104                10.4314
 Frc consts  --     0.0000                 0.0000                 0.0000
 IR Inten    --     2.3775                 4.2865                 0.2614
 Raman Activ --     0.0000                 0.0000                 0.0000
 Depolar     --     0.0000                 0.0000                 0.0000
 Atom AN      X      Y      Z        X      Y      Z        X      Y      Z
   1   6    -0.07   0.08   0.11     0.02  -0.06   0.18    -0.01   0.03  -0.19
   2   6    -0.12   0.05   0.05     0.05  -0.04   0.16    -0.01   0.03  -0.20
   3   6    -0.10  -0.02  -0.08     0.05   0.02  -0.09    -0.03  -0.01   0.14
   4   6    -0.02  -0.05  -0.13     0.02   0.05  -0.25    -0.02  -0.03   0.30
   5   6     0.02  -0.02  -0.11    -0.00   0.03  -0.25    -0.01  -0.02   0.31
   6   6     0.00   0.06   0.01    -0.01  -0.03  -0.07    -0.01   0.01   0.16
   7   6     0.05  -0.04  -0.08    -0.03   0.03  -0.12     0.00  -0.01   0.05
   8   8     0.08  -0.03   0.17    -0.07  -0.00   0.33     0.01  -0.01  -0.02
   9   6     0.05  -0.07  -0.19    -0.02   0.06  -0.25     0.01  -0.01  -0.17
  10   6     0.04  -0.08   0.01    -0.02   0.06  -0.27     0.01   0.01  -0.44
  11   6     0.03  -0.08   0.17    -0.03   0.04   0.12    -0.01  -0.00   0.02
  12   6     0.01  -0.08   0.06    -0.03   0.03   0.36    -0.02  -0.02   0.41
  13   6     0.02  -0.07  -0.19    -0.01   0.04   0.13     0.00  -0.01   0.07
  14   6     0.03  -0.08  -0.26    -0.01   0.06  -0.09     0.00  -0.02   0.02
  15   6    -0.01  -0.09  -0.06     0.00   0.06  -0.08    -0.00  -0.02   0.10
  16   8    -0.04  -0.12   0.35    -0.01   0.06   0.19     0.01  -0.01  -0.16
  17   7     0.09  -0.01  -0.35    -0.05   0.01   0.15     0.04   0.02  -0.28
  18   6     0.06   0.14   0.17    -0.02  -0.07  -0.18     0.02   0.03  -0.04
  19   6     0.12   0.17   0.03    -0.01  -0.06  -0.07     0.01   0.03  -0.01
  20   8    -0.24   0.25   0.13     0.17  -0.23  -0.03    -0.02  -0.00   0.03
  21   1    -0.02   0.04   0.07     0.00  -0.03   0.12     0.00   0.02  -0.13
  22   1    -0.05   0.02   0.04     0.02  -0.02   0.11    -0.00   0.01  -0.14
  23   1    -0.04  -0.02  -0.03     0.02   0.01  -0.02    -0.01  -0.01   0.04
  24   1     0.02   0.03   0.01    -0.01  -0.01  -0.02     0.00   0.00   0.05
  25   1     0.01  -0.03   0.03    -0.00   0.02  -0.13     0.01   0.00  -0.23
  26   1     0.01  -0.03   0.12    -0.01   0.01   0.08    -0.00  -0.00   0.03
  27   1     0.00  -0.02   0.05    -0.01   0.01   0.21    -0.01  -0.01   0.23
  28   1     0.06  -0.02  -0.08    -0.03   0.01   0.02     0.02   0.01  -0.11
  29   1    -0.08  -0.00   0.11     0.06   0.01  -0.10    -0.03  -0.00   0.01
  30   1     0.08   0.11   0.11    -0.06  -0.06  -0.10     0.04   0.02   0.01
  31   1     0.10   0.04   0.04    -0.02  -0.00  -0.02     0.00   0.02   0.00
  32   1     0.04   0.05  -0.08    -0.01  -0.00   0.01     0.00   0.00  -0.00
  33   1    -0.13   0.07   0.01     0.07  -0.08  -0.01    -0.00  -0.01   0.00
                     10                     11                     12
                        a                      a                      a 
 Frequencies --   222.7284               251.2932               264.5860
 Red. masses --    10.0166                11.3249                10.3038
 Frc consts  --     0.0000                 0.0000                 0.0000
 IR Inten    --     4.2588                 0.8612                 4.9350
 Raman Activ --     0.0000                 0.0000                 0.0000
 Depolar     --     0.0000                 0.0000                 0.0000
 Atom AN      X      Y      Z        X      Y      Z        X      Y      Z
   1   6     0.11  -0.23  -0.06     0.06  -0.11   0.14    -0.09   0.07   0.07
   2   6     0.22  -0.15  -0.04     0.09  -0.08   0.10    -0.09   0.07   0.05
   3   6     0.17   0.07   0.07     0.08   0.03  -0.17    -0.06   0.02  -0.10
   4   6    -0.06   0.16   0.08    -0.02   0.06  -0.14     0.00  -0.01  -0.06
   5   6    -0.12   0.11   0.07    -0.02   0.06  -0.17    -0.02  -0.03  -0.08
   6   6    -0.10  -0.13   0.04    -0.01  -0.05  -0.16    -0.03   0.04  -0.09
   7   6    -0.10   0.14  -0.00    -0.00   0.06   0.05    -0.05  -0.05   0.04
   8   8    -0.08   0.19   0.01     0.06   0.12  -0.02    -0.13  -0.10  -0.04
   9   6    -0.05   0.12  -0.08     0.00   0.00   0.29    -0.06  -0.01   0.18
  10   6     0.08   0.06   0.05     0.12  -0.02  -0.12    -0.16   0.04  -0.03
  11   6     0.11  -0.09   0.06     0.13  -0.09  -0.18    -0.16   0.11  -0.12
  12   6     0.06  -0.13  -0.05     0.06  -0.14   0.12    -0.08   0.15   0.04
  13   6    -0.03  -0.09  -0.11    -0.05  -0.10   0.19     0.07   0.09   0.08
  14   6    -0.06   0.11  -0.15    -0.05  -0.03   0.41     0.03   0.04   0.20
  15   6    -0.09   0.16  -0.02    -0.05   0.01   0.11     0.02   0.04   0.06
  16   8    -0.16   0.14   0.02    -0.09  -0.02  -0.05     0.08   0.08  -0.01
  17   7    -0.12  -0.18  -0.05    -0.06  -0.09  -0.36     0.15   0.11  -0.27
  18   6    -0.12  -0.10   0.17    -0.09   0.07  -0.07     0.17  -0.13   0.24
  19   6     0.24   0.02  -0.10    -0.09   0.11   0.07     0.26  -0.18  -0.13
  20   8     0.08  -0.13   0.07    -0.07   0.18   0.03     0.11  -0.31   0.00
  21   1     0.04  -0.11  -0.04     0.01  -0.05   0.11    -0.03   0.02   0.06
  22   1     0.10  -0.06  -0.03     0.04  -0.03   0.08    -0.03   0.02   0.04
  23   1     0.10   0.06   0.03     0.05   0.03  -0.07    -0.03  -0.01  -0.04
  24   1    -0.08  -0.08   0.01    -0.03  -0.03  -0.06     0.01   0.03  -0.04
  25   1     0.05   0.04   0.05     0.06   0.01  -0.12    -0.06  -0.00  -0.04
  26   1     0.05  -0.04   0.05     0.06  -0.03  -0.14    -0.06   0.04  -0.09
  27   1     0.02  -0.05  -0.01     0.02  -0.06   0.01    -0.02   0.07   0.00
  28   1    -0.04  -0.05   0.02    -0.00  -0.03  -0.10     0.02   0.03  -0.02
  29   1    -0.08  -0.08   0.10    -0.09   0.04  -0.01    -0.01  -0.15   0.17
  30   1    -0.02   0.06   0.10     0.01   0.02  -0.01     0.14   0.07   0.17
  31   1     0.22  -0.03   0.01    -0.06   0.04   0.01     0.18  -0.08  -0.01
  32   1     0.07   0.10  -0.15    -0.03   0.02   0.05     0.08  -0.00  -0.13
  33   1    -0.16   0.03  -0.04     0.00   0.05   0.02    -0.13  -0.02  -0.05
                     13                     14                     15
                        a                      a                      a 
 Frequencies --   299.8989               331.1621               354.3643
 Red. masses --    11.5479                12.3338                 3.7065
 Frc consts  --     0.0000                 0.0000                 0.0000
 IR Inten    --    23.9503                30.2358               219.8792
 Raman Activ --     0.0000                 0.0000                 0.0000
 Depolar     --     0.0000                 0.0000                 0.0000
 Atom AN      X      Y      Z        X      Y      Z        X      Y      Z
   1   6    -0.11  -0.21  -0.02     0.17   0.05   0.01    -0.10  -0.08  -0.00
   2   6     0.02  -0.11  -0.01     0.16   0.05   0.01    -0.10  -0.08  -0.03
   3   6    -0.01   0.10   0.01     0.15   0.06   0.00    -0.09  -0.05   0.01
   4   6    -0.14   0.15   0.00     0.09   0.06   0.01    -0.07  -0.04  -0.00
   5   6    -0.25   0.08  -0.00     0.09   0.08   0.01    -0.06  -0.04  -0.03
   6   6    -0.26  -0.12  -0.01     0.11   0.07   0.00    -0.08  -0.07   0.01
   7   6    -0.04   0.02  -0.00     0.08   0.04   0.01     0.04  -0.05  -0.03
   8   8     0.28   0.26   0.03     0.40   0.27   0.03     0.10  -0.02   0.02
   9   6     0.01  -0.14  -0.01     0.00  -0.17  -0.01     0.06   0.02  -0.03
  10   6    -0.07  -0.11  -0.00    -0.22  -0.10  -0.01     0.07   0.03  -0.01
  11   6    -0.10   0.00  -0.00    -0.28   0.08  -0.01     0.07   0.06   0.04
  12   6     0.00   0.08  -0.00    -0.22   0.12  -0.01     0.09   0.07  -0.01
  13   6     0.15   0.02   0.01    -0.09   0.06  -0.00     0.06   0.08   0.02
  14   6     0.12  -0.06  -0.01    -0.01  -0.14  -0.01     0.05   0.03   0.03
  15   6    -0.08   0.02  -0.01     0.07  -0.16  -0.00    -0.04   0.04   0.02
  16   8    -0.25  -0.06  -0.01    -0.09  -0.31  -0.02    -0.02   0.06  -0.01
  17   7     0.32   0.12   0.07    -0.18   0.01  -0.03     0.04   0.06  -0.00
  18   6     0.34   0.03  -0.02    -0.20  -0.03   0.03     0.05  -0.08  -0.13
  19   6     0.06  -0.10   0.04    -0.05   0.03  -0.04    -0.07  -0.07   0.14
  20   8    -0.09   0.07  -0.04     0.09  -0.11   0.01     0.17   0.01   0.02
  21   1    -0.03  -0.10  -0.01     0.05   0.01   0.01    -0.03  -0.02   0.00
  22   1     0.05  -0.05  -0.00     0.04   0.02   0.01    -0.02  -0.02  -0.02
  23   1     0.03   0.05   0.01     0.05   0.02  -0.00    -0.03  -0.02   0.01
  24   1    -0.12  -0.06  -0.01     0.03   0.02  -0.00    -0.03  -0.02   0.01
  25   1    -0.04  -0.05   0.00    -0.11  -0.07  -0.01     0.02   0.01  -0.01
  26   1    -0.06   0.01  -0.00    -0.11   0.03  -0.00     0.01   0.02   0.02
  27   1    -0.00   0.05  -0.00    -0.07   0.06   0.00     0.03   0.02  -0.01
  28   1     0.10   0.03  -0.01    -0.07   0.01   0.03    -0.02   0.02   0.06
  29   1     0.13   0.02  -0.03    -0.07  -0.02   0.03     0.05   0.05  -0.10
  30   1     0.10  -0.03  -0.03    -0.05   0.02   0.03     0.01  -0.11  -0.09
  31   1    -0.06   0.00  -0.00     0.03  -0.01  -0.00    -0.06  -0.03   0.01
  32   1     0.02  -0.11   0.05    -0.01   0.07  -0.03    -0.02  -0.04   0.08
  33   1     0.17  -0.10   0.03    -0.17   0.10  -0.03    -0.65   0.54  -0.07
                     16                     17                     18
                        a                      a                      a 
 Frequencies --   370.6023               379.4572               385.5841
 Red. masses --    11.4256                 9.6083                10.8377
 Frc consts  --     0.0000                 0.0000                 0.0000
 IR Inten    --     6.5788                 0.1891                 1.0095
 Raman Activ --     0.0000                 0.0000                 0.0000
 Depolar     --     0.0000                 0.0000                 0.0000
 Atom AN      X      Y      Z        X      Y      Z        X      Y      Z
   1   6    -0.10  -0.14  -0.02    -0.01  -0.01   0.14     0.02   0.02  -0.28
   2   6    -0.19  -0.22  -0.00    -0.02  -0.01   0.21    -0.01  -0.01   0.27
   3   6    -0.18  -0.20  -0.02     0.02   0.02  -0.43     0.01   0.01  -0.02
   4   6    -0.11  -0.18  -0.03    -0.02  -0.02   0.30     0.02   0.02  -0.30
   5   6     0.00  -0.10   0.01    -0.02  -0.02   0.37    -0.02  -0.01   0.28
   6   6    -0.01  -0.15  -0.01     0.02   0.02  -0.42    -0.00   0.00   0.05
   7   6     0.19  -0.07   0.03    -0.01  -0.01   0.18    -0.02  -0.01   0.32
   8   8     0.40   0.04   0.01     0.00   0.00  -0.06    -0.01   0.01  -0.15
   9   6     0.16   0.10   0.04     0.00   0.00  -0.09    -0.02  -0.02   0.21
  10   6     0.17   0.14   0.03     0.01   0.00  -0.08    -0.01  -0.01   0.07
  11   6     0.17   0.23  -0.01    -0.00  -0.00   0.10     0.01  -0.00  -0.27
  12   6     0.09   0.16   0.03     0.01   0.00  -0.03    -0.01  -0.02   0.25
  13   6    -0.04   0.19   0.01     0.01   0.01  -0.15     0.00  -0.01   0.05
  14   6    -0.01   0.05  -0.01     0.01   0.01  -0.11     0.02   0.01  -0.29
  15   6    -0.10   0.01  -0.02    -0.01  -0.00   0.13     0.02   0.02  -0.35
  16   8    -0.09   0.03   0.01     0.01   0.01  -0.05    -0.01  -0.00   0.18
  17   7    -0.16   0.13  -0.01    -0.00  -0.00   0.10     0.01  -0.01   0.00
  18   6    -0.19   0.06   0.10     0.00  -0.01  -0.01     0.01  -0.00  -0.03
  19   6    -0.05   0.08  -0.13    -0.00  -0.00   0.01    -0.01  -0.00   0.02
  20   8     0.02  -0.15   0.00     0.00   0.01  -0.00     0.01   0.01   0.01
  21   1    -0.03  -0.01  -0.01    -0.00  -0.00   0.06     0.01   0.01  -0.18
  22   1    -0.07  -0.06   0.00    -0.01  -0.01   0.11    -0.01  -0.01   0.18
  23   1    -0.06  -0.06  -0.01     0.01   0.02  -0.31     0.00   0.00  -0.01
  24   1    -0.01  -0.05  -0.01     0.01   0.02  -0.31    -0.00  -0.00   0.03
  25   1     0.04   0.03   0.01     0.00   0.00  -0.01    -0.00  -0.00   0.06
  26   1     0.05   0.07  -0.01    -0.00  -0.00   0.09     0.01   0.00  -0.17
  27   1     0.03   0.01   0.01     0.00  -0.00   0.03    -0.01  -0.01   0.14
  28   1    -0.07   0.04   0.01    -0.00  -0.00   0.02     0.01  -0.00  -0.03
  29   1    -0.07  -0.06   0.09     0.02   0.01  -0.01     0.01   0.01  -0.02
  30   1    -0.04   0.10   0.08    -0.02  -0.01  -0.02    -0.00  -0.01  -0.02
  31   1     0.04   0.02  -0.02    -0.00  -0.00   0.00    -0.01   0.00   0.00
  32   1    -0.02   0.08  -0.07    -0.00  -0.00   0.00    -0.00  -0.01   0.01
  33   1     0.14  -0.17  -0.00    -0.01   0.01  -0.00    -0.05   0.05  -0.00
                     19                     20                     21
                        a                      a                      a 
 Frequencies --   408.9653               449.0269               453.4999
 Red. masses --    14.9296                 9.9539                11.8155
 Frc consts  --     0.0000                 0.0000                 0.0000
 IR Inten    --    45.8949                 1.8737                 6.2923
 Raman Activ --     0.0000                 0.0000                 0.0000
 Depolar     --     0.0000                 0.0000                 0.0000
 Atom AN      X      Y      Z        X      Y      Z        X      Y      Z
   1   6    -0.11  -0.04  -0.01    -0.04  -0.02   0.28     0.21   0.05   0.05
   2   6    -0.11  -0.04  -0.01     0.01   0.02  -0.25     0.03  -0.09  -0.03
   3   6    -0.08  -0.04  -0.00    -0.00   0.02   0.06     0.02  -0.20  -0.00
   4   6     0.01  -0.07  -0.01    -0.01  -0.00   0.36    -0.10  -0.13   0.03
   5   6    -0.04  -0.02  -0.01    -0.01   0.01  -0.17     0.15  -0.01  -0.01
   6   6    -0.05  -0.05  -0.00    -0.01   0.00  -0.15     0.18   0.07  -0.01
   7   6    -0.02   0.01  -0.00    -0.02   0.01  -0.08     0.18  -0.02   0.00
   8   8     0.34   0.28   0.03    -0.02   0.01   0.03     0.13  -0.08   0.00
   9   6    -0.07  -0.03  -0.00    -0.01  -0.03   0.08     0.08   0.20   0.03
  10   6    -0.14  -0.03  -0.00     0.01  -0.05   0.27    -0.15   0.31   0.04
  11   6    -0.14  -0.16  -0.01     0.04   0.00  -0.38    -0.15   0.09  -0.04
  12   6    -0.15  -0.16  -0.01     0.02  -0.01   0.30    -0.30  -0.08   0.02
  13   6    -0.06  -0.16  -0.01    -0.00   0.01   0.10    -0.06  -0.17  -0.01
  14   6    -0.08   0.03  -0.00     0.02   0.01  -0.37    -0.08   0.08  -0.04
  15   6     0.04   0.07   0.00     0.02  -0.02  -0.01    -0.22   0.11  -0.01
  16   8     0.60   0.45   0.05     0.04  -0.02   0.01    -0.30   0.13  -0.01
  17   7    -0.00  -0.12  -0.00    -0.01   0.02   0.01     0.09  -0.14  -0.01
  18   6    -0.02  -0.01  -0.01    -0.01   0.03  -0.02     0.15  -0.14  -0.06
  19   6    -0.00  -0.01   0.01    -0.03   0.02  -0.02     0.18  -0.12   0.11
  20   8    -0.01   0.02  -0.00     0.02  -0.03   0.00    -0.07   0.17  -0.00
  21   1    -0.03  -0.00  -0.00    -0.01  -0.01   0.17     0.06   0.04   0.03
  22   1    -0.03  -0.01  -0.00     0.01   0.01  -0.18    -0.04  -0.00  -0.02
  23   1    -0.04  -0.02  -0.00    -0.00   0.01  -0.01     0.02  -0.05  -0.00
  24   1    -0.01  -0.01   0.00    -0.00   0.00  -0.10     0.05   0.01  -0.01
  25   1    -0.03  -0.00  -0.00     0.00  -0.02   0.16    -0.06   0.07   0.02
  26   1    -0.02  -0.05  -0.01     0.01   0.01  -0.25     0.03  -0.00  -0.03
  27   1    -0.05  -0.03  -0.00     0.01  -0.01   0.12    -0.09  -0.01   0.01
  28   1     0.02  -0.04  -0.02     0.01   0.01  -0.08     0.04  -0.04  -0.06
  29   1    -0.01   0.01  -0.01     0.01   0.00  -0.01     0.05   0.04  -0.07
  30   1    -0.01  -0.01  -0.01    -0.01   0.01  -0.01     0.03  -0.12  -0.07
  31   1    -0.00  -0.00   0.00    -0.02   0.01  -0.00     0.06  -0.04   0.03
  32   1    -0.00  -0.01   0.01    -0.01   0.00   0.01     0.05  -0.06   0.01
  33   1     0.02  -0.00   0.00    -0.03   0.01  -0.01     0.05   0.03   0.03
                     22                     23                     24
                        a                      a                      a 
 Frequencies --   465.1865               500.8914               503.4599
 Red. masses --    12.5209                10.7283                10.6314
 Frc consts  --     0.0000                 0.0000                 0.0000
 IR Inten    --     3.2023                 5.9423                 8.0404
 Raman Activ --     0.0000                 0.0000                 0.0000
 Depolar     --     0.0000                 0.0000                 0.0000
 Atom AN      X      Y      Z        X      Y      Z        X      Y      Z
   1   6     0.08  -0.06  -0.00    -0.10  -0.07   0.07     0.09   0.05   0.09
   2   6    -0.12  -0.19  -0.01    -0.09  -0.04  -0.11     0.09   0.04  -0.10
   3   6    -0.12  -0.11  -0.01    -0.09   0.04   0.08     0.08  -0.05   0.08
   4   6    -0.02  -0.11  -0.01     0.06   0.00  -0.02    -0.06  -0.00  -0.03
   5   6     0.16   0.10   0.02     0.04   0.02  -0.16    -0.02   0.00  -0.17
   6   6     0.20  -0.09   0.01     0.03  -0.10  -0.04    -0.02   0.10  -0.03
   7   6    -0.13   0.35   0.01    -0.07   0.09   0.19     0.05  -0.10   0.20
   8   8    -0.23   0.38   0.01    -0.07   0.14  -0.07     0.07  -0.11  -0.08
   9   6    -0.08   0.13  -0.01    -0.03   0.00   0.36    -0.00  -0.04   0.36
  10   6     0.09   0.09   0.01     0.01   0.04  -0.19     0.01  -0.02  -0.20
  11   6     0.10   0.04   0.01     0.00   0.11   0.07    -0.01  -0.11   0.07
  12   6    -0.10  -0.08  -0.02     0.06   0.13   0.04    -0.06  -0.13   0.00
  13   6    -0.17  -0.04   0.00     0.08   0.10  -0.37    -0.04  -0.06  -0.39
  14   6    -0.19  -0.09  -0.01     0.04   0.02  -0.08    -0.04  -0.01  -0.08
  15   6    -0.01  -0.25  -0.01     0.12  -0.08   0.03    -0.12   0.07   0.02
  16   8     0.11  -0.23  -0.01     0.10  -0.14   0.00    -0.09   0.14  -0.00
  17   7     0.16   0.19   0.03    -0.12  -0.09   0.07     0.11   0.08   0.17
  18   6     0.21   0.12   0.03    -0.09  -0.26  -0.04     0.09   0.24   0.06
  19   6    -0.03  -0.03  -0.04     0.20  -0.11   0.13    -0.20   0.11  -0.12
  20   8     0.05  -0.12  -0.02    -0.08   0.22   0.01     0.08  -0.21  -0.01
  21   1     0.02   0.04   0.00    -0.03   0.00   0.08     0.03  -0.01   0.08
  22   1    -0.05  -0.05  -0.00    -0.00  -0.02  -0.05     0.01   0.02  -0.04
  23   1    -0.03  -0.02  -0.00    -0.04   0.00   0.07     0.03  -0.01   0.07
  24   1     0.04  -0.04  -0.00     0.01  -0.03   0.03    -0.01   0.02   0.03
  25   1     0.04   0.04   0.01    -0.00   0.01  -0.10     0.01   0.00  -0.10
  26   1     0.06  -0.00   0.01    -0.02   0.04   0.10     0.01  -0.04   0.12
  27   1    -0.02  -0.08  -0.01     0.01   0.04   0.14    -0.02  -0.05   0.15
  28   1     0.09   0.03   0.03    -0.08  -0.00  -0.02     0.07  -0.00   0.08
  29   1     0.08  -0.02   0.03    -0.01   0.03  -0.09     0.04  -0.04   0.08
  30   1     0.08   0.05   0.03    -0.05  -0.17  -0.08     0.02   0.16   0.07
  31   1    -0.06   0.01  -0.02     0.15  -0.08   0.05    -0.14   0.08  -0.05
  32   1    -0.01  -0.06   0.03     0.06   0.03  -0.05    -0.06  -0.03   0.05
  33   1    -0.07   0.02  -0.02     0.10   0.01   0.04    -0.11  -0.00  -0.04
                     25                     26                     27
                        a                      a                      a 
 Frequencies --   584.0407               600.1346               608.5400
 Red. masses --    11.2906                 3.2086                11.4408
 Frc consts  --     0.0000                 0.0000                 0.0000
 IR Inten    --    12.4884                95.0922                 0.0291
 Raman Activ --     0.0000                 0.0000                 0.0000
 Depolar     --     0.0000                 0.0000                 0.0000
 Atom AN      X      Y      Z        X      Y      Z        X      Y      Z
   1   6     0.28   0.15   0.04     0.05   0.03  -0.09    -0.03   0.03  -0.01
   2   6     0.07  -0.03  -0.01     0.01  -0.01   0.08     0.20   0.17   0.03
   3   6     0.09  -0.36  -0.00     0.02  -0.06  -0.09     0.19  -0.02   0.00
   4   6    -0.16  -0.19  -0.01    -0.03  -0.04  -0.01    -0.07   0.02  -0.00
   5   6    -0.02  -0.02   0.00    -0.00  -0.00  -0.06    -0.25  -0.02  -0.02
   6   6     0.01   0.23   0.00    -0.01   0.04   0.09    -0.35   0.17  -0.00
   7   6    -0.15   0.03   0.00    -0.03   0.01  -0.05     0.05  -0.11  -0.00
   8   8    -0.02   0.16   0.01    -0.01   0.03   0.01     0.08  -0.13  -0.00
   9   6    -0.16  -0.20  -0.01    -0.03  -0.04  -0.02     0.06   0.07   0.01
  10   6     0.08  -0.35  -0.02     0.01  -0.06   0.04     0.18   0.11   0.01
  11   6     0.05  -0.09   0.00     0.01   0.00  -0.03     0.19   0.24   0.02
  12   6     0.24   0.10   0.02     0.05   0.03   0.01    -0.21  -0.05  -0.01
  13   6    -0.03   0.19   0.03     0.01   0.05  -0.13    -0.29  -0.01  -0.02
  14   6    -0.08  -0.04  -0.01    -0.00  -0.00   0.04    -0.22  -0.15  -0.02
  15   6    -0.20   0.06  -0.03    -0.03  -0.01   0.17    -0.03  -0.22  -0.01
  16   8    -0.03   0.21   0.01    -0.01   0.03  -0.00     0.26  -0.11   0.01
  17   7    -0.05   0.20  -0.06    -0.02  -0.00   0.25    -0.03   0.19  -0.00
  18   6    -0.01  -0.10  -0.01    -0.02   0.01   0.02     0.04  -0.07   0.00
  19   6     0.09  -0.08   0.05     0.00   0.00  -0.00     0.10  -0.10   0.05
  20   8    -0.02   0.08  -0.00     0.03  -0.05  -0.00    -0.01   0.04  -0.01
  21   1     0.08   0.02   0.01     0.02   0.01  -0.03     0.00  -0.11  -0.01
  22   1    -0.08   0.04  -0.01    -0.02   0.00   0.07     0.05   0.05   0.01
  23   1     0.04  -0.09  -0.00     0.01  -0.02  -0.01     0.06   0.00   0.00
  24   1    -0.00   0.06  -0.00    -0.00   0.01   0.06    -0.11   0.04   0.00
  25   1     0.03  -0.09  -0.01     0.00  -0.02   0.01     0.04   0.02   0.00
  26   1    -0.08   0.01  -0.00    -0.02   0.01  -0.03     0.11   0.05   0.00
  27   1     0.07   0.01   0.00     0.01   0.01  -0.02    -0.04  -0.13  -0.01
  28   1    -0.06   0.06   0.13     0.07   0.07  -0.89     0.02   0.04  -0.02
  29   1     0.03   0.01  -0.04    -0.03  -0.01   0.01     0.05   0.01  -0.03
  30   1     0.00  -0.09  -0.03     0.02   0.01   0.01     0.03  -0.09  -0.03
  31   1     0.09  -0.05   0.02     0.00  -0.00  -0.00     0.08  -0.06   0.02
  32   1     0.03   0.02  -0.04     0.00   0.01  -0.01     0.03  -0.00  -0.03
  33   1     0.05   0.00   0.02    -0.06   0.03  -0.01     0.03   0.01   0.01
                     28                     29                     30
                        a                      a                      a 
 Frequencies --   620.7406               664.9197               669.8199
 Red. masses --     9.7582                11.7784                10.4063
 Frc consts  --     0.0000                 0.0000                 0.0000
 IR Inten    --    20.3455                 5.5339                15.7388
 Raman Activ --     0.0000                 0.0000                 0.0000
 Depolar     --     0.0000                 0.0000                 0.0000
 Atom AN      X      Y      Z        X      Y      Z        X      Y      Z
   1   6    -0.01  -0.01   0.27    -0.14   0.08   0.01    -0.01   0.01  -0.15
   2   6     0.02   0.02  -0.25     0.10   0.21  -0.00    -0.00   0.01   0.22
   3   6    -0.01  -0.02   0.25     0.19  -0.32   0.01     0.02  -0.02  -0.18
   4   6     0.00   0.00  -0.10     0.13  -0.24  -0.04    -0.00  -0.04   0.39
   5   6    -0.01  -0.01   0.20    -0.11  -0.26   0.00     0.01  -0.01  -0.21
   6   6     0.01   0.02  -0.25    -0.19   0.07  -0.03    -0.02  -0.01   0.21
   7   6    -0.01  -0.01   0.19    -0.23  -0.04   0.01    -0.01   0.01  -0.29
   8   8     0.00   0.00  -0.05     0.10   0.25   0.01     0.01   0.02   0.08
   9   6    -0.00  -0.00   0.05    -0.16   0.22  -0.03    -0.03   0.00   0.42
  10   6     0.01   0.01  -0.18    -0.11   0.26   0.03    -0.01   0.03  -0.16
  11   6    -0.01  -0.00   0.23    -0.02  -0.11  -0.03    -0.01  -0.03   0.19
  12   6     0.01   0.01  -0.19     0.14  -0.02   0.01     0.02  -0.00  -0.10
  13   6    -0.02  -0.01   0.34     0.13  -0.00  -0.02     0.00  -0.01   0.20
  14   6     0.00   0.00  -0.03     0.04   0.22   0.04     0.01   0.03  -0.24
  15   6     0.02   0.01  -0.42     0.19   0.00   0.02     0.03   0.01  -0.22
  16   8    -0.01  -0.01   0.13    -0.09  -0.24  -0.02    -0.02  -0.03   0.07
  17   7    -0.00  -0.00   0.01     0.03  -0.12   0.00     0.01  -0.00  -0.01
  18   6    -0.01   0.01   0.01     0.04   0.04  -0.01     0.00   0.01   0.01
  19   6    -0.00   0.00  -0.01    -0.02   0.04  -0.02    -0.01   0.00  -0.01
  20   8     0.01  -0.02  -0.00     0.00  -0.01   0.01     0.00  -0.01  -0.00
  21   1    -0.00  -0.01   0.10    -0.03  -0.06   0.01     0.00   0.00  -0.16
  22   1     0.01   0.01  -0.16    -0.02   0.08   0.00     0.00   0.01  -0.03
  23   1    -0.00  -0.00   0.07    -0.03  -0.15   0.01     0.01  -0.00  -0.20
  24   1     0.01   0.01  -0.15     0.00   0.06  -0.00     0.00   0.00  -0.00
  25   1     0.01   0.00  -0.12     0.04   0.13   0.03     0.01   0.02  -0.22
  26   1    -0.00   0.00   0.01     0.03  -0.04   0.01     0.00  -0.00  -0.06
  27   1     0.01   0.01  -0.23     0.03   0.05   0.03     0.01   0.01  -0.18
  28   1     0.03   0.02  -0.28     0.01  -0.04   0.02     0.00  -0.00  -0.00
  29   1    -0.02   0.00   0.01    -0.01  -0.01   0.02    -0.00   0.01  -0.00
  30   1     0.02   0.00   0.01     0.00   0.05   0.02     0.00  -0.00  -0.00
  31   1     0.00  -0.00  -0.00    -0.05   0.03  -0.01    -0.00   0.00  -0.00
  32   1    -0.00   0.00  -0.01    -0.01  -0.03   0.03    -0.00  -0.00   0.00
  33   1    -0.02   0.01  -0.00    -0.02  -0.00  -0.01    -0.00  -0.00  -0.00
                     31                     32                     33
                        a                      a                      a 
 Frequencies --   686.0060               692.5388               761.4492
 Red. masses --    11.5589                10.3119                10.5634
 Frc consts  --     0.0000                 0.0000                 0.0000
 IR Inten    --     6.1583                63.7413                 0.1384
 Raman Activ --     0.0000                 0.0000                 0.0000
 Depolar     --     0.0000                 0.0000                 0.0000
 Atom AN      X      Y      Z        X      Y      Z        X      Y      Z
   1   6    -0.20  -0.03  -0.02     0.02   0.01  -0.12    -0.01   0.00  -0.06
   2   6     0.01   0.17   0.00    -0.00  -0.01  -0.02    -0.00   0.01   0.10
   3   6     0.02   0.20   0.01     0.01  -0.02  -0.11     0.01   0.00  -0.05
   4   6     0.23   0.03   0.00    -0.02  -0.01   0.02    -0.01  -0.02   0.36
   5   6     0.16  -0.16  -0.02    -0.00   0.02  -0.25     0.02   0.01  -0.38
   6   6     0.22  -0.24  -0.01    -0.02   0.02   0.01     0.00  -0.02   0.08
   7   6    -0.05  -0.16   0.03    -0.02  -0.01   0.44    -0.02  -0.02   0.40
   8   8     0.21  -0.02  -0.00    -0.01   0.01  -0.12     0.00   0.01  -0.10
   9   6    -0.20   0.04  -0.02     0.02   0.01  -0.09     0.01   0.00  -0.27
  10   6     0.02  -0.08  -0.01    -0.00   0.02  -0.11     0.01  -0.01  -0.03
  11   6     0.05  -0.23  -0.00    -0.01   0.01   0.11     0.01   0.03  -0.10
  12   6     0.03  -0.15  -0.01     0.01   0.02  -0.14    -0.01   0.01  -0.06
  13   6    -0.28   0.11   0.01     0.01  -0.03   0.40    -0.00  -0.00  -0.01
  14   6    -0.22   0.12  -0.03     0.04   0.01  -0.39    -0.02  -0.02   0.32
  15   6     0.02   0.12   0.05    -0.02  -0.02   0.37     0.02   0.02  -0.42
  16   8    -0.21   0.02  -0.02     0.02  -0.00  -0.11    -0.01   0.01   0.10
  17   7    -0.04   0.36  -0.00     0.01  -0.03  -0.07    -0.00  -0.01   0.00
  18   6     0.06  -0.02   0.02    -0.00   0.01  -0.00     0.00  -0.00  -0.01
  19   6     0.08  -0.10   0.05    -0.01   0.01  -0.01     0.01  -0.00   0.00
  20   8    -0.00   0.01  -0.02    -0.00  -0.00  -0.00    -0.00   0.00   0.01
  21   1    -0.06   0.03   0.02    -0.01  -0.01   0.18    -0.00   0.00  -0.02
  22   1     0.08   0.01   0.02    -0.02  -0.01   0.21     0.01   0.01  -0.08
  23   1    -0.04   0.03   0.02    -0.01  -0.01   0.16     0.00   0.00  -0.13
  24   1     0.13  -0.02   0.03    -0.02  -0.01   0.23     0.00  -0.00   0.05
  25   1     0.07   0.03   0.01    -0.01  -0.00   0.05    -0.01  -0.02   0.23
  26   1     0.01  -0.07  -0.00    -0.00   0.00   0.03    -0.01  -0.00   0.19
  27   1     0.02  -0.12  -0.02     0.00   0.01  -0.09    -0.01  -0.01   0.16
  28   1     0.02   0.09  -0.04    -0.00  -0.01   0.00     0.00   0.00  -0.04
  29   1     0.07   0.02  -0.03    -0.01   0.01  -0.00    -0.00  -0.01   0.01
  30   1     0.04  -0.09  -0.03    -0.00   0.00  -0.00     0.00   0.01   0.01
  31   1     0.09  -0.06   0.02    -0.01   0.00  -0.00    -0.00   0.00  -0.00
  32   1     0.02   0.01  -0.05    -0.00  -0.00   0.00     0.00  -0.00   0.00
  33   1     0.02   0.01   0.01     0.00  -0.01  -0.00    -0.00   0.00   0.00
                     34                     35                     36
                        a                      a                      a 
 Frequencies --   770.2652               779.5433               802.1896
 Red. masses --    11.4931                 4.8531                 5.4865
 Frc consts  --     0.0000                 0.0000                 0.0000
 IR Inten    --     1.3545                 0.8788                18.6656
 Raman Activ --     0.0000                 0.0000                 0.0000
 Depolar     --     0.0000                 0.0000                 0.0000
 Atom AN      X      Y      Z        X      Y      Z        X      Y      Z
   1   6    -0.26  -0.00  -0.00     0.01  -0.01   0.15    -0.02  -0.01   0.12
   2   6     0.09   0.26   0.02    -0.01  -0.03   0.12    -0.00  -0.00   0.14
   3   6     0.14  -0.09   0.01    -0.02   0.00   0.11     0.00  -0.01   0.09
   4   6     0.13  -0.10  -0.03     0.00   0.02  -0.22     0.01   0.00  -0.13
   5   6     0.09  -0.16   0.02    -0.00   0.01  -0.04     0.01   0.01  -0.22
   6   6     0.10  -0.19  -0.00    -0.01   0.01   0.10    -0.01  -0.01   0.10
   7   6    -0.12   0.07  -0.03     0.01  -0.01  -0.02    -0.01  -0.01   0.32
   8   8    -0.09   0.17   0.01     0.01  -0.01   0.00    -0.00   0.01  -0.08
   9   6     0.04  -0.17   0.02    -0.01   0.01   0.10     0.02   0.00  -0.20
  10   6     0.21  -0.23  -0.01    -0.01   0.02  -0.12    -0.00  -0.01   0.10
  11   6     0.12   0.43   0.02    -0.00  -0.03  -0.09    -0.00   0.00   0.11
  12   6    -0.24   0.09  -0.03     0.03   0.00  -0.25    -0.02  -0.01   0.25
  13   6    -0.00  -0.13   0.02    -0.02   0.00   0.24     0.01  -0.00  -0.15
  14   6     0.03  -0.11  -0.03    -0.00   0.02  -0.14     0.01  -0.00  -0.04
  15   6    -0.10   0.12   0.04    -0.00  -0.02   0.23    -0.01  -0.00   0.16
  16   8    -0.14   0.20  -0.01     0.01  -0.01  -0.06    -0.00   0.01  -0.04
  17   7     0.02  -0.22  -0.00    -0.00   0.02  -0.03     0.01  -0.00   0.02
  18   6     0.04   0.01  -0.03    -0.00  -0.01  -0.02    -0.00   0.02   0.03
  19   6     0.02   0.03  -0.02     0.01  -0.01   0.00    -0.01   0.01   0.00
  20   8    -0.01   0.00   0.02    -0.00   0.01   0.01     0.00  -0.02  -0.01
  21   1    -0.07  -0.02  -0.02     0.02   0.02  -0.36     0.01   0.01  -0.31
  22   1     0.06   0.06  -0.01     0.01   0.01  -0.34     0.02   0.02  -0.32
  23   1    -0.03  -0.07  -0.01     0.01   0.02  -0.21     0.01   0.01  -0.20
  24   1     0.11   0.00  -0.01     0.01   0.01  -0.27     0.01   0.01  -0.18
  25   1    -0.03  -0.13   0.00    -0.01  -0.00   0.28     0.01   0.01  -0.24
  26   1     0.01   0.13   0.02    -0.01  -0.02   0.27     0.01   0.01  -0.28
  27   1    -0.06  -0.03   0.03    -0.01  -0.01   0.37     0.01   0.02  -0.42
  28   1     0.00  -0.06   0.01    -0.00   0.01  -0.06     0.00  -0.01   0.05
  29   1    -0.02  -0.02   0.02     0.00  -0.02   0.00    -0.00   0.03  -0.01
  30   1    -0.01   0.06   0.02     0.00   0.01   0.00    -0.00  -0.02  -0.01
  31   1    -0.07   0.04  -0.02     0.00   0.00   0.00     0.01  -0.01  -0.00
  32   1     0.00  -0.05   0.05     0.00  -0.00   0.00    -0.00   0.01  -0.01
  33   1    -0.02  -0.01  -0.01     0.00   0.00   0.00    -0.00  -0.01  -0.00
                     37                     38                     39
                        a                      a                      a 
 Frequencies --   856.4543               877.8416               888.6447
 Red. masses --     9.0571                 4.3919                 9.5907
 Frc consts  --     0.0000                 0.0000                 0.0000
 IR Inten    --    13.5100                 0.1405                 5.0522
 Raman Activ --     0.0000                 0.0000                 0.0000
 Depolar     --     0.0000                 0.0000                 0.0000
 Atom AN      X      Y      Z        X      Y      Z        X      Y      Z
   1   6    -0.23  -0.04  -0.01     0.07   0.01   0.02     0.24   0.05   0.01
   2   6     0.06   0.15   0.01    -0.03  -0.05  -0.03    -0.13  -0.23  -0.01
   3   6     0.12  -0.19  -0.01    -0.03   0.04  -0.03    -0.12   0.05   0.01
   4   6    -0.02  -0.08  -0.01     0.02   0.01  -0.01     0.14   0.03   0.01
   5   6     0.04   0.06   0.01    -0.02  -0.03   0.02    -0.07  -0.11  -0.01
   6   6    -0.05  -0.08  -0.01    -0.00   0.03   0.03    -0.06   0.16  -0.01
   7   6     0.18   0.24   0.00    -0.06  -0.06  -0.08    -0.22  -0.16  -0.01
   8   8    -0.17   0.06  -0.00     0.03   0.00   0.02     0.05   0.04   0.00
   9   6     0.29  -0.04   0.03    -0.06  -0.01   0.11    -0.11  -0.04  -0.02
  10   6    -0.05   0.05  -0.04     0.04  -0.01  -0.37     0.13  -0.11   0.08
  11   6    -0.09  -0.19  -0.03     0.03   0.07  -0.05     0.11   0.19   0.00
  12   6    -0.08  -0.12   0.01    -0.04  -0.00   0.30    -0.26  -0.08  -0.08
  13   6     0.09  -0.02  -0.00    -0.00  -0.02  -0.06     0.02  -0.10   0.01
  14   6     0.20  -0.11   0.01    -0.01   0.04   0.02     0.14   0.15   0.01
  15   6    -0.04   0.02  -0.00     0.05   0.03   0.01     0.29   0.19   0.02
  16   8    -0.04   0.06   0.00    -0.01  -0.01  -0.00    -0.09  -0.04  -0.00
  17   7     0.13   0.23  -0.03     0.01  -0.05  -0.00     0.11  -0.01  -0.04
  18   6    -0.17   0.02   0.15     0.01   0.05   0.05    -0.06   0.10   0.15
  19   6    -0.24   0.04   0.08    -0.00   0.00   0.02    -0.18   0.03   0.09
  20   8     0.03  -0.07  -0.09    -0.00  -0.04  -0.04     0.01  -0.10  -0.11
  21   1    -0.06  -0.06  -0.00     0.02   0.02  -0.02     0.06   0.05   0.02
  22   1     0.02   0.04   0.01    -0.02  -0.01   0.04    -0.08  -0.04  -0.02
  23   1    -0.01  -0.08   0.00    -0.01   0.01   0.06    -0.03   0.02  -0.03
  24   1    -0.01  -0.02  -0.00     0.00   0.01  -0.06    -0.03   0.03   0.03
  25   1    -0.05  -0.02   0.08    -0.02  -0.03   0.63     0.03  -0.03  -0.13
  26   1     0.03  -0.08   0.05    -0.00   0.01   0.16     0.07   0.03   0.01
  27   1    -0.03   0.00  -0.02     0.01   0.01  -0.50    -0.07  -0.09   0.11
  28   1     0.04   0.06  -0.02     0.02  -0.02   0.02     0.09  -0.03  -0.01
  29   1     0.05   0.14  -0.09    -0.01   0.07  -0.02     0.04   0.17  -0.08
  30   1    -0.00  -0.21  -0.07    -0.00  -0.03  -0.02    -0.00  -0.17  -0.07
  31   1     0.23  -0.13   0.07     0.01  -0.01  -0.00     0.16  -0.09   0.05
  32   1    -0.06   0.24  -0.20     0.00  -0.01  -0.01    -0.04   0.15  -0.15
  33   1     0.05   0.02   0.02    -0.01  -0.01  -0.01     0.03   0.02   0.01
                     40                     41                     42
                        a                      a                      a 
 Frequencies --   894.8021               918.2322               922.6739
 Red. masses --     3.6064                 7.9927                 5.0803
 Frc consts  --     0.0000                 0.0000                 0.0000
 IR Inten    --     0.0163                 4.3931                 1.1811
 Raman Activ --     0.0000                 0.0000                 0.0000
 Depolar     --     0.0000                 0.0000                 0.0000
 Atom AN      X      Y      Z        X      Y      Z        X      Y      Z
   1   6     0.00   0.01  -0.16    -0.01  -0.00   0.00     0.00   0.00  -0.00
   2   6    -0.00  -0.00   0.17     0.06   0.09   0.01     0.03   0.05   0.01
   3   6    -0.01  -0.02   0.28     0.01   0.08   0.01     0.00   0.06  -0.00
   4   6    -0.00   0.00  -0.07    -0.09   0.01  -0.01    -0.05   0.01  -0.00
   5   6    -0.00  -0.00   0.07     0.02  -0.00   0.00     0.01  -0.01  -0.00
   6   6     0.02   0.01  -0.29     0.09  -0.07  -0.00     0.06  -0.04   0.01
   7   6     0.01   0.01  -0.06    -0.03  -0.06  -0.00    -0.03  -0.05  -0.01
   8   8    -0.00  -0.00   0.01     0.06  -0.02   0.00     0.04  -0.01   0.00
   9   6     0.00   0.00   0.03    -0.10   0.04   0.01    -0.06   0.02  -0.03
  10   6    -0.00   0.01  -0.05    -0.05   0.06   0.13    -0.02   0.05  -0.16
  11   6    -0.00  -0.01  -0.00     0.01   0.07  -0.21    -0.01   0.03   0.34
  12   6     0.01   0.00   0.03     0.23   0.14   0.05     0.14   0.09  -0.13
  13   6    -0.00   0.00  -0.00     0.03  -0.05   0.04     0.03  -0.03  -0.06
  14   6    -0.01  -0.00  -0.01    -0.16  -0.06  -0.04    -0.09  -0.04   0.06
  15   6    -0.01  -0.01   0.05    -0.21  -0.15  -0.02    -0.12  -0.09  -0.02
  16   8     0.00   0.00  -0.01     0.07   0.02   0.01     0.04   0.01   0.00
  17   7    -0.00  -0.00   0.00    -0.01  -0.20  -0.06     0.01  -0.12  -0.04
  18   6     0.00   0.00  -0.00     0.03   0.29   0.21     0.01   0.17   0.13
  19   6     0.01  -0.00  -0.00     0.04  -0.01   0.16    -0.00  -0.00   0.10
  20   8    -0.00   0.00   0.00    -0.04  -0.19  -0.21    -0.02  -0.11  -0.13
  21   1    -0.01  -0.02   0.27    -0.00   0.01  -0.00     0.00   0.01   0.01
  22   1     0.02   0.02  -0.28     0.05   0.01   0.00     0.03   0.01  -0.01
  23   1     0.03   0.03  -0.55     0.03   0.04   0.00     0.01   0.03   0.01
  24   1    -0.03  -0.03   0.55     0.04  -0.01   0.01     0.03  -0.00  -0.01
  25   1    -0.00  -0.00   0.08     0.01   0.04  -0.23    -0.01   0.01   0.30
  26   1    -0.00  -0.00   0.01    -0.08   0.03   0.38    -0.01   0.06  -0.63
  27   1     0.00   0.01  -0.05     0.06   0.12  -0.07     0.02   0.06   0.29
  28   1    -0.00  -0.00   0.00     0.06  -0.08  -0.01     0.05  -0.05   0.01
  29   1    -0.00  -0.00   0.00    -0.03   0.33  -0.10     0.00   0.19  -0.06
  30   1     0.00   0.00   0.00    -0.06  -0.12  -0.09    -0.04  -0.08  -0.05
  31   1    -0.01   0.00  -0.00     0.05  -0.07   0.02     0.05  -0.04   0.02
  32   1     0.00  -0.01   0.01     0.01  -0.05  -0.04     0.00  -0.01  -0.04
  33   1    -0.00  -0.00  -0.00    -0.01  -0.02  -0.04     0.00  -0.00  -0.02
                     43                     44                     45
                        a                      a                      a 
 Frequencies --   928.3293               930.7130               942.7580
 Red. masses --     4.0325                 3.5772                 9.4421
 Frc consts  --     0.0000                 0.0000                 0.0000
 IR Inten    --     0.0341                 0.0348                25.4350
 Raman Activ --     0.0000                 0.0000                 0.0000
 Depolar     --     0.0000                 0.0000                 0.0000
 Atom AN      X      Y      Z        X      Y      Z        X      Y      Z
   1   6     0.02   0.02  -0.32    -0.01  -0.01   0.19     0.07   0.02   0.00
   2   6     0.00   0.00  -0.08     0.02   0.02  -0.36     0.05   0.07   0.01
   3   6    -0.01  -0.01   0.22    -0.01  -0.01   0.24    -0.02   0.14   0.01
   4   6     0.00   0.00  -0.08    -0.00  -0.00   0.03    -0.09   0.01  -0.00
   5   6     0.00   0.00  -0.04     0.00   0.00  -0.08    -0.01  -0.08  -0.01
   6   6    -0.02  -0.02   0.32     0.00   0.00  -0.01     0.13  -0.07   0.00
   7   6    -0.00  -0.00   0.03    -0.00  -0.00   0.01    -0.18  -0.15  -0.02
   8   8     0.00   0.00  -0.00     0.00  -0.00  -0.00     0.08   0.01   0.00
   9   6     0.00   0.00  -0.01    -0.00   0.00  -0.01    -0.14   0.03  -0.00
  10   6    -0.00  -0.00   0.00    -0.00   0.00  -0.00    -0.05   0.12   0.00
  11   6    -0.00  -0.00  -0.00    -0.00  -0.00   0.01     0.04   0.11  -0.01
  12   6     0.00   0.00   0.00     0.00   0.00  -0.00     0.13   0.07   0.02
  13   6    -0.00   0.00   0.00     0.00  -0.00  -0.00     0.11  -0.08   0.00
  14   6    -0.00   0.00  -0.01    -0.00  -0.00   0.00    -0.10  -0.09  -0.01
  15   6    -0.00  -0.00   0.03    -0.00  -0.00   0.01    -0.23  -0.16  -0.02
  16   8     0.00   0.00  -0.00     0.00  -0.00  -0.00     0.06   0.03   0.00
  17   7    -0.00  -0.00  -0.00    -0.00  -0.00  -0.00     0.24  -0.06   0.03
  18   6     0.00   0.00   0.00     0.00   0.00   0.00     0.02  -0.31  -0.07
  19   6     0.00  -0.00   0.00     0.00  -0.00   0.00    -0.40   0.15  -0.13
  20   8    -0.00  -0.00  -0.00    -0.00  -0.00  -0.00     0.08   0.13   0.15
  21   1    -0.03  -0.03   0.54     0.02   0.02  -0.36     0.02   0.03   0.00
  22   1    -0.01  -0.01   0.12    -0.03  -0.03   0.64     0.05   0.01   0.00
  23   1     0.02   0.02  -0.33     0.02   0.02  -0.46     0.03   0.07   0.00
  24   1     0.03   0.03  -0.55    -0.00  -0.00   0.09     0.07   0.00   0.00
  25   1     0.00   0.00  -0.01    -0.00   0.00   0.00     0.01   0.06  -0.00
  26   1    -0.00  -0.00   0.01     0.00   0.00  -0.01     0.00   0.04   0.03
  27   1     0.00   0.00  -0.01     0.00   0.00   0.01     0.04   0.02  -0.03
  28   1     0.00  -0.00  -0.00     0.00  -0.00  -0.00     0.07  -0.02   0.00
  29   1    -0.00   0.00  -0.00    -0.00   0.00  -0.00     0.10  -0.23   0.04
  30   1    -0.00   0.00  -0.00    -0.00  -0.00  -0.00     0.11  -0.06   0.03
  31   1    -0.00  -0.00  -0.00     0.00  -0.00   0.00     0.14   0.00   0.05
  32   1     0.00  -0.00   0.00     0.00  -0.00  -0.00    -0.10   0.29  -0.18
  33   1    -0.00  -0.00  -0.00     0.00   0.00  -0.00     0.06   0.05   0.06
                     46                     47                     48
                        a                      a                      a 
 Frequencies --  1016.1693              1033.8222              1085.3027
 Red. masses --     5.1707                10.2133                 6.1315
 Frc consts  --     0.0000                 0.0000                 0.0000
 IR Inten    --    78.0972                60.9302                 0.5067
 Raman Activ --     0.0000                 0.0000                 0.0000
 Depolar     --     0.0000                 0.0000                 0.0000
 Atom AN      X      Y      Z        X      Y      Z        X      Y      Z
   1   6     0.01   0.00   0.00    -0.17  -0.04  -0.01    -0.36   0.06  -0.01
   2   6     0.00   0.00   0.00    -0.02  -0.06  -0.00    -0.05  -0.41  -0.02
   3   6    -0.01   0.01   0.00     0.08  -0.16  -0.00     0.20  -0.03   0.01
   4   6    -0.00  -0.00  -0.00     0.04   0.02   0.00     0.06   0.04   0.00
   5   6    -0.01  -0.02  -0.00     0.09   0.22   0.02     0.06  -0.09  -0.00
   6   6     0.01  -0.01   0.00    -0.10   0.07  -0.00    -0.04   0.28   0.01
   7   6    -0.03  -0.02  -0.00     0.34   0.17   0.02    -0.03  -0.01  -0.00
   8   8    -0.00   0.01   0.00     0.03  -0.14  -0.01    -0.02   0.04   0.00
   9   6     0.01  -0.01   0.00    -0.18   0.11  -0.00     0.03  -0.02   0.00
  10   6    -0.01   0.02   0.00     0.08  -0.25  -0.01    -0.05   0.05   0.00
  11   6     0.01  -0.01   0.00    -0.08   0.04  -0.00     0.02   0.01   0.00
  12   6    -0.02  -0.02  -0.01     0.08   0.11   0.01     0.06   0.01   0.00
  13   6     0.02   0.02  -0.01    -0.17  -0.05  -0.01    -0.01  -0.01  -0.00
  14   6     0.02  -0.03   0.01    -0.26   0.25   0.00    -0.01  -0.09  -0.00
  15   6    -0.02  -0.00  -0.00     0.18   0.07   0.01    -0.04  -0.00  -0.00
  16   8     0.00   0.01   0.00    -0.01  -0.09  -0.00    -0.01   0.02   0.00
  17   7     0.01   0.04  -0.08    -0.03  -0.22  -0.03     0.00   0.01   0.00
  18   6    -0.01  -0.21   0.34     0.23  -0.06   0.08    -0.01   0.01  -0.00
  19   6     0.05   0.21  -0.29    -0.19   0.08  -0.09     0.00  -0.01  -0.00
  20   8     0.06   0.14   0.17     0.05   0.03   0.06     0.00   0.00   0.00
  21   1     0.00   0.00   0.00    -0.05  -0.04  -0.00    -0.12   0.13   0.00
  22   1     0.00   0.00  -0.00    -0.01  -0.02  -0.00     0.15  -0.20  -0.00
  23   1    -0.00   0.01  -0.00     0.01  -0.05  -0.00     0.37   0.22   0.03
  24   1     0.01   0.00   0.00    -0.08  -0.02  -0.00     0.36   0.35   0.04
  25   1     0.00   0.01  -0.00     0.03  -0.07  -0.00    -0.04  -0.01  -0.00
  26   1     0.03  -0.01  -0.00    -0.28   0.11  -0.01     0.02  -0.00   0.00
  27   1    -0.00  -0.03   0.02     0.02   0.03   0.00     0.02  -0.02   0.00
  28   1    -0.04   0.03  -0.04     0.09  -0.10  -0.00     0.00   0.00  -0.00
  29   1     0.16   0.16  -0.11     0.15  -0.02  -0.01    -0.00  -0.00   0.00
  30   1    -0.09  -0.33  -0.11     0.07  -0.10  -0.02    -0.00   0.00  -0.00
  31   1    -0.24  -0.10  -0.27     0.05   0.00   0.01    -0.00  -0.00  -0.00
  32   1    -0.01   0.01   0.24    -0.04   0.07  -0.10     0.00  -0.00   0.00
  33   1    -0.23  -0.37  -0.25     0.02   0.01   0.02    -0.00  -0.00  -0.00
                     49                     50                     51
                        a                      a                      a 
 Frequencies --  1089.3429              1093.7717              1110.9534
 Red. masses --    10.5626                 9.3550                 6.2478
 Frc consts  --     0.0000                 0.0000                 0.0000
 IR Inten    --    46.9819                47.7844                16.1052
 Raman Activ --     0.0000                 0.0000                 0.0000
 Depolar     --     0.0000                 0.0000                 0.0000
 Atom AN      X      Y      Z        X      Y      Z        X      Y      Z
   1   6     0.09  -0.03   0.00     0.12  -0.07   0.00    -0.02   0.06   0.00
   2   6     0.01  -0.02  -0.00     0.02  -0.06  -0.00    -0.06   0.02  -0.00
   3   6    -0.10   0.11   0.00    -0.18   0.18   0.00     0.13  -0.14  -0.00
   4   6     0.17  -0.06   0.00     0.30  -0.12   0.01    -0.04   0.10   0.00
   5   6     0.02  -0.14  -0.01     0.05  -0.23  -0.01    -0.06   0.13   0.00
   6   6    -0.09   0.09   0.00    -0.17   0.20   0.00     0.07  -0.15  -0.00
   7   6     0.02   0.04   0.00     0.08   0.10   0.01    -0.08  -0.07  -0.01
   8   8    -0.05   0.06   0.00    -0.07   0.08   0.00     0.00  -0.00  -0.00
   9   6     0.12  -0.02   0.00     0.16  -0.02   0.01     0.06  -0.10  -0.00
  10   6    -0.09   0.06  -0.00    -0.11   0.06  -0.00    -0.31   0.14  -0.01
  11   6     0.01   0.02   0.00    -0.01   0.00   0.00     0.15   0.14   0.01
  12   6     0.15   0.03   0.01     0.17   0.02   0.01     0.23  -0.06   0.01
  13   6    -0.08  -0.05  -0.01    -0.12  -0.00  -0.00    -0.14   0.02  -0.01
  14   6    -0.03  -0.11  -0.00    -0.10  -0.14  -0.01     0.05  -0.08   0.00
  15   6    -0.01   0.02  -0.00    -0.04   0.02  -0.00     0.13   0.09   0.01
  16   8    -0.05   0.07   0.00    -0.08   0.10  -0.00    -0.00   0.00   0.00
  17   7    -0.08  -0.04  -0.04    -0.07  -0.02   0.01    -0.17  -0.04  -0.04
  18   6    -0.01   0.28   0.06     0.15  -0.17   0.01     0.17  -0.00   0.07
  19   6    -0.13  -0.46  -0.35     0.03   0.31   0.19    -0.03   0.08   0.00
  20   8     0.13   0.20   0.34    -0.07  -0.13  -0.20    -0.00  -0.04  -0.03
  21   1     0.04  -0.13  -0.01     0.06  -0.26  -0.01    -0.03   0.22   0.01
  22   1     0.07  -0.03   0.00     0.16  -0.08   0.00    -0.21   0.09  -0.01
  23   1    -0.14  -0.06  -0.01    -0.24  -0.10  -0.02     0.11   0.02   0.01
  24   1    -0.00   0.04   0.00     0.01   0.09   0.01    -0.10  -0.12  -0.01
  25   1    -0.13  -0.06  -0.01    -0.16  -0.09  -0.01    -0.38  -0.19  -0.02
  26   1    -0.01   0.02   0.00    -0.05   0.02  -0.00     0.17  -0.00   0.01
  27   1     0.04  -0.01  -0.00     0.06  -0.08   0.00     0.11  -0.34  -0.01
  28   1     0.06  -0.05  -0.02    -0.03  -0.00   0.00    -0.04  -0.02  -0.02
  29   1     0.12   0.08  -0.04     0.03  -0.07   0.02     0.16  -0.04   0.00
  30   1    -0.13   0.05  -0.05     0.10  -0.06   0.02    -0.01  -0.05  -0.03
  31   1     0.06  -0.14  -0.05    -0.02   0.12   0.06     0.01   0.10   0.05
  32   1    -0.02  -0.12  -0.14     0.00   0.06   0.04     0.00  -0.05  -0.05
  33   1     0.05   0.09   0.11    -0.01  -0.03  -0.04     0.04   0.06   0.04
                     52                     53                     54
                        a                      a                      a 
 Frequencies --  1127.8324              1161.6909              1170.1267
 Red. masses --     5.4390                 6.1275                 2.8661
 Frc consts  --     0.0000                 0.0000                 0.0000
 IR Inten    --    48.6887                53.3444                 0.5033
 Raman Activ --     0.0000                 0.0000                 0.0000
 Depolar     --     0.0000                 0.0000                 0.0000
 Atom AN      X      Y      Z        X      Y      Z        X      Y      Z
   1   6    -0.02   0.00  -0.00    -0.02  -0.01  -0.00     0.00  -0.11  -0.01
   2   6    -0.02  -0.01  -0.00     0.00  -0.00   0.00     0.00   0.10   0.01
   3   6     0.02  -0.04  -0.00    -0.01  -0.02  -0.00    -0.12   0.01  -0.01
   4   6     0.06   0.02   0.01     0.01  -0.00  -0.00    -0.21   0.01  -0.01
   5   6     0.03   0.05   0.00     0.04   0.05   0.00     0.08   0.05   0.01
   6   6    -0.02   0.00  -0.00    -0.01   0.03   0.00     0.07  -0.00   0.00
   7   6     0.05   0.01   0.00     0.04   0.01   0.00     0.03   0.02   0.00
   8   8     0.01  -0.02  -0.00     0.02  -0.02  -0.00     0.02  -0.03  -0.00
   9   6    -0.05   0.02  -0.00    -0.09   0.04  -0.00    -0.11  -0.02  -0.01
  10   6    -0.13   0.02  -0.00    -0.05  -0.01  -0.00    -0.05  -0.04  -0.00
  11   6     0.07   0.11   0.01     0.03   0.08   0.00     0.04   0.05   0.00
  12   6     0.19   0.00   0.01     0.08  -0.02   0.00    -0.02  -0.06  -0.00
  13   6    -0.07  -0.16  -0.00     0.01  -0.15  -0.01     0.05   0.05   0.00
  14   6    -0.08  -0.01  -0.01    -0.04   0.02   0.01     0.07   0.16   0.01
  15   6     0.07   0.04   0.01     0.03   0.00   0.00     0.02  -0.01   0.00
  16   8    -0.04   0.01  -0.00    -0.02  -0.00  -0.00     0.04  -0.06  -0.00
  17   7     0.23   0.06   0.10     0.32   0.15  -0.09    -0.01  -0.01   0.00
  18   6    -0.29   0.09  -0.24    -0.41  -0.12   0.12    -0.00   0.03  -0.00
  19   6     0.07  -0.13   0.12     0.17   0.01   0.01    -0.00  -0.01  -0.00
  20   8    -0.00   0.08   0.00    -0.07  -0.08  -0.06     0.00   0.00   0.00
  21   1    -0.01   0.01   0.00    -0.00  -0.05  -0.00     0.08  -0.68  -0.03
  22   1    -0.04   0.01  -0.00     0.03  -0.01   0.00    -0.29   0.15  -0.01
  23   1    -0.01  -0.03  -0.00    -0.03  -0.02  -0.00     0.13   0.13   0.01
  24   1    -0.06  -0.04  -0.00    -0.02  -0.00  -0.00     0.33   0.22   0.03
  25   1    -0.18  -0.11  -0.01    -0.04  -0.02  -0.00    -0.12  -0.09  -0.01
  26   1    -0.08   0.08  -0.00    -0.15   0.09   0.00     0.11  -0.03   0.00
  27   1     0.07  -0.10   0.01     0.04  -0.09  -0.02     0.01  -0.14  -0.00
  28   1     0.26  -0.07   0.06     0.27  -0.04  -0.02    -0.01   0.00   0.00
  29   1    -0.30  -0.01   0.05     0.26  -0.12  -0.04    -0.00   0.00   0.00
  30   1     0.25   0.02   0.07    -0.48   0.11  -0.06     0.02  -0.01  -0.00
  31   1     0.01  -0.31  -0.13    -0.10   0.21   0.06     0.00  -0.01  -0.00
  32   1    -0.00   0.20   0.15     0.03  -0.05   0.11     0.00  -0.00  -0.00
  33   1    -0.15  -0.25  -0.18     0.07   0.16   0.10    -0.00  -0.00  -0.00
                     55                     56                     57
                        a                      a                      a 
 Frequencies --  1171.6763              1185.4280              1211.6024
 Red. masses --     4.7041                 3.1301                 7.0589
 Frc consts  --     0.0000                 0.0000                 0.0000
 IR Inten    --     8.4871                39.1093                14.0159
 Raman Activ --     0.0000                 0.0000                 0.0000
 Depolar     --     0.0000                 0.0000                 0.0000
 Atom AN      X      Y      Z        X      Y      Z        X      Y      Z
   1   6    -0.09  -0.02  -0.01     0.02   0.00   0.00    -0.11  -0.05  -0.01
   2   6     0.12   0.02   0.01     0.06   0.05   0.01    -0.05  -0.11  -0.01
   3   6    -0.09  -0.05  -0.01    -0.06   0.01  -0.00     0.10  -0.11  -0.00
   4   6    -0.20  -0.08  -0.01    -0.19  -0.04  -0.01     0.24   0.15   0.02
   5   6     0.07   0.21   0.01    -0.07  -0.02  -0.00     0.15   0.27   0.02
   6   6     0.07   0.12   0.01     0.07  -0.02   0.00    -0.02   0.10   0.00
   7   6     0.02  -0.02  -0.00    -0.05  -0.02  -0.00     0.01  -0.04  -0.00
   8   8     0.04  -0.06  -0.00    -0.02   0.02   0.00     0.05  -0.07  -0.00
   9   6    -0.24  -0.06  -0.01     0.07   0.01   0.00    -0.27  -0.16  -0.02
  10   6    -0.09  -0.06  -0.01    -0.03   0.04   0.00    -0.18   0.09  -0.00
  11   6     0.09   0.08   0.01    -0.07   0.04  -0.00     0.06   0.10   0.01
  12   6    -0.05  -0.07  -0.01    -0.00  -0.07  -0.00     0.03   0.07   0.00
  13   6     0.13   0.08   0.01    -0.02   0.05   0.00     0.05  -0.05  -0.00
  14   6     0.05   0.21   0.01     0.28   0.05   0.01     0.02  -0.31  -0.01
  15   6    -0.03  -0.03  -0.00    -0.01  -0.03  -0.00    -0.03   0.04   0.00
  16   8     0.05  -0.07  -0.00     0.04  -0.02   0.00    -0.05   0.08   0.00
  17   7     0.03  -0.01   0.01    -0.10  -0.04  -0.00     0.08   0.02   0.03
  18   6    -0.01   0.02   0.00     0.02   0.10  -0.02    -0.02  -0.03   0.02
  19   6    -0.01  -0.02  -0.02     0.00  -0.02   0.02    -0.01   0.01  -0.08
  20   8     0.01   0.00   0.01     0.01   0.01  -0.00     0.01  -0.01   0.02
  21   1    -0.03   0.03  -0.00     0.00   0.04   0.00    -0.02  -0.17  -0.01
  22   1     0.57  -0.23   0.02     0.20  -0.07   0.01    -0.14   0.02  -0.01
  23   1    -0.26  -0.19  -0.02    -0.05  -0.02  -0.00    -0.17  -0.19  -0.02
  24   1    -0.00   0.02   0.00     0.11   0.05   0.01    -0.05   0.00  -0.00
  25   1    -0.19  -0.14  -0.01     0.22   0.19   0.02     0.32   0.33   0.03
  26   1     0.34  -0.10   0.01    -0.50   0.20  -0.01     0.09  -0.00   0.00
  27   1    -0.00  -0.09  -0.00     0.08  -0.59  -0.02     0.03  -0.15   0.00
  28   1    -0.07   0.03  -0.00    -0.03  -0.01   0.00    -0.14   0.07  -0.00
  29   1    -0.04   0.03  -0.00     0.05  -0.04   0.02    -0.18   0.11  -0.01
  30   1     0.01  -0.00  -0.00     0.07  -0.04  -0.01     0.05  -0.05   0.00
  31   1     0.00  -0.01  -0.00     0.02  -0.04  -0.01    -0.02   0.07   0.01
  32   1     0.00  -0.01  -0.01     0.00  -0.00  -0.01     0.00  -0.09  -0.05
  33   1     0.00   0.01   0.01    -0.02  -0.03  -0.02     0.03   0.06   0.05
                     58                     59                     60
                        a                      a                      a 
 Frequencies --  1218.6894              1233.3523              1253.1355
 Red. masses --     3.6992                 4.3321                 4.7513
 Frc consts  --     0.0000                 0.0000                 0.0000
 IR Inten    --    23.8691                 7.5696                52.2742
 Raman Activ --     0.0000                 0.0000                 0.0000
 Depolar     --     0.0000                 0.0000                 0.0000
 Atom AN      X      Y      Z        X      Y      Z        X      Y      Z
   1   6    -0.02  -0.02  -0.00     0.07  -0.08  -0.00    -0.01  -0.04  -0.00
   2   6     0.01  -0.03  -0.00     0.08  -0.05   0.00    -0.00  -0.07  -0.00
   3   6     0.02  -0.05  -0.00     0.07  -0.08  -0.00     0.09   0.03   0.01
   4   6     0.01   0.07   0.00    -0.10   0.27   0.01     0.19   0.09   0.01
   5   6    -0.00   0.10   0.00    -0.29   0.10  -0.01    -0.03   0.00  -0.00
   6   6     0.02   0.01   0.00     0.06  -0.14  -0.00    -0.05   0.00  -0.00
   7   6    -0.02  -0.02  -0.00    -0.05  -0.03  -0.00     0.03   0.01   0.00
   8   8     0.01  -0.02  -0.00     0.00  -0.02  -0.00     0.02  -0.02  -0.00
   9   6    -0.04  -0.11  -0.01     0.13   0.04   0.01    -0.06   0.12   0.00
  10   6    -0.04   0.03  -0.00     0.05   0.02   0.00     0.07  -0.01   0.00
  11   6    -0.00  -0.00  -0.00     0.01  -0.04  -0.00     0.01   0.02   0.00
  12   6    -0.02   0.10   0.01     0.03   0.01   0.00    -0.04  -0.15  -0.01
  13   6    -0.06   0.03  -0.00    -0.12  -0.07  -0.01     0.28  -0.05   0.00
  14   6     0.07  -0.10   0.00    -0.04  -0.03  -0.00    -0.15   0.08  -0.00
  15   6     0.03   0.01   0.00     0.10   0.04   0.01    -0.22  -0.04  -0.01
  16   8    -0.01   0.04   0.00     0.02  -0.03  -0.00     0.05  -0.07   0.00
  17   7    -0.18  -0.09  -0.07    -0.00   0.04   0.01     0.14   0.02  -0.02
  18   6     0.10   0.16  -0.08    -0.01  -0.06   0.01     0.10   0.06  -0.02
  19   6    -0.02  -0.07   0.26     0.01   0.03  -0.05    -0.05  -0.07   0.10
  20   8    -0.01   0.04  -0.07    -0.00  -0.01   0.01     0.00   0.02  -0.01
  21   1    -0.00  -0.04  -0.00     0.00   0.16   0.01    -0.01   0.09   0.00
  22   1    -0.01  -0.00  -0.00    -0.09   0.04  -0.00    -0.17   0.05  -0.01
  23   1    -0.11  -0.10  -0.01    -0.39  -0.33  -0.04    -0.11  -0.10  -0.01
  24   1     0.07   0.05   0.01     0.48   0.29   0.04     0.04   0.04   0.00
  25   1     0.17   0.15   0.01    -0.06  -0.05  -0.00    -0.18  -0.17  -0.02
  26   1     0.19  -0.08   0.01    -0.07   0.02  -0.00    -0.19   0.08  -0.00
  27   1    -0.01   0.10  -0.02    -0.02   0.18   0.01     0.00  -0.12  -0.01
  28   1     0.09  -0.08  -0.03     0.10  -0.03   0.01    -0.52   0.24  -0.05
  29   1     0.48  -0.29   0.03    -0.07   0.04  -0.01     0.02   0.02   0.00
  30   1    -0.19   0.19  -0.02     0.06  -0.05   0.01    -0.25   0.19  -0.03
  31   1     0.09  -0.25  -0.02    -0.02   0.06   0.01     0.04  -0.13  -0.02
  32   1    -0.02   0.27   0.11     0.00  -0.05  -0.01    -0.02   0.13   0.01
  33   1    -0.11  -0.19  -0.15     0.02   0.04   0.03    -0.04  -0.08  -0.06
                     61                     62                     63
                        a                      a                      a 
 Frequencies --  1265.4263              1278.9552              1288.8338
 Red. masses --     7.9173                 9.6564                 3.2631
 Frc consts  --     0.0000                 0.0000                 0.0000
 IR Inten    --    84.5095              1007.8372                60.7033
 Raman Activ --     0.0000                 0.0000                 0.0000
 Depolar     --     0.0000                 0.0000                 0.0000
 Atom AN      X      Y      Z        X      Y      Z        X      Y      Z
   1   6     0.06  -0.06  -0.00     0.14  -0.00   0.01     0.00   0.00   0.00
   2   6     0.03  -0.06  -0.00     0.06   0.11   0.01    -0.00   0.00   0.00
   3   6     0.09   0.12   0.01    -0.11   0.06  -0.00    -0.00  -0.00  -0.00
   4   6     0.21   0.03   0.01    -0.21  -0.11  -0.02    -0.01  -0.00  -0.00
   5   6    -0.12  -0.19  -0.02    -0.20  -0.28  -0.02    -0.00  -0.00  -0.00
   6   6    -0.12  -0.04  -0.01    -0.05  -0.14  -0.01     0.00  -0.00   0.00
   7   6     0.25   0.19   0.02     0.38   0.27   0.03     0.00   0.00  -0.00
   8   8    -0.03  -0.00  -0.00    -0.04   0.00  -0.00    -0.00   0.00   0.00
   9   6    -0.14  -0.12  -0.01    -0.24  -0.04  -0.01     0.00   0.00   0.00
  10   6     0.01  -0.07  -0.00    -0.20  -0.06  -0.01    -0.01   0.00  -0.00
  11   6    -0.13   0.04  -0.00     0.09   0.08   0.01     0.01  -0.00   0.00
  12   6    -0.05   0.01  -0.00     0.05   0.09   0.01     0.00   0.01   0.00
  13   6     0.11   0.26   0.02    -0.00  -0.17  -0.01    -0.00  -0.01  -0.00
  14   6     0.03   0.25   0.01    -0.06  -0.18  -0.01    -0.00  -0.02  -0.00
  15   6    -0.26  -0.25  -0.02     0.25   0.21   0.02     0.01   0.02   0.00
  16   8     0.01   0.03   0.00    -0.01  -0.03  -0.00     0.00  -0.01  -0.00
  17   7     0.02  -0.12  -0.00     0.07   0.05   0.00    -0.04  -0.04   0.01
  18   6    -0.13   0.05   0.00     0.07  -0.03   0.00     0.07   0.07   0.03
  19   6     0.04   0.00  -0.03    -0.03  -0.02   0.02     0.17   0.01  -0.21
  20   8    -0.01  -0.01   0.01     0.01   0.01  -0.00    -0.22  -0.19   0.03
  21   1    -0.01   0.24   0.01     0.02   0.18   0.01     0.00  -0.00  -0.00
  22   1    -0.22   0.08  -0.01     0.07   0.01   0.00     0.01  -0.00   0.00
  23   1    -0.07  -0.04  -0.01     0.09   0.11   0.01     0.01   0.01   0.00
  24   1     0.07   0.06   0.01     0.15   0.07   0.01     0.00  -0.00   0.00
  25   1     0.05   0.02   0.00     0.13   0.13   0.01     0.01   0.01   0.00
  26   1     0.26  -0.11   0.00     0.13  -0.02   0.00    -0.00   0.00  -0.00
  27   1     0.03  -0.27  -0.01     0.02  -0.03  -0.00    -0.00   0.01   0.00
  28   1     0.22  -0.11   0.02    -0.18   0.09  -0.02    -0.09   0.02  -0.00
  29   1     0.05  -0.04   0.01    -0.09   0.05  -0.00     0.03   0.04  -0.01
  30   1     0.11  -0.09   0.00    -0.13   0.08  -0.01     0.12  -0.07  -0.00
  31   1    -0.02   0.02  -0.01     0.01  -0.01   0.01    -0.11  -0.20  -0.24
  32   1     0.01  -0.04   0.01    -0.01   0.04  -0.01    -0.01   0.50   0.39
  33   1     0.02   0.04   0.03    -0.02  -0.02  -0.02     0.21   0.38   0.31
                     64                     65                     66
                        a                      a                      a 
 Frequencies --  1319.4065              1332.6946              1338.2027
 Red. masses --     4.1695                 3.5419                11.9624
 Frc consts  --     0.0000                 0.0000                 0.0000
 IR Inten    --    95.6491                21.2353                25.3291
 Raman Activ --     0.0000                 0.0000                 0.0000
 Depolar     --     0.0000                 0.0000                 0.0000
 Atom AN      X      Y      Z        X      Y      Z        X      Y      Z
   1   6    -0.01  -0.00  -0.00    -0.00   0.02   0.00     0.03  -0.40  -0.02
   2   6    -0.01  -0.00  -0.00     0.02  -0.01   0.00    -0.39   0.16  -0.01
   3   6     0.01  -0.00   0.00    -0.02  -0.01  -0.00     0.34   0.21   0.03
   4   6     0.00  -0.00   0.00     0.01   0.02   0.00     0.02  -0.37  -0.02
   5   6     0.00   0.03   0.00     0.02  -0.02   0.00    -0.35   0.15  -0.01
   6   6     0.02   0.01   0.00    -0.02  -0.01  -0.00     0.32   0.26   0.03
   7   6    -0.05  -0.03  -0.00     0.02   0.01   0.00     0.01   0.00   0.00
   8   8    -0.01   0.01   0.00     0.00  -0.00   0.00    -0.00  -0.03  -0.00
   9   6     0.11  -0.08   0.00    -0.05   0.05   0.00     0.02  -0.05  -0.00
  10   6     0.02   0.02   0.00    -0.02  -0.02  -0.00     0.03   0.04   0.00
  11   6    -0.09  -0.01  -0.00     0.05  -0.00   0.00    -0.04   0.01  -0.00
  12   6     0.01   0.01   0.00    -0.01   0.01  -0.00     0.01  -0.03  -0.00
  13   6    -0.09   0.17   0.00     0.03  -0.09  -0.00     0.04   0.03   0.00
  14   6    -0.01   0.08   0.00     0.04  -0.02   0.00    -0.08  -0.04  -0.01
  15   6     0.02  -0.07  -0.00    -0.04   0.02  -0.00     0.08   0.04   0.01
  16   8    -0.02   0.04   0.00     0.02  -0.02   0.00    -0.04   0.02  -0.00
  17   7     0.01  -0.02  -0.01    -0.04  -0.01   0.01     0.02  -0.02   0.00
  18   6     0.31  -0.23   0.04    -0.11   0.16   0.07    -0.03   0.02   0.00
  19   6    -0.09  -0.18  -0.05     0.06  -0.36  -0.09     0.01  -0.02  -0.00
  20   8     0.00   0.04  -0.03     0.02   0.08  -0.08     0.00   0.01  -0.00
  21   1    -0.00  -0.01  -0.00    -0.00   0.01   0.00    -0.00  -0.01  -0.00
  22   1     0.00  -0.00   0.00    -0.01   0.00  -0.00     0.01  -0.01   0.00
  23   1    -0.00  -0.01  -0.00    -0.00   0.00  -0.00     0.01  -0.01  -0.00
  24   1    -0.00  -0.00  -0.00    -0.00  -0.00  -0.00    -0.01   0.01   0.00
  25   1     0.04   0.03   0.00    -0.02  -0.01  -0.00     0.00   0.01   0.00
  26   1     0.05  -0.03   0.00    -0.02   0.01  -0.00    -0.01   0.00  -0.00
  27   1     0.02  -0.15  -0.00    -0.01   0.07   0.01     0.00   0.00   0.00
  28   1     0.24  -0.09   0.02    -0.13   0.04  -0.00    -0.02   0.00  -0.00
  29   1    -0.38   0.28  -0.04     0.14  -0.03   0.00     0.03  -0.01   0.00
  30   1    -0.37   0.25  -0.01     0.26  -0.19   0.02     0.03  -0.02   0.00
  31   1     0.01   0.17   0.12    -0.04   0.58   0.33    -0.00   0.03   0.02
  32   1    -0.05   0.35   0.11    -0.02   0.33   0.16     0.00   0.01   0.01
  33   1    -0.05  -0.07  -0.06    -0.09  -0.13  -0.13    -0.01  -0.01  -0.01
                     67                     68                     69
                        a                      a                      a 
 Frequencies --  1355.3547              1382.3314              1417.6504
 Red. masses --    11.0053                10.1259                 9.6670
 Frc consts  --     0.0000                 0.0000                 0.0000
 IR Inten    --     8.4559                52.0114                35.3396
 Raman Activ --     0.0000                 0.0000                 0.0000
 Depolar     --     0.0000                 0.0000                 0.0000
 Atom AN      X      Y      Z        X      Y      Z        X      Y      Z
   1   6    -0.02  -0.10  -0.01     0.01   0.04   0.00    -0.10  -0.34  -0.02
   2   6    -0.02  -0.01  -0.00     0.02   0.00   0.00     0.35  -0.02   0.02
   3   6     0.08   0.09   0.01    -0.04  -0.03  -0.00    -0.07   0.25   0.01
   4   6     0.08  -0.07   0.00    -0.00   0.02   0.00    -0.24  -0.31  -0.03
   5   6    -0.01  -0.02  -0.00     0.00  -0.02  -0.00     0.38   0.11   0.02
   6   6     0.01   0.08   0.00    -0.03  -0.03  -0.00    -0.21   0.16  -0.00
   7   6     0.08   0.03   0.00     0.13   0.06   0.01    -0.08  -0.09  -0.01
   8   8     0.00   0.00   0.00    -0.03   0.01  -0.00     0.00   0.02   0.00
   9   6    -0.20   0.10  -0.00    -0.20  -0.45  -0.03    -0.04   0.06   0.00
  10   6    -0.21  -0.09  -0.01     0.08   0.34   0.02     0.03   0.02   0.00
  11   6     0.31   0.01   0.01     0.05   0.19   0.01     0.02  -0.04  -0.00
  12   6    -0.01  -0.01  -0.00     0.05  -0.52  -0.02    -0.04  -0.00  -0.00
  13   6    -0.24  -0.27  -0.02     0.16   0.14   0.01     0.08   0.06   0.01
  14   6     0.54   0.17   0.03    -0.06   0.03  -0.00    -0.01  -0.13  -0.01
  15   6    -0.28  -0.15  -0.02     0.09  -0.07   0.00     0.15   0.03   0.01
  16   8     0.05  -0.02   0.00    -0.05   0.08   0.00    -0.05   0.05  -0.00
  17   7    -0.17   0.16   0.00    -0.16   0.08  -0.00    -0.05  -0.00  -0.00
  18   6     0.13  -0.09  -0.00     0.04  -0.03   0.00     0.01   0.00  -0.00
  19   6    -0.01   0.03  -0.00    -0.00   0.00  -0.01    -0.00   0.00  -0.00
  20   8    -0.00  -0.00   0.00    -0.00   0.00  -0.00    -0.00  -0.00  -0.00
  21   1    -0.01   0.05   0.00     0.00   0.00   0.00    -0.07   0.29   0.01
  22   1    -0.08   0.03  -0.00     0.02  -0.00   0.00    -0.27   0.16  -0.00
  23   1    -0.02  -0.01  -0.00     0.03   0.02   0.00    -0.11   0.01  -0.01
  24   1    -0.04  -0.00  -0.00     0.01   0.00   0.00     0.00   0.09   0.00
  25   1    -0.04  -0.00  -0.00    -0.05   0.04  -0.00    -0.03  -0.03  -0.00
  26   1    -0.10   0.08  -0.00    -0.23   0.16  -0.00    -0.04   0.01  -0.00
  27   1    -0.04   0.24   0.01    -0.04   0.28   0.01    -0.01  -0.02  -0.00
  28   1     0.06   0.00   0.00     0.10  -0.03   0.01     0.05  -0.02   0.00
  29   1    -0.06   0.04  -0.01     0.03   0.02  -0.02    -0.00  -0.00   0.00
  30   1    -0.05   0.05   0.01     0.04   0.02   0.03     0.00  -0.00  -0.00
  31   1     0.01  -0.03  -0.01     0.01   0.01   0.01     0.01  -0.00   0.00
  32   1    -0.00   0.00   0.00    -0.00   0.00   0.02    -0.00  -0.00   0.01
  33   1     0.00   0.00   0.01    -0.00  -0.00  -0.00     0.00   0.00   0.00
                     70                     71                     72
                        a                      a                      a 
 Frequencies --  1432.1931              1455.5750              1458.1358
 Red. masses --    10.1066                 2.4753                 9.3104
 Frc consts  --     0.0000                 0.0000                 0.0000
 IR Inten    --   299.7176                53.4691                15.9569
 Raman Activ --     0.0000                 0.0000                 0.0000
 Depolar     --     0.0000                 0.0000                 0.0000
 Atom AN      X      Y      Z        X      Y      Z        X      Y      Z
   1   6     0.02  -0.09  -0.00     0.05  -0.03   0.00     0.23  -0.17   0.00
   2   6     0.08   0.05   0.01    -0.02   0.05   0.00    -0.11   0.27   0.01
   3   6    -0.10   0.01  -0.00    -0.05  -0.04  -0.00    -0.25  -0.23  -0.02
   4   6     0.05  -0.12  -0.00     0.06  -0.02   0.00     0.36  -0.12   0.01
   5   6     0.06   0.14   0.01    -0.00   0.07   0.00    -0.02   0.38   0.02
   6   6    -0.10  -0.01  -0.01    -0.06  -0.04  -0.00    -0.28  -0.18  -0.02
   7   6    -0.09  -0.08  -0.01    -0.01   0.01   0.00    -0.04  -0.05  -0.00
   8   8    -0.05   0.04   0.00     0.01  -0.02  -0.00     0.03  -0.06  -0.00
   9   6     0.37  -0.33   0.00    -0.03   0.05   0.00    -0.08   0.07  -0.00
  10   6    -0.17  -0.08  -0.01    -0.02  -0.00  -0.00     0.04   0.03   0.00
  11   6    -0.12   0.21   0.00     0.06  -0.05   0.00     0.06  -0.07  -0.00
  12   6     0.20  -0.08   0.00    -0.03   0.02   0.00    -0.06   0.04  -0.00
  13   6    -0.20  -0.23  -0.02    -0.05   0.10   0.00     0.02   0.07   0.00
  14   6    -0.13   0.45   0.01     0.03  -0.05  -0.00     0.05  -0.09  -0.00
  15   6    -0.06  -0.00  -0.00     0.01  -0.02  -0.00    -0.06  -0.04  -0.00
  16   8     0.03  -0.09  -0.00    -0.02   0.03   0.00    -0.05   0.06   0.00
  17   7     0.12   0.03   0.01     0.04  -0.09  -0.00     0.00  -0.02  -0.00
  18   6    -0.04   0.00   0.00    -0.15  -0.21   0.01     0.03   0.04  -0.00
  19   6     0.02  -0.00   0.02     0.02  -0.02   0.04    -0.01   0.01  -0.02
  20   8     0.00   0.00   0.00     0.01   0.01   0.01    -0.00  -0.00  -0.00
  21   1    -0.01   0.09   0.00     0.01   0.03   0.00     0.05   0.15   0.01
  22   1    -0.02   0.04   0.00     0.03  -0.00   0.00     0.16  -0.00   0.01
  23   1     0.04   0.06   0.00     0.04   0.03   0.00     0.22   0.16   0.02
[...]
  27   1    -0.01   0.02   0.00    -0.02   0.09   0.00     0.08  -0.10  -0.00
  28   1     0.02  -0.01   0.01    -0.28   0.10  -0.01    -0.07   0.06  -0.00
  29   1    -0.07  -0.11   0.10    -0.02  -0.05   0.05     0.02   0.04  -0.03
  30   1    -0.07  -0.12  -0.09    -0.05  -0.04  -0.05     0.02   0.03   0.03
  31   1    -0.61   0.05  -0.23     0.07  -0.01   0.03    -0.00   0.00  -0.00
  32   1     0.04   0.28  -0.59    -0.01  -0.02   0.06     0.00  -0.01  -0.00
  33   1     0.01   0.01   0.01    -0.00  -0.01  -0.01     0.00   0.00   0.00
                     76                     77                     78
                        a                      a                      a 
 Frequencies --  1559.2282              1570.8083              1574.2079
 Red. masses --    12.4064                11.7422                11.9009
 Frc consts  --     0.0000                 0.0000                 0.0000
 IR Inten    --   381.4265               409.1861                35.3553
 Raman Activ --     0.0000                 0.0000                 0.0000
 Depolar     --     0.0000                 0.0000                 0.0000
 Atom AN      X      Y      Z        X      Y      Z        X      Y      Z
   1   6    -0.07  -0.23  -0.02     0.02  -0.38  -0.02     0.21  -0.11   0.00
   2   6     0.14   0.07   0.01    -0.06   0.19   0.01    -0.46   0.15  -0.01
   3   6    -0.21  -0.13  -0.02    -0.13  -0.22  -0.02     0.34   0.04   0.02
   4   6     0.07   0.13   0.01    -0.04   0.36   0.02    -0.23   0.19  -0.00
   5   6    -0.04  -0.09  -0.01     0.11  -0.24  -0.01     0.43  -0.15   0.01
   6   6     0.16   0.20   0.02     0.08   0.24   0.02    -0.33  -0.09  -0.02
   7   6     0.04  -0.01   0.00    -0.17   0.21   0.00     0.12  -0.19  -0.01
   8   8    -0.03   0.03   0.00     0.12  -0.15  -0.00    -0.11   0.17   0.00
   9   6    -0.07  -0.27  -0.01     0.04   0.24   0.01    -0.01  -0.07  -0.00
  10   6     0.15   0.23   0.02    -0.07  -0.18  -0.01     0.01   0.04   0.00
  11   6     0.04  -0.15  -0.01    -0.17   0.22   0.00     0.03  -0.03  -0.00
  12   6    -0.06   0.16   0.00     0.13  -0.30  -0.01    -0.02   0.03   0.00
  13   6    -0.14   0.06  -0.00    -0.07   0.13   0.00    -0.05   0.03  -0.00
  14   6     0.03  -0.00   0.00     0.08  -0.11  -0.00    -0.00   0.03   0.00
  15   6    -0.29   0.48   0.01     0.03  -0.07  -0.00    -0.07   0.11   0.00
  16   8     0.23  -0.34  -0.00    -0.01   0.05   0.00     0.08  -0.11  -0.00
  17   7     0.09  -0.08   0.00     0.04  -0.03  -0.00     0.04  -0.03   0.00
  18   6    -0.02  -0.01  -0.00    -0.00   0.01   0.00    -0.01  -0.00  -0.00
  19   6    -0.00   0.00  -0.00    -0.00  -0.00   0.00    -0.00   0.00  -0.00
  20   8    -0.00  -0.00  -0.00    -0.00   0.00  -0.00    -0.00  -0.00  -0.00
  21   1    -0.03   0.06   0.00    -0.02   0.10   0.00     0.05   0.03   0.00
  22   1    -0.03   0.05   0.00     0.04   0.03   0.00     0.10  -0.06   0.00
  23   1     0.04   0.04   0.00     0.06   0.01   0.00    -0.04  -0.09  -0.01
  24   1    -0.07  -0.02  -0.00    -0.07   0.00  -0.00     0.04   0.06   0.01
  25   1    -0.07  -0.03  -0.00     0.06   0.02   0.00    -0.00   0.00   0.00
  26   1    -0.06  -0.02  -0.00     0.07   0.01   0.00    -0.01  -0.00  -0.00
  27   1    -0.01  -0.02  -0.00     0.02   0.08   0.00    -0.00   0.00  -0.00
  28   1     0.04  -0.04  -0.00    -0.03   0.02   0.00     0.00  -0.01  -0.00
  29   1    -0.00   0.00  -0.00    -0.00  -0.01   0.01    -0.00  -0.00   0.00
  30   1    -0.01   0.00  -0.00    -0.01  -0.01  -0.01    -0.00   0.00  -0.00
  31   1     0.00  -0.00   0.00     0.00  -0.00   0.00     0.00  -0.00   0.00
  32   1    -0.00  -0.00   0.00    -0.00   0.00   0.00    -0.00  -0.00   0.00
  33   1    -0.00  -0.00  -0.00    -0.00  -0.00  -0.00    -0.00  -0.00  -0.00
                     79                     80                     81
                        a                      a                      a 
 Frequencies --  1589.7036              1617.5565              2899.0368
 Red. masses --    12.0470                13.0008                 1.8336
 Frc consts  --     0.0000                 0.0000                 0.0000
 IR Inten    --   649.8326               377.2421                32.8764
 Raman Activ --     0.0000                 0.0000                 0.0000
 Depolar     --     0.0000                 0.0000                 0.0000
 Atom AN      X      Y      Z        X      Y      Z        X      Y      Z
   1   6     0.01   0.24   0.01     0.06   0.06   0.01    -0.00   0.00   0.00
   2   6     0.01  -0.11  -0.01    -0.11  -0.01  -0.01     0.00  -0.00  -0.00
   3   6     0.10   0.17   0.01     0.13   0.08   0.01    -0.00  -0.00  -0.00
   4   6     0.02  -0.27  -0.01    -0.07  -0.07  -0.01    -0.00   0.00   0.00
   5   6    -0.02   0.14   0.01     0.13  -0.04   0.00     0.00   0.00   0.00
   6   6    -0.11  -0.18  -0.01    -0.14  -0.07  -0.01    -0.00  -0.00  -0.00
   7   6    -0.05   0.06   0.00    -0.40   0.57   0.01     0.00  -0.00   0.00
   8   8     0.05  -0.07  -0.00     0.30  -0.42  -0.01    -0.00   0.00   0.00
   9   6    -0.06   0.19   0.01     0.01  -0.21  -0.01    -0.00  -0.00  -0.00
  10   6     0.03  -0.10  -0.00     0.08   0.15   0.01    -0.00  -0.00  -0.00
  11   6    -0.24   0.21  -0.00     0.04  -0.10  -0.00     0.00  -0.00   0.00
  12   6     0.15  -0.33  -0.01    -0.04   0.16   0.01     0.00   0.00  -0.00
  13   6    -0.20   0.25   0.00    -0.00  -0.12  -0.01     0.00  -0.00   0.00
  14   6     0.18  -0.20  -0.00    -0.00   0.07   0.00    -0.00  -0.00  -0.00
  15   6    -0.20   0.35   0.01    -0.02   0.03   0.00     0.00   0.00   0.00
  16   8     0.14  -0.21  -0.00     0.01  -0.03  -0.00     0.00  -0.00  -0.00
  17   7     0.12  -0.10  -0.00    -0.03   0.04   0.00    -0.01   0.00   0.00
  18   6    -0.01   0.00   0.00     0.00  -0.00  -0.00    -0.05  -0.07   0.24
  19   6    -0.01  -0.00  -0.00     0.00   0.00  -0.00     0.09   0.01  -0.01
  20   8    -0.00   0.00  -0.00    -0.00   0.00   0.00     0.00   0.00   0.00
  21   1     0.02  -0.05  -0.00     0.01   0.00   0.00     0.00   0.00   0.00
  22   1    -0.02  -0.02  -0.00     0.01  -0.02  -0.00     0.00   0.00   0.00
  23   1    -0.04  -0.01  -0.00    -0.02  -0.02  -0.00    -0.00   0.00   0.00
  24   1     0.05   0.01   0.00     0.03   0.03   0.00     0.00  -0.00  -0.00
  25   1     0.04  -0.00   0.00    -0.05  -0.01  -0.00    -0.00   0.00  -0.00
  26   1     0.07   0.00   0.00    -0.04  -0.01  -0.00     0.00   0.00  -0.00
  27   1     0.01   0.10   0.00     0.00  -0.04  -0.00    -0.00   0.00   0.00
  28   1     0.01  -0.02   0.00    -0.00   0.00  -0.00    -0.01  -0.01   0.01
  29   1    -0.01  -0.01   0.01     0.00   0.00  -0.00    -0.07  -0.13  -0.15
  30   1    -0.02  -0.00  -0.01     0.00  -0.00   0.00     0.31   0.40  -0.72
  31   1     0.01  -0.00   0.00    -0.00   0.00   0.00    -0.02  -0.04   0.07
  32   1    -0.00   0.00   0.01     0.00  -0.00   0.00    -0.30  -0.01  -0.02
  33   1    -0.00  -0.00  -0.00     0.00  -0.00  -0.00    -0.00  -0.00  -0.00
                     82                     83                     84
                        a                      a                      a 
 Frequencies --  2903.0683              2939.7843              2984.6519
 Red. masses --     1.7670                 1.5883                 1.6961
 Frc consts  --     0.0000                 0.0000                 0.0000
 IR Inten    --    94.7809                82.5902                40.5836
 Raman Activ --     0.0000                 0.0000                 0.0000
 Depolar     --     0.0000                 0.0000                 0.0000
 Atom AN      X      Y      Z        X      Y      Z        X      Y      Z
   1   6     0.00  -0.00  -0.00    -0.00   0.00   0.00    -0.00   0.00  -0.00
   2   6    -0.00   0.00   0.00     0.00  -0.00  -0.00     0.00   0.00  -0.00
   3   6     0.00   0.00   0.00    -0.00  -0.00   0.00    -0.00   0.00  -0.00
   4   6     0.00  -0.00  -0.00    -0.00   0.00  -0.00    -0.00  -0.00   0.00
   5   6    -0.00   0.00  -0.00     0.00   0.00   0.00    -0.00  -0.00  -0.00
   6   6     0.00   0.00   0.00    -0.00  -0.00  -0.00    -0.00   0.00  -0.00
   7   6    -0.00   0.00  -0.00     0.00  -0.00  -0.00    -0.00   0.00   0.00
   8   8     0.00  -0.00  -0.00    -0.00   0.00   0.00     0.00  -0.00   0.00
   9   6     0.00   0.00   0.00    -0.00  -0.00  -0.00    -0.00   0.00  -0.00
  10   6     0.00  -0.00   0.00    -0.00  -0.00   0.00    -0.00   0.00   0.00
  11   6    -0.00  -0.00  -0.00     0.00  -0.00  -0.00     0.00   0.00   0.00
  12   6     0.00  -0.00   0.00     0.00   0.00   0.00    -0.00   0.00  -0.00
  13   6    -0.00   0.00   0.00     0.00  -0.00   0.00     0.00  -0.00   0.00
  14   6     0.00   0.00   0.00    -0.00  -0.00  -0.00    -0.00   0.00  -0.00
  15   6    -0.00  -0.00  -0.00     0.00   0.00  -0.00     0.00   0.00   0.00
  16   8     0.00   0.00   0.00    -0.00  -0.00   0.00    -0.00  -0.00  -0.00
  17   7     0.00  -0.00  -0.00    -0.01   0.01  -0.00    -0.00   0.00  -0.00
  18   6     0.02   0.01  -0.10    -0.08  -0.15  -0.14    -0.01  -0.01   0.02
  19   6     0.24   0.01  -0.01    -0.02  -0.01  -0.00    -0.08  -0.12   0.20
  20   8     0.01   0.01   0.01    -0.00  -0.00   0.00     0.00   0.00   0.01
  21   1    -0.00   0.00  -0.00     0.00   0.00   0.00     0.00   0.00   0.00
  22   1    -0.00  -0.00  -0.00     0.00   0.00   0.00    -0.00   0.00  -0.00
  23   1     0.00  -0.00  -0.00    -0.00   0.00   0.00     0.00  -0.00  -0.00
  24   1    -0.00   0.00   0.00     0.00  -0.00  -0.00     0.00  -0.00   0.00
  25   1     0.00  -0.00   0.00    -0.00   0.00   0.00     0.00  -0.00   0.00
  26   1     0.00   0.00   0.00     0.00   0.00   0.00    -0.00  -0.00   0.00
  27   1     0.00  -0.00  -0.00    -0.01   0.00   0.00     0.00   0.00   0.00
  28   1    -0.00   0.00  -0.00    -0.01  -0.02  -0.01     0.00  -0.00   0.00
  29   1     0.05   0.08   0.11     0.26   0.47   0.76    -0.01  -0.01  -0.02
  30   1    -0.10  -0.13   0.23     0.08   0.09  -0.24     0.02   0.03  -0.05
  31   1     0.02  -0.02   0.04     0.00   0.01  -0.01     0.36   0.44  -0.78
  32   1    -0.91  -0.05  -0.06     0.07   0.00   0.00    -0.09  -0.02   0.02
  33   1    -0.01   0.00  -0.00     0.00   0.00  -0.00    -0.01  -0.01   0.01
                     85                     86                     87
                        a                      a                      a 
 Frequencies --  3088.4750              3089.7468              3093.9911
 Red. masses --     1.7728                 1.8015                 1.7792
 Frc consts  --     0.0000                 0.0000                 0.0000
 IR Inten    --     8.6561                 0.7147                15.4600
 Raman Activ --     0.0000                 0.0000                 0.0000
 Depolar     --     0.0000                 0.0000                 0.0000
 Atom AN      X      Y      Z        X      Y      Z        X      Y      Z
   1   6    -0.11  -0.01  -0.01     0.02   0.00   0.00     0.00   0.00   0.00
   2   6     0.03   0.08   0.01     0.04   0.09   0.01    -0.00  -0.00  -0.00
   3   6     0.06  -0.08  -0.00     0.13  -0.16  -0.00     0.00  -0.00  -0.00
   4   6     0.00   0.00   0.00     0.01  -0.00   0.00     0.00  -0.00   0.00
   5   6     0.00  -0.01  -0.00    -0.00   0.00   0.00    -0.00   0.00   0.00
   6   6     0.11  -0.17  -0.00    -0.08   0.11   0.00    -0.00   0.00   0.00
   7   6     0.00  -0.00  -0.00    -0.00   0.00   0.00    -0.00   0.00   0.00
   8   8    -0.00   0.00  -0.00     0.00  -0.00  -0.00    -0.00  -0.00  -0.00
   9   6     0.00  -0.00   0.00    -0.00   0.00  -0.00    -0.01   0.00  -0.00
  10   6    -0.00   0.00   0.00     0.00  -0.00  -0.00    -0.10   0.12   0.00
  11   6    -0.00  -0.00  -0.00     0.00   0.00   0.00    -0.08  -0.19  -0.01
  12   6     0.00  -0.00   0.00    -0.00   0.00  -0.00     0.03   0.00   0.00
  13   6    -0.00   0.00   0.00     0.00  -0.00   0.00     0.00   0.00   0.00
  14   6     0.00  -0.00   0.00    -0.00  -0.00  -0.00     0.00  -0.00   0.00
  15   6     0.00  -0.00  -0.00     0.00  -0.00   0.00    -0.00   0.00   0.00
  16   8     0.00   0.00   0.00    -0.00   0.00   0.00     0.00  -0.00   0.00
  17   7     0.00   0.00   0.00     0.00   0.00   0.00     0.00   0.00   0.00
  18   6    -0.00  -0.00   0.00     0.00   0.00   0.00     0.00   0.00   0.00
  19   6    -0.00   0.00   0.00     0.00  -0.00   0.00    -0.00  -0.00   0.00
  20   8     0.00  -0.00  -0.00     0.00  -0.00  -0.00     0.00  -0.00  -0.00
  21   1     0.42   0.05   0.02    -0.08  -0.01  -0.00    -0.01  -0.00  -0.00
  22   1    -0.13  -0.29  -0.02    -0.15  -0.34  -0.03     0.00   0.00   0.00
  23   1    -0.21   0.28   0.00    -0.45   0.59   0.01    -0.01   0.01   0.00
  24   1    -0.42   0.59   0.01     0.28  -0.39  -0.01     0.01  -0.01  -0.00
  25   1     0.01  -0.01  -0.00    -0.01   0.01   0.00     0.37  -0.46  -0.01
  26   1     0.00   0.00   0.00    -0.00  -0.00  -0.00     0.28   0.70   0.04
  27   1    -0.00  -0.00  -0.00     0.00   0.00   0.00    -0.12  -0.02  -0.01
  28   1    -0.00  -0.00  -0.00    -0.00  -0.00  -0.00    -0.00  -0.00  -0.00
  29   1     0.00   0.00   0.00    -0.00  -0.00  -0.00    -0.00  -0.00  -0.00
  30   1     0.00   0.00  -0.00    -0.00  -0.00   0.00    -0.00  -0.00   0.00
  31   1     0.00   0.00  -0.00     0.00   0.00  -0.00     0.00   0.00  -0.00
  32   1    -0.00  -0.00  -0.00    -0.00  -0.00  -0.00     0.00  -0.00  -0.00
  33   1    -0.00   0.00   0.00    -0.00  -0.00   0.00    -0.00   0.00   0.00
                     88                     89                     90
                        a                      a                      a 
 Frequencies --  3097.2608              3102.9886              3106.5385
 Red. masses --     1.8499                 1.8657                 1.9160
 Frc consts  --     0.0000                 0.0000                 0.0000
 IR Inten    --    47.6248                51.0416                85.5364
 Raman Activ --     0.0000                 0.0000                 0.0000
 Depolar     --     0.0000                 0.0000                 0.0000
 Atom AN      X      Y      Z        X      Y      Z        X      Y      Z
   1   6    -0.15  -0.02  -0.01    -0.01  -0.00  -0.00    -0.20  -0.02  -0.01
   2   6     0.06   0.15   0.01    -0.00  -0.01  -0.00    -0.07  -0.17  -0.01
   3   6    -0.08   0.10   0.00     0.00  -0.00  -0.00     0.04  -0.05  -0.00
   4   6    -0.00  -0.00  -0.00    -0.00   0.00   0.00     0.00   0.00   0.00
   5   6     0.00   0.00   0.00    -0.00  -0.00  -0.00     0.00   0.00   0.00
   6   6    -0.06   0.09   0.00     0.00  -0.00  -0.00    -0.04   0.06   0.00
   7   6    -0.00   0.00   0.00     0.00  -0.00  -0.00    -0.00   0.00   0.00
   8   8     0.00  -0.00   0.00    -0.00   0.00   0.00     0.00  -0.00  -0.00
   9   6    -0.00  -0.00  -0.00     0.01   0.00   0.00    -0.00   0.00  -0.00
  10   6     0.00  -0.00  -0.00     0.14  -0.17  -0.00    -0.00   0.01   0.00
  11   6    -0.00  -0.00  -0.00    -0.06  -0.16  -0.01     0.00   0.00   0.00
  12   6     0.00   0.00   0.00     0.04   0.01   0.00    -0.00  -0.00  -0.00
  13   6    -0.00   0.00   0.00     0.00   0.00   0.00     0.00  -0.00  -0.00
  14   6     0.00   0.00   0.00    -0.00   0.00   0.00    -0.00  -0.00  -0.00
  15   6    -0.00   0.00   0.00     0.00   0.00   0.00     0.00  -0.00   0.00
  16   8     0.00  -0.00  -0.00    -0.00  -0.00  -0.00    -0.00   0.00   0.00
  17   7    -0.00  -0.00  -0.00     0.00   0.00   0.00    -0.00  -0.00  -0.00
  18   6    -0.00  -0.00   0.00     0.00   0.00   0.00     0.00   0.00  -0.00
  19   6    -0.00  -0.00  -0.00    -0.00  -0.00   0.00     0.00  -0.00  -0.00
  20   8    -0.00   0.00   0.00     0.00  -0.00  -0.00    -0.00   0.00  -0.00
  21   1     0.54   0.06   0.03     0.02   0.00   0.00     0.66   0.07   0.04
  22   1    -0.22  -0.51  -0.04     0.01   0.03   0.00     0.24   0.56   0.04
  23   1     0.27  -0.35  -0.01    -0.01   0.01   0.00    -0.14   0.18   0.00
  24   1     0.20  -0.29  -0.01    -0.00   0.01   0.00     0.13  -0.19  -0.00
  25   1    -0.00   0.00   0.00    -0.47   0.59   0.01     0.02  -0.02  -0.00
  26   1     0.01   0.02   0.00     0.21   0.52   0.03    -0.01  -0.01  -0.00
  27   1    -0.00  -0.00  -0.00    -0.17  -0.02  -0.01     0.01   0.00   0.00
  28   1     0.00   0.00   0.00    -0.00  -0.00  -0.00     0.00   0.00   0.00
  29   1     0.00   0.00   0.00    -0.00  -0.00  -0.00    -0.00  -0.00  -0.00
  30   1     0.00   0.00  -0.00    -0.00  -0.00   0.00    -0.00  -0.00   0.00
  31   1    -0.00  -0.00   0.00     0.00   0.00  -0.00     0.00  -0.00   0.00
  32   1     0.00   0.00   0.00     0.00  -0.00  -0.00    -0.00   0.00   0.00
  33   1     0.00   0.00  -0.00    -0.00   0.00   0.00     0.00  -0.00  -0.00
                     91                     92                     93
                        a                      a                      a 
 Frequencies --  3125.6515              3262.6184              3493.7557
 Red. masses --     1.8492                 1.8570                 1.8745
 Frc consts  --     0.0000                 0.0000                 0.0000
 IR Inten    --    27.6351               154.6864                64.4376
 Raman Activ --     0.0000                 0.0000                 0.0000
 Depolar     --     0.0000                 0.0000                 0.0000
 Atom AN      X      Y      Z        X      Y      Z        X      Y      Z
   1   6     0.00   0.00   0.00    -0.00  -0.00  -0.00    -0.00   0.00  -0.00
   2   6     0.00   0.00   0.00    -0.00  -0.00  -0.00    -0.00  -0.00  -0.00
   3   6    -0.00   0.00   0.00     0.00   0.00   0.00    -0.00   0.00  -0.00
   4   6    -0.00  -0.00   0.00    -0.00   0.00  -0.00     0.00  -0.00  -0.00
   5   6    -0.00  -0.00  -0.00     0.00  -0.00  -0.00     0.00  -0.00  -0.00
   6   6     0.00  -0.00  -0.00    -0.00   0.00   0.00     0.00  -0.00   0.00
   7   6     0.00  -0.00  -0.00    -0.00   0.00  -0.00    -0.00   0.00   0.00
   8   8    -0.00   0.00   0.00     0.00  -0.00  -0.00     0.00  -0.00   0.00
   9   6     0.00  -0.00   0.00     0.00  -0.00  -0.00     0.00  -0.00   0.00
  10   6     0.01  -0.01   0.00     0.00   0.00   0.00    -0.00   0.00   0.00
  11   6    -0.02  -0.06  -0.00    -0.00   0.00   0.00    -0.00   0.00   0.00
  12   6    -0.26  -0.04  -0.01     0.00  -0.01  -0.00     0.00   0.00  -0.00
  13   6    -0.01   0.01  -0.00    -0.01   0.01   0.00    -0.00  -0.00  -0.00
  14   6     0.00  -0.00   0.00     0.01   0.01   0.00    -0.00  -0.00   0.00
  15   6    -0.00   0.00  -0.00     0.00  -0.02  -0.00    -0.00   0.00  -0.00
  16   8     0.00  -0.00  -0.00    -0.01   0.01   0.00     0.00  -0.00   0.00
  17   7     0.00   0.00   0.00     0.10   0.23   0.02    -0.00  -0.00   0.00
  18   6    -0.00  -0.00  -0.00     0.00   0.00   0.00    -0.00  -0.00   0.00
  19   6     0.00   0.00  -0.00     0.00   0.00  -0.00     0.00   0.00  -0.01
  20   8    -0.00  -0.00  -0.00     0.00  -0.00  -0.00     0.09   0.09  -0.20
  21   1    -0.00  -0.00  -0.00     0.00   0.00   0.00     0.00  -0.00  -0.00
  22   1    -0.00  -0.00  -0.00     0.00   0.00   0.00     0.00  -0.00  -0.00
  23   1     0.00  -0.00  -0.00     0.00  -0.00   0.00     0.00  -0.00  -0.00
  24   1    -0.00   0.00   0.00     0.00  -0.00  -0.00     0.00  -0.00   0.00
  25   1    -0.04   0.04   0.00     0.00  -0.00  -0.00     0.00  -0.00   0.00
  26   1     0.07   0.18   0.01    -0.00  -0.01  -0.00     0.00  -0.00   0.00
  27   1     0.93   0.13   0.04    -0.01  -0.00  -0.00    -0.00  -0.00  -0.00
  28   1    -0.00  -0.01  -0.00    -0.36  -0.89  -0.09     0.00   0.00  -0.00
  29   1     0.00   0.01   0.00    -0.01  -0.01  -0.02     0.00   0.00   0.00
  30   1     0.00   0.00  -0.00    -0.01  -0.01   0.01     0.00  -0.00   0.00
  31   1    -0.00  -0.00   0.00    -0.00  -0.00   0.00    -0.01  -0.01   0.01
  32   1     0.00   0.00   0.00    -0.00   0.00   0.00     0.00  -0.00   0.00
  33   1     0.00  -0.00   0.00    -0.00  -0.00   0.00    -0.37  -0.36   0.82
