
                                 *****************
                                 * O   R   C   A *
                                 *****************

                                            #,                                       
                                            ###                                      
                                            ####                                     
                                            #####                                    
                                            ######                                   
                                           ########,                                 
                                     ,,################,,,,,                         
                               ,,#################################,,                 
                          ,,##########################################,,             
                       ,#########################################, ''#####,          
                    ,#############################################,,   '####,        
                  ,##################################################,,,,####,       
                ,###########''''           ''''###############################       
              ,#####''   ,,,,##########,,,,          '''####'''          '####       
            ,##' ,,,,###########################,,,                        '##       
           ' ,,###''''                  '''############,,,                           
         ,,##''                                '''############,,,,        ,,,,,,###''
      ,#''                                            '''#######################'''  
     '                                                          ''''####''''         
             ,#######,   #######,   ,#######,      ##                                
            ,#'     '#,  ##    ##  ,#'     '#,    #''#        ,####,   ,####,        
            ##       ##  ##   ,#'  ##            #'  '#       #'       #'  '#        
            ##       ##  #######   ##           ,######,      #####,   #    #        
            '#,     ,#'  ##    ##  '#,     ,#' ,#      #,     #,   #   #,  ,#        
             '#######'   ##     ##  '#######'  #'      '#     '####' # '####'        



                #########################################################
                #                        -***-                          #
                #          Department of theory and spectroscopy        #
                #                                                       #
                #                      Frank Neese                      #
                #                                                       #
                #     Directorship, Architecture, Infrastructure        #
                #                    SHARK, DRIVERS                     #
                #        Core code/Algorithms in most modules           #
                #                                                       #
                #        Max Planck Institute fuer Kohlenforschung      #
                #                Kaiser Wilhelm Platz 1                 #
                #                 D-45470 Muelheim/Ruhr                 #
                #                      Germany                          #
                #                                                       #
                #                  All rights reserved                  #
                #                        -***-                          #
                #########################################################


                         Program Version 6.0.0  -   RELEASE  -


 With contributions from (in alphabetic order):
   Daniel Aravena         : Magnetic Suceptibility
   Michael Atanasov       : Ab Initio Ligand Field Theory (pilot matlab implementation)
   Alexander A. Auer      : GIAO ZORA, VPT2 properties, NMR spectrum
   Ute Becker             : All parallelization in ORCA, NUMFREQ, NUMCALC
   Giovanni Bistoni       : ED, misc. LED, open-shell LED, HFLD
   Martin Brehm           : Molecular dynamics
   Dmytro Bykov           : pre 5.0 version of the SCF Hessian
   Marcos Casanova-Páez   : Triplet and SCS-CIS(D). UHF-(DLPNO)-IP/EA/STEOM-CCSD. UHF-CVS-IP/STEOM-CCSD
   Vijay G. Chilkuri      : MRCI spin determinant printing, contributions to CSF-ICE
   Pauline Colinet        : FMM embedding
   Dipayan Datta          : RHF DLPNO-CCSD density
   Achintya Kumar Dutta   : EOM-CC, STEOM-CC
   Nicolas Foglia         : Exact transition moments, OPA infrastructure, MCD improvements
   Dmitry Ganyushin       : Spin-Orbit,Spin-Spin,Magnetic field MRCI
   Miquel Garcia          : C-PCM and meta-GGA Hessian, CCSD/C-PCM, Gaussian charge scheme
   Tiago L. C. Gouveia    : GS-ROHF, GS-ROCIS
   Yang Guo               : DLPNO-NEVPT2, F12-NEVPT2, CIM, IAO-localization
   Andreas Hansen         : Spin unrestricted coupled pair/coupled cluster methods
   Ingolf Harden          : AUTO-CI MPn and infrastructure 
   Benjamin Helmich-Paris : MC-RPA, TRAH-(SCF,CASSCF), AVAS, COSX integrals, SCF dyn. polar.
   Lee Huntington         : MR-EOM, pCC
   Robert Izsak           : Overlap fitted RIJCOSX, COSX-SCS-MP3, EOM
   Riya Kayal             : Wick's Theorem for AUTO-CI, AUTO-CI UHF-CCSDT
   Emily Kempfer          : AUTO-CI, RHF CISDT and CCSDT
   Christian Kollmar      : KDIIS, OOCD, Brueckner-CCSD(T), CCSD density, CASPT2, CASPT2-K, improved NEVPT2
   Axel Koslowski         : Symmetry handling
   Simone Kossmann        : Meta GGA functionals, TD-DFT gradient, OOMP2, (MP2 Hessian; deprecated post 5.0)
   Lucas Lang             : DCDCAS
   Marvin Lechner         : AUTO-CI (C++ implementation), FIC-MRCC
   Spencer Leger          : CASSCF response
   Dagmar Lenk            : GEPOL surface, SMD, ORCA-2-JSON
   Dimitrios Liakos       : Extrapolation schemes; Compound Job, initial MDCI parallelization
   Dimitrios Manganas     : Further ROCIS development; embedding schemes. LFT, Crystal Embedding
   Dimitrios Pantazis     : SARC Basis sets
   Anastasios Papadopoulos: AUTO-CI, single reference methods and gradients
   Taras Petrenko         : pre 6.0 DFT Hessian and TD-DFT gradient, (ASA, deprecated), ECA, 1-Electron XAS/XES, NRVS
   Peter Pinski           : DLPNO-MP2, DLPNO-MP2 Gradient
   Christoph Reimann      : Effective Core Potentials
   Marius Retegan         : Local ZFS, SOC
   Christoph Riplinger    : Optimizer, TS searches, QM/MM, DLPNO-CCSD(T), (RO)-DLPNO pert. Triples
   Michael Roemelt        : Original ROCIS implementation
   Masaaki Saitow         : Open-shell DLPNO-CCSD energy and density
   Barbara Sandhoefer     : DKH picture change effects
   Kantharuban Sivalingam : CASSCF convergence/infrastructure, NEVPT2 and variants, FIC-MRCI
   Bernardo de Souza      : ESD, SOC TD-DFT
   Georgi Stoychev        : AutoAux, RI-MP2 NMR, DLPNO-MP2 response, X2C
   Van Anh Tran           : RI-MP2 g-tensors
   Willem Van den Heuvel  : Paramagnetic NMR
   Zikuan Wang            : NOTCH, Electric field optimization 
   Frank Wennmohs         : Technical directorship and infrastructure
   Hang Xu                : AUTO-CI-Response properties 


 We gratefully acknowledge several colleagues who have allowed us to
 interface, adapt or use parts of their codes:
   Stefan Grimme, W. Hujo, H. Kruse, P. Pracht,  : VdW corrections, initial TS optimization,
                  C. Bannwarth, S. Ehlert,         DFT functionals, gCP, sTDA/sTD-DF
                  L. Wittmann, M. Mueller
   Ed Valeev, F. Pavosevic, A. Kumar             : LibInt (2-el integral package), F12 methods
   Garnet Chan, S. Sharma, J. Yang, R. Olivares  : DMRG
   Ulf Ekstrom                                   : XCFun DFT Library
   Mihaly Kallay                                 : mrcc  (arbitrary order and MRCC methods)
   Frank Weinhold                                : gennbo (NPA and NBO analysis)
   Simon Mueller                                 : openCOSMO-RS
   Christopher J. Cramer and Donald G. Truhlar   : smd solvation model
   Lars Goerigk                                  : TD-DFT with DH, B97 family of functionals
   V. Asgeirsson, H. Jonsson                     : NEB implementation
   FAccTs GmbH                                   : IRC, NEB, NEB-TS, DLPNO-Multilevel, CI-OPT
                                                   MM, QMMM, 2- and 3-layer-ONIOM, Crystal-QMMM,
                                                   LR-CPCM, SF, NACMEs, symmetry and pop. for TD-DFT,
                                                   nearIR, NL-DFT gradient (VV10), updates on ESD,
                                                   ML-optimized integration grids, MBIS, APM,
                                                   GOAT, DOCKER, SOLVATOR, interface openCOSMO-RS
   S Lehtola, MJT Oliveira, MAL Marques          : LibXC Library
   Liviu Ungur et al                             : ANISO software


 Your calculation uses the libint2 library for the computation of 2-el integrals
 For citations please refer to: http://libint.valeyev.net

 Your ORCA version has been built with support for libXC version: 6.2.2
 For citations please refer to: https://libxc.gitlab.io

 This ORCA versions uses:
   CBLAS   interface :  Fast vector & matrix operations
   LAPACKE interface :  Fast linear algebra routines
   SCALAPACK package :  Parallel linear algebra routines
   Shared memory     :  Shared parallel matrices
   BLAS/LAPACK       :  OpenBLAS 0.3.27  USE64BITINT DYNAMIC_ARCH NO_AFFINITY SkylakeX SINGLE_THREADED
        Core in use  :  SkylakeX
   Copyright (c) 2011-2014, The OpenBLAS Project


Your calculation utilizes the geometrical counterpoise correction gCP
Please cite in your paper:
H.Kruse, S. Grimme J.Chem.Phys., 136, (2012), 154101 
   

Your calculation utilizes the atom-pairwise dispersion correction
based on EEQ partial charges (D4)


================================================================================

----- Orbital basis set information -----
Your calculation utilizes the basis: def2-SV(P)
   F. Weigend and R. Ahlrichs, Phys. Chem. Chem. Phys. 7, 3297 (2005).

----- AuxJ basis set information -----
Your calculation utilizes the auxiliary basis: def2/J
   F. Weigend, Phys. Chem. Chem. Phys. 8, 1057 (2006).

================================================================================
                                        WARNINGS
                       Please study these warnings very carefully!
================================================================================


================================================================================
                                       INPUT FILE
================================================================================
NAME = sp.inp
|  1> ! pbe def2-sv(p) def2/J RI DEFGRID1 loosescf d4 GCP(DFT/SV(P)) printgap
|  2> %output
|  3>     printlevel normal
|  4> end
|  5> * xyz 0 1
|  6> C -2.4019673475 -1.3676471165 -0.2971517245
|  7> C -2.5425505269 0.1040630433 0.0723397263
|  8> C -1.3100147251 0.6164255668 0.8242246514
|  9> C -0.0993301031 0.6256528736 -0.0730021447
| 10> O -0.0437092134 1.1557825482 -1.1641953901
| 11> O 0.9219193 -0.0214708127 0.4701167572
| 12> C 2.150373983 -0.0852109528 -0.2740410614
| 13> C 3.1339186552 -0.9332378773 0.5085234099
| 14> H -2.2508281656 -1.9728431653 0.5934470068
| 15> H -3.2956705586 -1.7174121441 -0.8067835244
| 16> H -1.551359747 -1.5125998559 -0.9606922226
| 17> H -3.421588274 0.2419156985 0.7022346213
| 18> H -2.6704716652 0.6996153313 -0.833542213
| 19> H -1.0936971382 -0.0035141317 1.6933491269
| 20> H -1.4837502822 1.6443328266 1.147208497
| 21> H 1.9362577165 -0.5124678392 -1.2593802241
| 22> H 2.5186729599 0.9356402297 -0.4194607422
| 23> H 3.3115617935 -0.4903073105 1.4839203367
| 24> H 2.7353418489 -1.9340437088 0.6456225069
| 25> H 4.0707419325 -0.9913867992 -0.0355733595
| 26> *
| 27> 
| 28>                          ****END OF INPUT****
================================================================================

                       ****************************
                       * Single Point Calculation *
                       ****************************

---------------------------------
CARTESIAN COORDINATES (ANGSTROEM)
---------------------------------
  C     -2.401967   -1.367647   -0.297152
  C     -2.542551    0.104063    0.072340
  C     -1.310015    0.616426    0.824225
  C     -0.099330    0.625653   -0.073002
  O     -0.043709    1.155783   -1.164195
  O      0.921919   -0.021471    0.470117
  C      2.150374   -0.085211   -0.274041
  C      3.133919   -0.933238    0.508523
  H     -2.250828   -1.972843    0.593447
  H     -3.295671   -1.717412   -0.806784
  H     -1.551360   -1.512600   -0.960692
  H     -3.421588    0.241916    0.702235
  H     -2.670472    0.699615   -0.833542
  H     -1.093697   -0.003514    1.693349
  H     -1.483750    1.644333    1.147208
  H      1.936258   -0.512468   -1.259380
  H      2.518673    0.935640   -0.419461
  H      3.311562   -0.490307    1.483920
  H      2.735342   -1.934044    0.645623
  H      4.070742   -0.991387   -0.035573

----------------------------
CARTESIAN COORDINATES (A.U.)
----------------------------
  NO LB      ZA    FRAG     MASS         X           Y           Z
   0 C     6.0000    0    12.011   -4.539060   -2.584478   -0.561535
   1 C     6.0000    0    12.011   -4.804724    0.196651    0.136702
   2 C     6.0000    0    12.011   -2.475569    1.164876    1.557559
   3 C     6.0000    0    12.011   -0.187707    1.182313   -0.137954
   4 O     8.0000    0    15.999   -0.082598    2.184112   -2.200010
   5 O     8.0000    0    15.999    1.742175   -0.040574    0.888392
   6 C     6.0000    0    12.011    4.063618   -0.161025   -0.517863
   7 C     6.0000    0    12.011    5.922248   -1.763564    0.960970
   8 H     1.0000    0     1.008   -4.253449   -3.728133    1.121452
   9 H     1.0000    0     1.008   -6.227915   -3.245439   -1.524600
  10 H     1.0000    0     1.008   -2.931645   -2.858399   -1.815445
  11 H     1.0000    0     1.008   -6.465865    0.457154    1.327031
  12 H     1.0000    0     1.008   -5.046460    1.322081   -1.575167
  13 H     1.0000    0     1.008   -2.066788   -0.006641    3.199966
  14 H     1.0000    0     1.008   -2.803882    3.107339    2.167910
  15 H     1.0000    0     1.008    3.658997   -0.968424   -2.379884
  16 H     1.0000    0     1.008    4.759602    1.768104   -0.792666
  17 H     1.0000    0     1.008    6.257945   -0.926547    2.804203
  18 H     1.0000    0     1.008    5.169047   -3.654813    1.220050
  19 H     1.0000    0     1.008    7.692587   -1.873450   -0.067224

--------------------------------
INTERNAL COORDINATES (ANGSTROEM)
--------------------------------
 C      0   0   0     0.000000000000     0.00000000     0.00000000
 C      1   0   0     1.523882658541     0.00000000     0.00000000
 C      2   1   0     1.531989164060   111.57828336     0.00000000
 C      3   2   1     1.506936734166   110.86704517    66.70932179
 O      4   3   2     1.214427377026   125.06104320    52.76835196
 O      4   3   2     1.325404674167   111.84343294   232.73222558
 C      6   4   3     1.437683752648   117.89979431   180.40757232
 C      7   6   4     1.516217972005   108.17513292   183.10540001
 H      1   2   3     1.087323047664   110.59509434    58.32866933
 H      1   2   3     1.086630376684   110.40805633   178.57835848
 H      1   2   3     1.088499232571   110.39594270   298.29486579
 H      2   1   3     1.090173515602   109.67006199   239.33138312
 H      2   1   3     1.091635668763   109.66276237   120.37840877
 H      3   2   1     1.089263917557   111.16352069   305.80087635
 H      3   2   1     1.091373420544   109.40030342   184.92140156
 H      7   6   4     1.095119851024   108.41840661   304.64730627
 H      7   6   4     1.094955778450   108.34975261    61.69343637
 H      8   7   6     1.085883850327   109.97405705   300.24593339
 H      8   7   6     1.085942883067   110.03096046    60.10137695
 H      8   7   6     1.084924165313   109.34571379   180.18258139

---------------------------
INTERNAL COORDINATES (A.U.)
---------------------------
 C      0   0   0     0.000000000000     0.00000000     0.00000000
 C      1   0   0     2.879720884875     0.00000000     0.00000000
 C      2   1   0     2.895039960209   111.57828336     0.00000000
 C      3   2   1     2.847697728719   110.86704517    66.70932179
 O      4   3   2     2.294935152115   125.06104320    52.76835196
 O      4   3   2     2.504651850795   111.84343294   232.73222558
 C      6   4   3     2.716828559693   117.89979431   180.40757232
 C      7   6   4     2.865236726419   108.17513292   183.10540001
 H      1   2   3     2.054742779186   110.59509434    58.32866933
 H      1   2   3     2.053433820732   110.40805633   178.57835848
 H      1   2   3     2.056965446542   110.39594270   298.29486579
 H      2   1   3     2.060129382941   109.67006199   239.33138312
 H      2   1   3     2.062892451982   109.66276237   120.37840877
 H      3   2   1     2.058410491745   111.16352069   305.80087635
 H      3   2   1     2.062396874668   109.40030342   184.92140156
 H      7   6   4     2.069476602256   108.41840661   304.64730627
 H      7   6   4     2.069166550025   108.34975261    61.69343637
 H      8   7   6     2.052023090367   109.97405705   300.24593339
 H      8   7   6     2.052134646077   110.03096046    60.10137695
 H      8   7   6     2.050209548515   109.34571379   180.18258139

---------------------
BASIS SET INFORMATION
---------------------
There are 3 groups of distinct atoms

 Group   1 Type C   : 7s4p1d contracted to 3s2p1d pattern {511/31/1}
 Group   2 Type O   : 7s4p1d contracted to 3s2p1d pattern {511/31/1}
 Group   3 Type H   : 4s contracted to 2s pattern {31}

Atom   0C    basis set group =>   1
Atom   1C    basis set group =>   1
Atom   2C    basis set group =>   1
Atom   3C    basis set group =>   1
Atom   4O    basis set group =>   2
Atom   5O    basis set group =>   2
Atom   6C    basis set group =>   1
Atom   7C    basis set group =>   1
Atom   8H    basis set group =>   3
Atom   9H    basis set group =>   3
Atom  10H    basis set group =>   3
Atom  11H    basis set group =>   3
Atom  12H    basis set group =>   3
Atom  13H    basis set group =>   3
Atom  14H    basis set group =>   3
Atom  15H    basis set group =>   3
Atom  16H    basis set group =>   3
Atom  17H    basis set group =>   3
Atom  18H    basis set group =>   3
Atom  19H    basis set group =>   3
---------------------------------
AUXILIARY/J BASIS SET INFORMATION
---------------------------------
There are 3 groups of distinct atoms

 Group   1 Type C   : 12s5p4d2f1g contracted to 6s4p3d1f1g pattern {711111/2111/211/2/1}
 Group   2 Type O   : 12s5p4d2f1g contracted to 6s4p3d1f1g pattern {711111/2111/211/2/1}
 Group   3 Type H   : 5s2p1d contracted to 3s1p1d pattern {311/2/1}

Atom   0C    basis set group =>   1
Atom   1C    basis set group =>   1
Atom   2C    basis set group =>   1
Atom   3C    basis set group =>   1
Atom   4O    basis set group =>   2
Atom   5O    basis set group =>   2
Atom   6C    basis set group =>   1
Atom   7C    basis set group =>   1
Atom   8H    basis set group =>   3
Atom   9H    basis set group =>   3
Atom  10H    basis set group =>   3
Atom  11H    basis set group =>   3
Atom  12H    basis set group =>   3
Atom  13H    basis set group =>   3
Atom  14H    basis set group =>   3
Atom  15H    basis set group =>   3
Atom  16H    basis set group =>   3
Atom  17H    basis set group =>   3
Atom  18H    basis set group =>   3
Atom  19H    basis set group =>   3
------------------------------------------------------------------------------
                             ORCA STARTUP CALCULATIONS
                           -- RI-GTO INTEGRALS CHOSEN --
------------------------------------------------------------------------------
------------------------------------------------------------------------------
                   ___                                                        
                  /   \      - P O W E R E D   B Y -                         
                 /     \                                                     
                 |  |  |   _    _      __       _____    __    __             
                 |  |  |  | |  | |    /  \     |  _  \  |  |  /  |          
                  \  \/   | |  | |   /    \    | | | |  |  | /  /          
                 / \  \   | |__| |  /  /\  \   | |_| |  |  |/  /          
                |  |  |   |  __  | /  /__\  \  |    /   |      \           
                |  |  |   | |  | | |   __   |  |    \   |  |\   \          
                \     /   | |  | | |  |  |  |  | |\  \  |  | \   \       
                 \___/    |_|  |_| |__|  |__|  |_| \__\ |__|  \__/        
                                                                              
                      - O R C A' S   B I G   F R I E N D -                    
                                      &                                       
                       - I N T E G R A L  F E E D E R -                       
                                                                              
 v1 FN, 2020, v2 2021, v3 2022-2024                                           
------------------------------------------------------------------------------


----------------------
SHARK INTEGRAL PACKAGE
----------------------

Number of atoms                             ...     20
Number of basis functions                   ...    136
Number of shells                            ...     72
Maximum angular momentum                    ...      2
Integral batch strategy                     ... SHARK/LIBINT Hybrid
RI-J (if used) integral strategy            ... SPLIT-RIJ (Revised 2003 algorithm where possible)
Printlevel                                  ...      1
Contraction scheme used                     ... SEGMENTED contraction
Prescreening option                         ... SCHWARTZ
   Thresh                                   ... 1.000e-09
   Tcut                                     ... 1.000e-10
   Tpresel                                  ... 1.000e-10 
Coulomb Range Separation                    ... NOT USED
Exchange Range Separation                   ... NOT USED
Multipole approximations                    ... NOT USED
Finite Nucleus Model                        ... NOT USED
CABS basis                                  ... NOT available
Auxiliary Coulomb fitting basis             ... AVAILABLE
   # of basis functions in Aux-J            ...    524
   # of shells in Aux-J                     ...    180
   Maximum angular momentum in Aux-J        ...      4
Auxiliary J/K fitting basis                 ... NOT available
Auxiliary Correlation fitting basis         ... NOT available
Auxiliary 'external' fitting basis          ... NOT available

Checking pre-screening integrals            ... done (  0.0 sec) Dimension = 72
Check shell pair data                       ... done (  0.0 sec)
Shell pair information
Shell pair cut-off parameter TPreSel        ...   1.0e-10
Total number of shell pairs                 ...      2628
Shell pairs after pre-screening             ...      2422
Total number of primitive shell pairs       ...     10580
Primitive shell pairs kept                  ...      6736
          la=0 lb=0:   1065 shell pairs
          la=1 lb=0:    731 shell pairs
          la=1 lb=1:    134 shell pairs
          la=2 lb=0:    339 shell pairs
          la=2 lb=1:    123 shell pairs
          la=2 lb=2:     30 shell pairs

Calculating one electron integrals          ... done (  0.0 sec)
Calculating RI/J V-Matrix + Cholesky decomp.... done (  0.1 sec)
Calculating Nuclear repulsion               ... done (  0.0 sec) ENN=    392.881002750132 Eh

Diagonalization of the overlap matrix:
Smallest eigenvalue                        ... 1.941e-03
Time for diagonalization                   ...    0.002 sec
Threshold for overlap eigenvalues          ... 1.000e-07
Number of eigenvalues below threshold      ... 0
Time for construction of square roots      ...    0.015 sec
Total time needed                          ...    0.026 sec

-------------------
DFT GRID GENERATION
-------------------

General Integration Accuracy     IntAcc      ... 4.159
Radial Grid Type                 RadialGrid  ... OptM3 with GC (2021)
Angular Grid (max. ang.)         AngularGrid ... 3 (Lebedev-194)
Angular grid pruning method      GridPruning ... 4 (adaptive)
Weight generation scheme         WeightScheme... mBecke (2022)
Basis function cutoff            BFCut       ... 1.0000e-10
Integration weight cutoff        WCut        ... 1.0000e-14
Partially contracted basis set               ... off
Rotationally invariant grid construction     ... off
Angular grids for H and He will be reduced by one unit

Total number of grid points                  ...    43072
Total number of batches                      ...      683
Average number of points per batch           ...       63
Average number of grid points per atom       ...     2154
Initializing property integral containers    ... done (  0.0 sec)

SHARK setup successfully completed in   0.7 seconds

Maximum memory used throughout the entire STARTUP-calculation: 21.2 MB
-------------------------------------------------------------------------------
                                 ORCA GUESS
                   Start orbitals & Density for SCF / CASSCF
-------------------------------------------------------------------------------

------------
SCF SETTINGS
------------
Hamiltonian:
 Density Functional     Method          .... DFT(GTOs)
 Exchange Functional    Exchange        .... PBE
   PBE kappa parameter   XKappa         ....  0.804000
   PBE mue parameter    XMuePBE         ....  0.219520
 Correlation Functional Correlation     .... PBE
   PBE beta parameter  CBetaPBE         ....  0.066725
 LDA part of GGA corr.  LDAOpt          .... PW91-LDA
 Gradients option       PostSCFGGA      .... off
   NL short-range parameter             ....  6.400000
 RI-approximation to the Coulomb term is turned on
   Number of AuxJ basis functions       .... 524


General Settings:
 Integral files         IntName         .... sp
 Hartree-Fock type      HFTyp           .... RHF
 Total Charge           Charge          ....    0
 Multiplicity           Mult            ....    1
 Number of Electrons    NEL             ....   64
 Basis Dimension        Dim             ....  136
 Nuclear Repulsion      ENuc            ....    392.8810027501 Eh

Convergence Acceleration:
 AO-DIIS                CNVDIIS         .... on
   Start iteration      DIISMaxIt       ....    12
   Startup error        DIISStart       ....  0.200000
   # of expansion vecs  DIISMaxEq       ....     5
   Bias factor          DIISBfac        ....   1.050
   Max. coefficient     DIISMaxC        ....  10.000
 MO-DIIS                CNVKDIIS        .... off
 Trust-Rad. Augm. Hess. CNVTRAH         .... auto
   Auto Start mean grad. ratio tolernc. ....  1.125000
   Auto Start start iteration           ....    50
   Auto Start num. interpolation iter.  ....    10
   Max. Number of Micro iterations      ....    24
   Max. Number of Macro iterations      .... Maxiter - #DIIS iter
   Number of Davidson start vectors     ....     2
   Converg. threshold    (grad. norm)   ....   1.000e-04
   Grad. Scal. Fac. for Micro threshold ....   0.100
   Minimum threshold for Micro iter.    ....   1.000e-02
   NR start threshold (gradient norm)   ....   1.000e-04
   Initial trust radius                 ....   0.400
   Minimum AH scaling param. (alpha)    ....   1.000
   Maximum AH scaling param. (alpha)    .... 1000.000
   Quad. conv. algorithm                .... NR
   White noise on init. David. guess    .... on
   Maximum white noise                  ....   0.010
   Pseudo random numbers                .... off
   Inactive MOs                         .... canonical
   Orbital update algorithm             .... Taylor
   Preconditioner                       .... Diag
   Full preconditioner red. dimension   ....   250
 SOSCF                  CNVSOSCF        .... on
   Start iteration      SOSCFMaxIt      ....   150
   Startup grad/error   SOSCFStart      ....  0.003300
   Hessian update       SOSCFHessUp     .... L-BFGS
 Level Shifting         CNVShift        .... on
   Level shift para.    LevelShift      ....    0.2500
   Turn off err/grad.   ShiftErr        ....    0.0010
 Zerner damping         CNVZerner       .... off
 Static damping         CNVDamp         .... on
   Fraction old density DampFac         ....    0.7000
   Max. Damping (<1)    DampMax         ....    0.9800
   Min. Damping (>=0)   DampMin         ....    0.0000
   Turn off err/grad.   DampErr         ....    0.1000

SCF Procedure:
 Maximum # iterations   MaxIter         ....   125
 SCF integral mode      SCFMode         .... Direct
   Integral package                     .... SHARK and LIBINT hybrid scheme
 Reset frequency        DirectResetFreq ....    20
 Integral Threshold     Thresh          ....  1.000e-09 Eh
 Primitive CutOff       TCut            ....  1.000e-10 Eh

Convergence Tolerance:
 Convergence Check Mode ConvCheckMode   .... Total+1el-Energy
 Convergence forced     ConvForced      .... 0
 Energy Change          TolE            ....  1.000e-05 Eh
 1-El. energy change                    ....  1.000e-02 Eh
 Orbital Gradient       TolG            ....  1.000e-04
 Orbital Rotation angle TolX            ....  1.000e-04
 DIIS Error             TolErr          ....  5.000e-04

------------------------------
INITIAL GUESS: MODEL POTENTIAL
------------------------------
Loading Hartree-Fock densities                     ... done
Calculating cut-offs                               ... done
Initializing the effective Hamiltonian             ... done
Setting up the integral package (SHARK)            ... done
Starting the Coulomb interaction                   ... done (   0.1 sec)
Making the grid                                    ... done (   0.2 sec)
Mapping shells                                     ... done
Starting the XC term evaluation                    ... done (   0.2 sec)
  promolecular density results
     # of electrons  =     63.991798453
     EX              =    -50.543232397
     EC              =     -2.106051210
     EX+EC           =    -52.649283608
Transforming the Hamiltonian                       ... done (   0.0 sec)
Diagonalizing the Hamiltonian                      ... done (   0.0 sec)
Back transforming the eigenvectors                 ... done (   0.0 sec)
Now organizing SCF variables                       ... done
                      ------------------
                      INITIAL GUESS DONE (   0.5 sec)
                      ------------------
             **** ENERGY FILE WAS UPDATED (sp.en.tmp) ****
Finished Guess after   0.7 sec
Maximum memory used throughout the entire GUESS-calculation: 16.2 MB

-------------------------------------------------------------------------------------------
                                      ORCA LEAN-SCF
                              memory conserving SCF solver
-------------------------------------------------------------------------------------------

----------------------------------------D-I-I-S--------------------------------------------
Iteration    Energy (Eh)           Delta-E    RMSDP     MaxDP     DIISErr   Damp  Time(sec)
-------------------------------------------------------------------------------------------
               ***  Starting incremental Fock matrix formation  ***
    1    -385.2857126468852584     0.00e+00  4.90e-03  9.86e-02  2.44e-01  0.700   0.8
    2    -385.4108458260578800    -1.25e-01  3.10e-03  4.87e-02  7.66e-02  0.700   0.8
                               ***Turning on AO-DIIS***
    3    -385.4492850928947973    -3.84e-02  1.26e-03  1.40e-02  2.39e-02  0.700   0.8
    4    -385.4742996851222188    -2.50e-02  1.78e-03  2.15e-02  1.45e-02  0.000   0.8
    5    -385.5324370633394437    -5.81e-02  5.64e-04  7.02e-03  8.36e-03  0.000   0.8
                              *** Initializing SOSCF ***
---------------------------------------S-O-S-C-F--------------------------------------
Iteration    Energy (Eh)           Delta-E    RMSDP     MaxDP     MaxGrad    Time(sec)
--------------------------------------------------------------------------------------
    6    -385.5331791795327945    -7.42e-04  2.09e-04  2.50e-03  3.15e-03     0.8
               *** Restarting incremental Fock matrix formation ***
    7    -385.5332339662472805    -5.48e-05  1.62e-04  2.92e-03  6.95e-04     0.8
    8    -385.5332122318970960     2.17e-05  9.01e-05  2.23e-03  2.02e-03     0.7
    9    -385.5332407989618559    -2.86e-05  6.65e-05  1.13e-03  3.01e-04     0.7
   10    -385.5332369603363531     3.84e-06  3.93e-05  7.76e-04  3.74e-04     0.8
                 **** Energy Check signals convergence ****

               *****************************************************
               *                     SUCCESS                       *
               *           SCF CONVERGED AFTER  10 CYCLES          *
               *****************************************************

             **** ENERGY FILE WAS UPDATED (sp.en.tmp) ****

----------------
TOTAL SCF ENERGY
----------------

Total Energy       :       -385.53323696033635 Eh          -10490.89272 eV

Components:
Nuclear Repulsion  :        392.88100275013153 Eh           10690.83560 eV
Electronic Energy  :       -778.41423971046788 Eh          -21181.72832 eV
One Electron Energy:      -1302.17651151378118 Eh          -35434.02431 eV
Two Electron Energy:        523.76227180331330 Eh           14252.29599 eV

Virial components:
Potential Energy   :       -767.93113428281038 Eh          -20896.46852 eV
Kinetic Energy     :        382.39789732247402 Eh           10405.57580 eV
Virial Ratio       :          2.00819915501580

DFT components:
N(Alpha)           :       31.999759169775 electrons
N(Beta)            :       31.999759169775 electrons
N(Total)           :       63.999518339551 electrons
E(X)               :      -51.599816487401 Eh       
E(C)               :       -2.122749501415 Eh       
E(XC)              :      -53.722565988816 Eh       

---------------
SCF CONVERGENCE
---------------

  Last Energy change         ...   -3.8386e-06  Tolerance :   1.0000e-05
  Last MAX-Density change    ...    7.7599e-04  Tolerance :   1.0000e-03
  Last RMS-Density change    ...    3.9268e-05  Tolerance :   1.0000e-04
  Last DIIS Error            ...    3.1478e-03  Tolerance :   5.0000e-04
  Last Orbital Gradient      ...    3.7353e-04  Tolerance :   1.0000e-04
  Last Orbital Rotation      ...    3.4748e-04  Tolerance :   1.0000e-04


----------------
ORBITAL ENERGIES
----------------

  NO   OCC          E(Eh)            E(eV) 
   0   2.0000     -18.797934      -511.5178 
   1   2.0000     -18.729842      -509.6649 
   2   2.0000     -10.003277      -272.2030 
   3   2.0000      -9.946945      -270.6701 
   4   2.0000      -9.895684      -269.2752 
   5   2.0000      -9.890434      -269.1324 
   6   2.0000      -9.889631      -269.1106 
   7   2.0000      -9.876814      -268.7618 
   8   2.0000      -1.004412       -27.3315 
   9   2.0000      -0.906714       -24.6730 
  10   2.0000      -0.727502       -19.7963 
  11   2.0000      -0.700075       -19.0500 
  12   2.0000      -0.636412       -17.3176 
  13   2.0000      -0.583452       -15.8765 
  14   2.0000      -0.531006       -14.4494 
  15   2.0000      -0.503018       -13.6878 
  16   2.0000      -0.449999       -12.2451 
  17   2.0000      -0.443578       -12.0704 
  18   2.0000      -0.414122       -11.2688 
  19   2.0000      -0.403847       -10.9892 
  20   2.0000      -0.387556       -10.5459 
  21   2.0000      -0.363707        -9.8970 
  22   2.0000      -0.362600        -9.8668 
  23   2.0000      -0.352120        -9.5817 
  24   2.0000      -0.346603        -9.4315 
  25   2.0000      -0.321735        -8.7549 
  26   2.0000      -0.309203        -8.4138 
  27   2.0000      -0.297049        -8.0831 
  28   2.0000      -0.295856        -8.0506 
  29   2.0000      -0.291446        -7.9307 
  30   2.0000      -0.256201        -6.9716 
  31   2.0000      -0.215741        -5.8706 
  32   0.0000      -0.019381        -0.5274 
  33   0.0000       0.036328         0.9885 
  34   0.0000       0.052413         1.4262 
  35   0.0000       0.075505         2.0546 
  36   0.0000       0.077821         2.1176 
  37   0.0000       0.089009         2.4221 
  38   0.0000       0.094697         2.5768 
  39   0.0000       0.103393         2.8135 
  40   0.0000       0.104429         2.8417 
  41   0.0000       0.118934         3.2364 
  42   0.0000       0.124885         3.3983 
*Only the first 10 virtual orbitals were printed.

                    ********************************
                    * MULLIKEN POPULATION ANALYSIS *
                    ********************************

-----------------------
MULLIKEN ATOMIC CHARGES
-----------------------
   0 C :   -0.288958
   1 C :   -0.199943
   2 C :   -0.120049
   3 C :    0.088537
   4 O :   -0.216352
   5 O :   -0.236288
   6 C :   -0.031026
   7 C :   -0.271109
   8 H :    0.098496
   9 H :    0.107782
  10 H :    0.115648
  11 H :    0.091216
  12 H :    0.108510
  13 H :    0.091703
  14 H :    0.112777
  15 H :    0.105308
  16 H :    0.104310
  17 H :    0.114380
  18 H :    0.114304
  19 H :    0.110755
Sum of atomic charges:   -0.0000000

--------------------------------
MULLIKEN REDUCED ORBITAL CHARGES
--------------------------------
  0 C s       :     3.093979  s :     3.093979
      pz      :     1.065337  p :     3.165689
      px      :     1.074495
      py      :     1.025857
      dz2     :     0.002553  d :     0.029290
      dxz     :     0.007410
      dyz     :     0.008136
      dx2y2   :     0.006619
      dxy     :     0.004573

  1 C s       :     3.078951  s :     3.078951
      pz      :     1.031868  p :     3.084047
      px      :     1.013259
      py      :     1.038921
      dz2     :     0.004475  d :     0.036945
      dxz     :     0.008446
      dyz     :     0.009378
      dx2y2   :     0.008759
      dxy     :     0.005888

  2 C s       :     3.004208  s :     3.004208
      pz      :     1.043591  p :     3.082620
      px      :     1.003601
      py      :     1.035429
      dz2     :     0.005141  d :     0.033221
      dxz     :     0.008108
      dyz     :     0.006940
      dx2y2   :     0.009213
      dxy     :     0.003819

  3 C s       :     3.066934  s :     3.066934
      pz      :     0.932410  p :     2.713799
      px      :     0.919309
      py      :     0.862080
      dz2     :     0.028002  d :     0.130729
      dxz     :     0.043132
      dyz     :     0.021736
      dx2y2   :     0.017271
      dxy     :     0.020589

  4 O s       :     3.749617  s :     3.749617
      pz      :     1.328177  p :     4.449238
      px      :     1.708800
      py      :     1.412260
      dz2     :     0.006516  d :     0.017498
      dxz     :     0.003333
      dyz     :     0.005667
      dx2y2   :     0.001135
      dxy     :     0.000846

  5 O s       :     3.733854  s :     3.733854
      pz      :     1.620188  p :     4.486272
      px      :     1.231053
      py      :     1.635031
      dz2     :     0.002402  d :     0.016161
      dxz     :     0.005442
      dyz     :     0.002335
      dx2y2   :     0.002755
      dxy     :     0.003227

  6 C s       :     3.085359  s :     3.085359
      pz      :     0.983618  p :     2.886634
      px      :     0.822564
      py      :     1.080452
      dz2     :     0.011842  d :     0.059033
      dxz     :     0.014775
      dyz     :     0.007001
      dx2y2   :     0.014577
      dxy     :     0.010839

  7 C s       :     3.080296  s :     3.080296
      pz      :     1.055777  p :     3.162976
      px      :     1.042495
      py      :     1.064704
      dz2     :     0.006045  d :     0.027837
      dxz     :     0.006351
      dyz     :     0.004379
      dx2y2   :     0.006844
      dxy     :     0.004219

  8 H s       :     0.901504  s :     0.901504

  9 H s       :     0.892218  s :     0.892218

 10 H s       :     0.884352  s :     0.884352

 11 H s       :     0.908784  s :     0.908784

 12 H s       :     0.891490  s :     0.891490

 13 H s       :     0.908297  s :     0.908297

 14 H s       :     0.887223  s :     0.887223

 15 H s       :     0.894692  s :     0.894692

 16 H s       :     0.895690  s :     0.895690

 17 H s       :     0.885620  s :     0.885620

 18 H s       :     0.885696  s :     0.885696

 19 H s       :     0.889245  s :     0.889245


------------------------
MULLIKEN OVERLAP CHARGES
------------------------
B(  0-C ,  1-C ) :   0.8854 B(  0-C ,  2-C ) :  -0.1294 B(  0-C ,  8-H ) :   0.7540 
B(  0-C ,  9-H ) :   0.7321 B(  0-C , 10-H ) :   0.7596 B(  0-C , 11-H ) :  -0.0550 
B(  1-C ,  2-C ) :   0.7746 B(  1-C ,  3-C ) :  -0.0524 B(  1-C ,  8-H ) :  -0.0577 
B(  1-C , 11-H ) :   0.7233 B(  1-C , 12-H ) :   0.6975 B(  2-C ,  3-C ) :   0.6308 
B(  2-C ,  4-O ) :  -0.1899 B(  2-C ,  5-O ) :  -0.2360 B(  2-C , 12-H ) :  -0.0546 
B(  2-C , 13-H ) :   0.6207 B(  2-C , 14-H ) :   0.6214 B(  3-C ,  4-O ) :   1.3414 
B(  3-C ,  5-O ) :   0.7325 B(  3-C ,  6-C ) :  -0.0728 B(  4-O ,  5-O ) :  -0.1701 
B(  5-O ,  6-C ) :   0.5354 B(  5-O ,  7-C ) :  -0.1071 B(  5-O , 15-H ) :  -0.0660 
B(  5-O , 16-H ) :  -0.0634 B(  6-C ,  7-C ) :   0.8331 B(  6-C , 15-H ) :   0.7361 
B(  6-C , 16-H ) :   0.7435 B(  7-C , 15-H ) :  -0.0509 B(  7-C , 16-H ) :  -0.0550 
B(  7-C , 17-H ) :   0.7332 B(  7-C , 18-H ) :   0.7358 B(  7-C , 19-H ) :   0.7207 
B(  8-H , 10-H ) :  -0.0508 B( 11-H , 12-H ) :  -0.0585 B( 15-H , 16-H ) :  -0.0830 
B( 17-H , 18-H ) :  -0.0520 


                     *******************************
                     * LOEWDIN POPULATION ANALYSIS *
                     *******************************

----------------------
LOEWDIN ATOMIC CHARGES
----------------------
   0 C :   -0.342389
   1 C :   -0.227473
   2 C :   -0.247129
   3 C :    0.034083
   4 O :   -0.173484
   5 O :   -0.068616
   6 C :   -0.109077
   7 C :   -0.350592
   8 H :    0.117087
   9 H :    0.121638
  10 H :    0.120254
  11 H :    0.117814
  12 H :    0.124912
  13 H :    0.126121
  14 H :    0.142164
  15 H :    0.115864
  16 H :    0.116016
  17 H :    0.126396
  18 H :    0.126322
  19 H :    0.130089

-------------------------------
LOEWDIN REDUCED ORBITAL CHARGES
-------------------------------
  0 C s       :     2.944794  s :     2.944794
      pz      :     1.121571  p :     3.326758
      px      :     1.126273
      py      :     1.078914
      dz2     :     0.006556  d :     0.070836
      dxz     :     0.018061
      dyz     :     0.018723
      dx2y2   :     0.017690
      dxy     :     0.009806

  1 C s       :     2.906717  s :     2.906717
      pz      :     1.097520  p :     3.231833
      px      :     1.059185
      py      :     1.075128
      dz2     :     0.010452  d :     0.088923
      dxz     :     0.021131
      dyz     :     0.021281
      dx2y2   :     0.023572
      dxy     :     0.012486

  2 C s       :     2.917070  s :     2.917070
      pz      :     1.083459  p :     3.245958
      px      :     1.062451
      py      :     1.100048
      dz2     :     0.011431  d :     0.084101
      dxz     :     0.023632
      dyz     :     0.017543
      dx2y2   :     0.022610
      dxy     :     0.008886

  3 C s       :     2.848969  s :     2.848969
      pz      :     1.003254  p :     2.819694
      px      :     0.947896
      py      :     0.868545
      dz2     :     0.063554  d :     0.297254
      dxz     :     0.102209
      dyz     :     0.050195
      dx2y2   :     0.035559
      dxy     :     0.045737

  4 O s       :     3.552186  s :     3.552186
      pz      :     1.447126  p :     4.590466
      px      :     1.706816
      py      :     1.436524
      dz2     :     0.012037  d :     0.030831
      dxz     :     0.005201
      dyz     :     0.010684
      dx2y2   :     0.001649
      dxy     :     0.001261

  5 O s       :     3.452975  s :     3.452975
      pz      :     1.647671  p :     4.582765
      px      :     1.294888
      py      :     1.640206
      dz2     :     0.004047  d :     0.032875
      dxz     :     0.011249
      dyz     :     0.003627
      dx2y2   :     0.006402
      dxy     :     0.007549

  6 C s       :     2.924373  s :     2.924373
      pz      :     1.045246  p :     3.053266
      px      :     0.883960
      py      :     1.124060
      dz2     :     0.025993  d :     0.131439
      dxz     :     0.034016
      dyz     :     0.016384
      dx2y2   :     0.030007
      dxy     :     0.025039

  7 C s       :     2.948418  s :     2.948418
      pz      :     1.115730  p :     3.333132
      px      :     1.101155
      py      :     1.116247
      dz2     :     0.014359  d :     0.069042
      dxz     :     0.016120
      dyz     :     0.011283
      dx2y2   :     0.015971
      dxy     :     0.011310

  8 H s       :     0.882913  s :     0.882913

  9 H s       :     0.878362  s :     0.878362

 10 H s       :     0.879746  s :     0.879746

 11 H s       :     0.882186  s :     0.882186

 12 H s       :     0.875088  s :     0.875088

 13 H s       :     0.873879  s :     0.873879

 14 H s       :     0.857836  s :     0.857836

 15 H s       :     0.884136  s :     0.884136

 16 H s       :     0.883984  s :     0.883984

 17 H s       :     0.873604  s :     0.873604

 18 H s       :     0.873678  s :     0.873678

 19 H s       :     0.869911  s :     0.869911


---------------------------------
LOEWDIN BOND ORDERS (THRESH 0.050000)
---------------------------------
B(  0-C ,  1-C ) :   1.1329 B(  0-C ,  2-C ) :   0.0534 B(  0-C ,  8-H ) :   0.9405 
B(  0-C ,  9-H ) :   0.9392 B(  0-C , 10-H ) :   0.9374 B(  1-C ,  2-C ) :   1.0798 
B(  1-C ,  3-C ) :   0.0622 B(  1-C , 11-H ) :   0.9060 B(  1-C , 12-H ) :   0.9025 
B(  2-C ,  3-C ) :   1.0570 B(  2-C ,  4-O ) :   0.0955 B(  2-C ,  5-O ) :   0.0733 
B(  2-C , 13-H ) :   0.8964 B(  2-C , 14-H ) :   0.8825 B(  3-C ,  4-O ) :   2.1986 
B(  3-C ,  5-O ) :   1.4061 B(  3-C ,  6-C ) :   0.0772 B(  4-O ,  5-O ) :   0.2085 
B(  5-O ,  6-C ) :   1.0657 B(  5-O ,  7-C ) :   0.0555 B(  6-C ,  7-C ) :   1.1566 
B(  6-C , 15-H ) :   0.9124 B(  6-C , 16-H ) :   0.9138 B(  7-C , 17-H ) :   0.9372 
B(  7-C , 18-H ) :   0.9374 B(  7-C , 19-H ) :   0.9307 

------------------------------------------
LOEWDIN REDUCED ORBITAL POPULATIONS PER MO
-------------------------------------------
THRESHOLD FOR PRINTING IS 0.1%%
                      0         1         2         3         4         5   
                 -18.79793 -18.72984 -10.00328  -9.94695  -9.89568  -9.89043
                   2.00000   2.00000   2.00000   2.00000   2.00000   2.00000
                  --------  --------  --------  --------  --------  --------
 0 C  py              0.0       0.0       0.0       0.0       0.0       0.1
 1 C  s               0.0       0.0       0.0       0.0       0.0      99.6
 2 C  s               0.0       0.0       0.0       0.0      99.6       0.0
 3 C  s               0.0       0.0      99.3       0.0       0.0       0.0
 4 O  s               0.0      99.9       0.0       0.0       0.0       0.0
 4 O  pz              0.0       0.0       0.2       0.0       0.0       0.0
 5 O  s              99.9       0.0       0.0       0.0       0.0       0.0
 5 O  px              0.0       0.0       0.1       0.1       0.0       0.0
 6 C  s               0.0       0.0       0.0      99.7       0.0       0.0

                      6         7         8         9        10        11   
                  -9.88963  -9.87681  -1.00441  -0.90671  -0.72750  -0.70008
                   2.00000   2.00000   2.00000   2.00000   2.00000   2.00000
                  --------  --------  --------  --------  --------  --------
 0 C  s               0.0      99.7       0.0       0.0       6.8       6.1
 0 C  pz              0.0       0.0       0.0       0.0       0.2       0.1
 0 C  py              0.0       0.0       0.0       0.0       1.7       0.9
 1 C  s               0.0       0.0       0.1       0.1      15.8       9.3
 1 C  pz              0.0       0.0       0.0       0.0       0.2       0.0
 1 C  px              0.0       0.0       0.1       0.1       1.5       0.1
 1 C  py              0.0       0.1       0.0       0.0       0.1       0.3
 2 C  s               0.0       0.0       1.0       0.3      18.6       2.4
 2 C  pz              0.0       0.0       0.5       0.5       0.7       0.2
 2 C  px              0.0       0.0       1.3       0.1       0.1       2.1
 2 C  py              0.0       0.0       0.0       0.1       0.4       0.1
 3 C  s               0.0       0.0      18.3       5.4       3.3       0.8
 3 C  pz              0.0       0.0       0.1      15.7       5.7       0.5
 3 C  px              0.0       0.0       4.8       2.0       3.2       1.8
 3 C  py              0.0       0.0       0.5       6.2       0.7       0.5
 3 C  dz2             0.0       0.0       0.0       1.1       0.0       0.0
 3 C  dxz             0.0       0.0       0.2       0.2       0.0       0.1
 3 C  dyz             0.0       0.0       0.5       0.4       0.0       0.0
 3 C  dx2y2           0.0       0.0       0.1       0.1       0.1       0.0
 3 C  dxy             0.0       0.0       0.4       0.2       0.0       0.1
 4 O  s               0.0       0.0      10.6      42.2       1.8       0.1
 4 O  pz              0.0       0.0       2.0       3.7       0.1       0.0
 4 O  py              0.0       0.0       0.6       0.8       0.0       0.0
 5 O  s               0.0       0.0      42.1      14.6       0.0       1.0
 5 O  pz              0.0       0.0       2.1       0.1       0.3       0.1
 5 O  px              0.0       0.0       0.3       0.4       6.0       7.5
 5 O  py              0.0       0.0       0.9       0.1       0.4       0.9
 6 C  s               0.0       0.0       4.7       2.2       6.4      16.2
 6 C  pz              0.0       0.0       1.0       0.8       0.2       0.4
 6 C  px              0.0       0.0       4.5       0.9       0.1       2.1
 6 C  py              0.0       0.0       0.1       0.0       0.1       0.9
 6 C  dxz             0.0       0.0       0.3       0.1       0.0       0.0
 6 C  dx2y2           0.0       0.0       0.2       0.1       0.0       0.0
 7 C  s              99.7       0.0       0.3       0.2       3.9      18.3
 7 C  pz              0.0       0.0       0.0       0.0       0.2       0.5
 7 C  px              0.0       0.0       0.4       0.2       0.4       0.7
 7 C  py              0.0       0.0       0.1       0.1       0.2       0.6
 8 H  s               0.0       0.1       0.0       0.0       1.3       1.2
 9 H  s               0.0       0.1       0.0       0.0       1.1       1.1
10 H  s               0.0       0.1       0.0       0.0       1.4       1.1
11 H  s               0.0       0.0       0.0       0.0       2.7       1.8
12 H  s               0.0       0.0       0.0       0.0       2.7       1.8
13 H  s               0.0       0.0       0.2       0.0       3.7       0.3
14 H  s               0.0       0.0       0.1       0.1       3.3       0.5
15 H  s               0.0       0.0       0.7       0.1       1.1       3.0
16 H  s               0.0       0.0       0.6       0.2       1.1       3.0
17 H  s               0.1       0.0       0.1       0.0       0.7       3.6
18 H  s               0.1       0.0       0.1       0.0       0.7       3.6
19 H  s               0.1       0.0       0.0       0.0       0.7       3.6

                     12        13        14        15        16        17   
                  -0.63641  -0.58345  -0.53101  -0.50302  -0.45000  -0.44358
                   2.00000   2.00000   2.00000   2.00000   2.00000   2.00000
                  --------  --------  --------  --------  --------  --------
 0 C  s              19.3       6.7       6.3       1.0       0.2       0.0
 0 C  pz              0.0       0.1       0.2       0.0       0.6       3.2
 0 C  px              0.1       0.0       0.5       0.2       1.5       0.0
 0 C  py              0.0       1.0       5.9       1.8       0.7       0.6
 0 C  dx2y2           0.0       0.0       0.1       0.0       0.0       0.0
 1 C  s               2.8       1.8      12.1       2.7       0.0       0.2
 1 C  pz              1.5       0.8       0.0       0.2       3.2      11.1
 1 C  px              1.8       0.2       2.9       1.4       2.5       0.0
 1 C  py              5.5       3.7       3.1       0.2       0.0       0.6
 1 C  dx2y2           0.2       0.1       0.0       0.0       0.0       0.0
 2 C  s              12.2       3.5       2.1       1.7       0.3       1.2
 2 C  pz              0.1       0.0       0.6       0.8       8.6      14.0
 2 C  px              2.4       2.8       6.8       0.1       0.9       3.8
 2 C  py              0.5       0.3       0.1       0.4       1.7       2.5
 2 C  dxz             0.1       0.1       0.1       0.0       0.0       0.1
 3 C  s               3.0       1.8       0.9       1.3       0.6       2.1
 3 C  pz              4.1       0.8       1.2       0.3       0.9       1.6
 3 C  px              3.7       1.4       1.9       3.6       7.3       4.6
 3 C  py              0.0       1.0       0.1       1.5       6.4       2.8
 3 C  dxz             0.1       0.1       0.1       0.0       0.0       0.0
 4 O  s               0.6       0.1       0.3       1.0       0.5       1.9
 4 O  pz              0.2       0.1       0.2       0.2       0.0       3.6
 4 O  px              0.2       0.0       0.0       1.1       2.9       2.6
 4 O  py              0.0       0.1       0.0       0.6       2.5       0.2
 5 O  s               0.7       0.0       1.7       3.5       0.0       0.1
 5 O  pz              0.4       0.5       0.3       4.3       1.2       3.6
 5 O  px              2.1      15.1       0.0      13.7       0.5       1.5
 5 O  py              0.1       0.9       0.1       5.0      14.9       2.2
 5 O  dxz             0.0       0.2       0.0       0.1       0.0       0.0
 6 C  s               0.2       4.7       5.9       4.3       0.1       0.1
 6 C  pz              0.1       0.5       3.2      15.2       1.8       4.4
 6 C  px              2.8       4.3       0.3       4.0       1.6       1.5
 6 C  py              0.6       1.5       0.9       1.6      14.1       4.5
 6 C  dxz             0.1       0.2       0.0       0.4       0.0       0.0
 6 C  dx2y2           0.0       0.0       0.1       0.2       0.0       0.0
 7 C  s               7.3      14.1       2.4       0.2       0.1       0.1
 7 C  pz              0.0       0.5       1.7       3.7       1.3       0.5
 7 C  px              0.1       2.1       0.6       0.6       2.2       0.0
 7 C  py              0.0       1.0       1.2       0.6       2.4       3.8
 8 H  s               4.4       2.1       3.5       0.8       0.6       1.3
 9 H  s               5.0       2.3       2.5       0.4       0.5       0.1
10 H  s               4.3       2.3       3.6       0.6       0.5       0.2
11 H  s               0.7       0.7       6.6       1.6       1.5       0.6
12 H  s               0.6       0.6       5.6       1.5       0.6       3.9
13 H  s               2.9       0.5       1.4       1.1       1.3       7.5
14 H  s               3.5       1.7       0.8       1.4       2.8       0.5
15 H  s               0.0       1.4       3.6       6.8       3.5       2.5
16 H  s               0.0       1.5       3.8       6.1       4.2       2.1
17 H  s               1.7       4.5       1.5       0.8       1.6       0.4
18 H  s               1.7       4.5       1.6       0.7       0.8       1.3
19 H  s               2.1       5.6       0.9       0.2       0.2       0.3

                     18        19        20        21        22        23   
                  -0.41412  -0.40385  -0.38756  -0.36371  -0.36260  -0.35212
                   2.00000   2.00000   2.00000   2.00000   2.00000   2.00000
                  --------  --------  --------  --------  --------  --------
 0 C  s               0.3       0.0       0.0       0.0       0.0       0.0
 0 C  pz              2.8       0.2      14.0       4.7       2.0       3.3
 0 C  px              3.8       6.2       5.0       8.0       0.0       7.2
 0 C  py              2.3       0.0       0.0       0.5       5.9       6.3
 1 C  s               0.1       0.0       0.0       0.2       0.1       0.0
 1 C  pz              0.7       0.5       7.2       0.2       2.8       2.0
 1 C  px              3.5       7.7       4.5       3.6       0.0       0.4
 1 C  py              2.8       0.0       3.8       0.5       2.7       5.3
 2 C  s               0.1       0.3       0.4       0.1       0.0       0.2
 2 C  pz              0.1       1.1       0.5       2.5       1.7       3.1
 2 C  px              0.1       3.3       1.8       0.3       2.5       4.1
 2 C  py             22.6       0.5       1.4       0.1       3.3       4.5
 2 C  dz2             0.0       0.0       0.0       0.0       0.0       0.1
 2 C  dxz             0.0       0.0       0.2       0.0       0.0       0.0
 2 C  dyz             0.0       0.0       0.0       0.0       0.0       0.1
 2 C  dxy             0.0       0.0       0.1       0.1       0.0       0.0
 3 C  s               0.3       0.5       3.0       0.1       0.0       0.0
 3 C  pz              0.2       4.4       1.1       1.8       1.3       0.5
 3 C  px              0.7       0.4       1.0       0.3       0.8       0.8
 3 C  py              4.0       0.6       1.4       7.4       1.2       0.3
 3 C  dz2             0.1       0.1       0.0       0.1       0.0       0.0
 3 C  dyz             0.1       0.2       0.0       0.0       0.0       0.0
 3 C  dx2y2           0.0       0.2       0.0       0.0       0.0       0.0
 3 C  dxy             0.1       0.0       0.0       0.0       0.1       0.1
 4 O  s               2.6       7.1       4.9       0.1       0.1       0.4
 4 O  pz              5.4       8.2      16.5       0.4       0.0       1.5
 4 O  px              0.3       0.5       0.6       0.1       2.1       0.1
 4 O  py              0.0       7.0       1.0       7.7       1.5       0.3
 4 O  dz2             0.1       0.0       0.1       0.0       0.0       0.0
 4 O  dyz             0.0       0.1       0.1       0.0       0.0       0.0
 5 O  s               0.3       1.7       0.3       0.4       1.8       0.0
 5 O  pz              4.6      16.5       0.1       3.1       0.1       0.3
 5 O  px              0.2       2.2       0.3       1.8       0.2       4.5
 5 O  py              0.4       2.1       0.0       6.0       5.2       0.1
 6 C  s               0.1       0.4       0.2       0.1       0.1       0.2
 6 C  pz              2.0       0.2       0.9       0.3       0.2       0.1
 6 C  px              3.5       3.6       0.1       0.1       1.2       2.5
 6 C  py              3.3       4.4       1.3       0.0       0.2       0.6
 6 C  dxz             0.0       0.0       0.0       0.1       0.0       0.2
 6 C  dx2y2           0.0       0.1       0.0       0.0       0.2       0.1
 7 C  s               0.1       0.2       0.0       0.0       0.0       0.0
 7 C  pz              0.3       5.6       0.0      11.6       8.8       3.8
 7 C  px              0.0       3.1       4.5       0.8      13.6      14.7
 7 C  py              7.1       0.1       0.0      10.1       8.2       0.6
 7 C  dz2             0.0       0.0       0.0       0.1       0.0       0.0
 7 C  dxz             0.0       0.0       0.0       0.1       0.1       0.2
 7 C  dx2y2           0.0       0.0       0.0       0.0       0.3       0.2
 7 C  dxy             0.0       0.0       0.0       0.0       0.1       0.0
 8 H  s               0.0       0.2       2.9       1.6       3.2       5.8
 9 H  s               4.2       2.0       0.0       6.3       0.0       2.6
10 H  s               0.0       1.1       7.3       0.2       0.0       1.2
11 H  s               0.3       1.6       4.6       0.6       0.6       0.2
12 H  s               0.7       0.6       3.5       0.1       0.2       0.0
13 H  s               2.3       0.2       0.0       1.1       2.9       6.0
14 H  s               9.6       0.0       2.4       0.4       1.2       1.4
15 H  s               1.4       1.0       0.1       0.0       0.4       0.1
16 H  s               2.4       0.1       0.3       0.1       0.2       0.1
17 H  s               0.7       3.0       0.1       9.2       0.6       1.3
18 H  s               2.7       0.1       0.1       2.3      10.5       0.6
19 H  s               0.1       0.2       1.8       3.9      11.3      11.4

                     24        25        26        27        28        29   
                  -0.34660  -0.32174  -0.30920  -0.29705  -0.29586  -0.29145
                   2.00000   2.00000   2.00000   2.00000   2.00000   2.00000
                  --------  --------  --------  --------  --------  --------
 0 C  s               0.0       0.1       0.1       0.2       0.1       0.1
 0 C  pz              6.7       1.3       2.3       6.4       6.9       1.2
 0 C  px              4.1       2.5      10.9       0.0       2.6       3.6
 0 C  py              0.7       6.5       1.9       9.1       6.9       1.0
 0 C  dxz             0.1       0.0       0.3       0.1       0.1       0.1
 0 C  dyz             0.0       0.0       0.0       0.6       0.1       0.0
 0 C  dx2y2           0.0       0.1       0.1       0.0       0.1       0.1
 0 C  dxy             0.0       0.0       0.1       0.0       0.2       0.1
 1 C  s               0.0       0.1       0.0       0.0       0.0       0.1
 1 C  pz              0.1       1.0       1.1      14.7       5.8       1.7
 1 C  px              0.1       0.0       9.6       0.1       4.4       8.1
 1 C  py              0.1       5.1       2.3      10.4       6.6       0.4
 1 C  dz2             0.1       0.0       0.0       0.2       0.0       0.0
 1 C  dxz             0.0       0.0       0.2       0.1       0.1       0.2
 1 C  dyz             0.0       0.0       0.0       0.9       0.0       0.0
 1 C  dx2y2           0.0       0.1       0.1       0.0       0.3       0.2
 1 C  dxy             0.0       0.0       0.2       0.0       0.1       0.1
 2 C  s               0.0       0.1       0.6       0.0       0.4       0.0
 2 C  pz              6.1       0.4       1.8       2.6       4.6       0.2
 2 C  px              2.0       1.0       1.4       1.8       4.3       6.8
 2 C  py              0.2       1.4       0.4       3.2      10.7       0.5
 2 C  dz2             0.0       0.0       0.0       0.2       0.0       0.0
 2 C  dxz             0.1       0.0       0.0       0.1       0.1       0.2
 2 C  dyz             0.0       0.0       0.1       0.3       0.1       0.0
 2 C  dx2y2           0.0       0.0       0.0       0.0       0.4       0.1
 3 C  s               0.2       0.0       0.0       0.0       0.0       1.0
 3 C  pz              3.1       1.2       0.7       0.1       0.6       3.8
 3 C  px              4.7       0.7       1.2       0.4       0.2       0.8
 3 C  py              0.4       4.2       1.1       0.1       2.0       0.6
 3 C  dz2             0.1       0.1       0.2       0.0       0.2       0.2
 3 C  dxz             0.0       0.1       0.0       0.0       0.0       0.2
 3 C  dyz             0.0       0.0       0.1       0.0       0.2       0.2
 3 C  dx2y2           0.1       0.1       0.2       0.0       0.0       0.1
 3 C  dxy             0.0       0.0       0.0       0.0       0.1       0.0
 4 O  s               2.0       0.0       0.6       0.1       0.0       0.9
 4 O  pz              9.7       1.1       4.4       0.4       1.4       5.6
 4 O  px              1.5       1.3       1.4       0.4       0.7       0.1
 4 O  py              2.4       6.7       0.1       0.0       7.2       1.5
 5 O  s               0.0       0.0       0.8       0.2       0.0       3.2
 5 O  pz              1.2       0.5       8.7       0.3       0.4      20.6
 5 O  px              0.3       0.0       0.1       0.3       0.1       1.6
 5 O  py              0.2       0.3       2.5       0.4       1.7       3.2
 6 C  s               0.0       0.0       0.1       0.0       0.0       0.3
 6 C  pz              5.4       1.7       5.6       0.1       0.8       6.2
 6 C  px              7.0       1.3       0.7       0.1       0.3       0.7
 6 C  py              4.8       9.1       1.6       0.4       2.5       0.6
 6 C  dz2             0.0       0.2       0.1       0.0       0.1       0.2
 6 C  dx2y2           0.0       0.2       0.1       0.0       0.0       0.1
 6 C  dxy             0.1       0.0       0.2       0.0       0.0       0.2
 7 C  s               0.1       0.0       0.3       0.0       0.0       0.2
 7 C  pz              9.0       2.8       3.1       0.0       0.3       1.9
 7 C  px              6.2       1.7       2.6       0.0       0.1       0.2
 7 C  py              3.3      12.7       1.6       0.2       1.1       0.6
 7 C  dz2             0.0       0.3       0.0       0.0       0.1       0.0
 7 C  dyz             0.1       0.1       0.0       0.0       0.0       0.0
 7 C  dx2y2           0.0       0.2       0.0       0.0       0.0       0.0
 8 H  s               2.7       0.0       0.0      11.3       1.2       0.1
 9 H  s               0.3       4.1       2.3       0.2       8.2       0.7
10 H  s               4.8       0.1       9.3       1.9       0.0       4.1
11 H  s               0.0       0.2       8.7       2.1       0.0       8.4
12 H  s               0.1       0.0       0.1      19.9       0.5       0.2
13 H  s               2.1       0.1       1.5       7.0       0.0       0.1
14 H  s               0.2       0.7       0.7       1.9       8.3       1.2
15 H  s               1.7       4.8       2.6       0.0       2.0       2.4
16 H  s               1.1       6.7       1.2       0.5       2.0       1.4
17 H  s               3.3       7.4       1.0       0.0       1.0       0.7
18 H  s               0.8       9.2       0.3       0.2       1.0       0.3
19 H  s               0.3       0.0       0.1       0.0       0.0       0.2

                     30        31        32        33        34        35   
                  -0.25620  -0.21574  -0.01938   0.03633   0.05241   0.07551
                   2.00000   2.00000   0.00000   0.00000   0.00000   0.00000
                  --------  --------  --------  --------  --------  --------
 0 C  s               0.0       0.0       0.2       5.6       4.5       5.5
 0 C  pz              0.0       0.0       0.2       0.1       0.1       1.5
 0 C  px              0.0       0.0       0.1       0.2       0.4       1.6
 0 C  py              0.0       0.1       0.1       1.0       1.6       0.2
 0 C  dxz             0.0       0.0       0.0       0.0       0.0       0.1
 0 C  dxy             0.0       0.0       0.0       0.0       0.1       0.1
 1 C  s               0.0       0.1       1.8       1.6       4.3       0.6
 1 C  pz              0.1       0.0       1.0       0.1       0.0       0.7
 1 C  px              0.0       0.2       0.9       0.9       2.8       1.1
 1 C  py              0.0       0.1       0.1       0.2       0.3       0.3
 1 C  dxz             0.0       0.0       0.0       0.0       0.1       0.2
 1 C  dxy             0.0       0.0       0.0       0.0       0.0       0.2
 2 C  s               0.0       0.6       0.1       2.2       3.4       2.8
 2 C  pz              0.0       3.5       0.1       0.5       2.1       1.5
 2 C  px              0.0       3.2       0.3       0.2       0.0       0.4
 2 C  py              0.1       0.1       0.3       0.1       0.1       0.8
 2 C  dxz             0.0       0.0       0.3       0.0       0.0       0.0
 2 C  dyz             0.0       0.0       0.3       0.0       0.0       0.0
 2 C  dx2y2           0.0       0.0       0.5       0.0       0.1       0.1
 2 C  dxy             0.0       0.0       1.0       0.0       0.0       0.0
 3 C  s               0.0       0.4       0.0       1.5       0.2       0.3
 3 C  pz              0.1       0.4       8.5       0.5       0.3       0.4
 3 C  px              0.1       0.9       4.1       0.5       0.2       0.0
 3 C  py              0.4       0.2      32.7       0.7       1.4       0.4
 3 C  dz2             0.8       0.2       0.5       0.1       0.0       0.0
 3 C  dxz             0.4       3.2       0.0       0.0       0.0       0.0
 3 C  dyz             0.5       0.2       0.4       0.3       0.0       0.0
 3 C  dx2y2           0.7       0.0       0.0       0.1       0.0       0.1
 3 C  dxy             0.1       1.0       0.3       0.1       0.0       0.0
 4 O  s               0.0       0.0       0.0       0.6       0.1       0.1
 4 O  pz              6.5       0.8       4.5       0.2       0.2       0.2
 4 O  px              3.4      65.9       2.4       0.2       0.1       0.0
 4 O  py             25.2       6.3      18.3       0.0       0.5       0.4
 4 O  dz2             0.0       0.0       0.2       0.0       0.0       0.0
 4 O  dyz             0.0       0.0       0.2       0.0       0.0       0.0
 5 O  s               0.0       0.3       0.0       0.9       0.0       0.1
 5 O  pz              8.5       4.5       2.0       0.2       0.1       0.3
 5 O  px              4.2       1.5       1.0       0.1       0.1       0.1
 5 O  py             32.1       2.4       7.5       0.0       0.2       0.0
 5 O  dxz             0.0       0.0       0.1       0.0       0.1       0.0
 5 O  dx2y2           0.0       0.0       0.2       0.0       0.0       0.0
 5 O  dxy             0.0       0.0       0.2       0.0       0.0       0.0
 6 C  s               0.0       0.1       0.0       5.5       2.6       0.3
 6 C  pz              0.8       0.2       0.0       3.2       0.9       2.5
 6 C  px              0.4       0.5       0.0       0.4       0.2       0.5
 6 C  py              3.0       0.1       0.1       0.5       0.3       2.3
 6 C  dz2             0.4       0.0       0.2       0.0       0.0       0.1
 6 C  dxz             0.0       0.0       0.0       0.0       0.1       0.3
 6 C  dyz             0.3       0.0       0.1       0.1       0.1       0.0
 6 C  dxy             0.4       0.0       0.2       0.1       0.1       0.0
 7 C  s               0.0       0.0       0.0       7.6       7.8       4.1
 7 C  pz              0.0       0.0       0.0       0.3       0.1       1.3
 7 C  px              0.0       0.1       0.0       0.7       1.0       1.0
 7 C  py              0.2       0.0       0.0       0.8       0.2       0.6
 7 C  dz2             0.0       0.0       0.0       0.0       0.0       0.3
 7 C  dyz             0.0       0.0       0.0       0.1       0.0       0.0
 8 H  s               0.0       0.0       0.1       4.2       6.6       0.7
 9 H  s               0.0       0.0       0.2       3.3       6.2       1.7
10 H  s               0.0       0.0       0.2       7.1       0.3      17.5
11 H  s               0.1       0.3       1.2       2.3      10.6       6.2
12 H  s               0.1       0.3       0.0       1.8       3.2       0.5
13 H  s               0.0       1.1       0.0       3.5       6.2       2.7
14 H  s               0.0       0.1       5.2       2.3       5.1       7.8
15 H  s               4.7       0.2       0.7      10.3       3.8      10.9
16 H  s               5.2       0.1       0.8       8.4       3.1       1.6
17 H  s               0.5       0.1       0.0       4.4       5.2      13.4
18 H  s               0.5       0.0       0.0       6.7       3.9       0.1
19 H  s               0.0       0.3       0.0       6.8       8.1       3.1

                     36        37        38        39        40        41   
                   0.07782   0.08901   0.09470   0.10339   0.10443   0.11893
                   0.00000   0.00000   0.00000   0.00000   0.00000   0.00000
                  --------  --------  --------  --------  --------  --------
 0 C  s               1.7       0.9       2.5       2.5       1.6       2.1
 0 C  pz              2.4       2.9       0.1       0.2       0.8       0.0
 0 C  px              0.2       3.4       0.2       1.3       0.5       6.3
 0 C  py              1.1       0.1       0.4       0.8       0.1       1.0
 0 C  dz2             0.0       0.0       0.0       0.0       0.0       0.5
 0 C  dxz             0.0       0.1       0.0       0.1       0.0       0.4
 0 C  dyz             0.2       0.1       0.1       0.0       0.2       0.0
 0 C  dx2y2           0.1       0.1       0.0       0.0       0.0       0.3
 1 C  s               0.2       2.9       0.1       0.3       3.1       9.1
 1 C  pz              1.7       0.8       0.4       0.0       2.0       4.4
 1 C  px              0.2       0.7       0.1       0.0       1.7       0.0
 1 C  py              0.2       1.6       0.3       0.0       0.0       0.7
 1 C  dxz             0.0       0.1       0.0       0.0       0.1       0.0
 1 C  dyz             0.2       0.3       0.0       0.0       0.1       0.0
 1 C  dx2y2           0.1       0.1       0.1       0.0       0.0       0.5
 1 C  dxy             0.3       0.2       0.1       0.0       0.0       0.5
 2 C  s               1.0       3.7       3.0       0.4       0.9       0.2
 2 C  pz              1.6       2.2       0.4       0.7       0.0       0.1
 2 C  px              0.2       0.5       0.3       0.2       0.3       1.6
 2 C  py              5.3       1.6       1.5       0.7       0.2       2.0
 2 C  dz2             0.2       0.1       0.1       0.1       0.2       0.0
 2 C  dxz             0.0       0.0       0.0       0.0       0.0       0.4
 2 C  dyz             0.3       0.1       0.0       0.1       0.0       0.5
 2 C  dx2y2           0.0       0.1       0.0       0.1       0.0       0.0
 3 C  s               1.2       0.3       0.0       0.2       0.5       0.3
 3 C  pz              0.3       0.2       0.3       0.6       0.1       0.8
 3 C  px              0.8       0.4       0.4       0.1       0.7       0.2
 3 C  py              0.3       0.3       0.1       0.7       0.3       0.0
 3 C  dz2             0.1       0.0       0.0       0.3       0.1       0.1
 3 C  dxz             0.0       0.2       0.0       0.0       0.0       0.0
 3 C  dyz             0.0       0.0       0.0       0.1       0.0       0.0
 3 C  dx2y2           0.5       0.0       0.1       0.1       0.2       0.0
 3 C  dxy             0.5       0.0       0.0       0.0       0.1       0.1
 4 O  s               0.2       0.1       0.0       0.3       0.0       0.3
 4 O  pz              0.0       0.0       0.0       0.1       0.0       0.0
 4 O  px              0.5       0.2       0.0       0.1       0.0       1.1
 4 O  py              0.0       0.1       0.1       0.0       0.0       0.0
 5 O  s               2.3       1.9       0.8       2.3       1.8       0.1
 5 O  pz              1.3       0.5       0.0       1.3       0.6       0.1
 5 O  px              0.4       1.2       0.3       2.5       0.3       0.3
 5 O  py              0.2       0.1       0.2       0.0       0.0       0.0
 5 O  dxz             0.0       0.1       0.0       0.1       0.1       0.0
 5 O  dx2y2           0.1       0.1       0.1       0.2       0.0       0.0
 6 C  s               0.3       0.1       3.3       7.1       4.3       1.0
 6 C  pz              2.4       2.3       1.2       0.3       1.9       0.1
 6 C  px              6.1       6.4       0.4       4.8       3.1       0.4
 6 C  py              0.9       0.0       6.5       0.1       0.2       0.3
 6 C  dz2             0.0       0.0       0.3       0.2       0.3       0.0
 6 C  dxz             0.4       0.8       0.3       0.4       0.1       0.0
 6 C  dyz             0.1       0.0       0.1       0.1       0.1       0.0
 6 C  dx2y2           0.9       0.5       0.1       0.8       0.3       0.1
 7 C  s               2.2       2.0       1.7       1.8       0.7       0.2
 7 C  pz              0.7       0.2       1.3       3.2       7.9       0.2
 7 C  px              0.5       0.3       0.5       6.0       2.4       0.8
 7 C  py              1.2       0.1       6.2       0.3       0.6       0.6
 7 C  dz2             0.1       0.1       0.5       0.0       0.0       0.0
 7 C  dxz             0.0       0.1       0.1       0.2       0.5       0.0
 7 C  dyz             0.1       0.1       0.2       0.0       0.1       0.0
 7 C  dx2y2           0.5       0.2       0.1       0.8       0.0       0.0
 7 C  dxy             0.1       0.0       0.0       0.3       0.0       0.0
 8 H  s              12.3       3.3       3.2       3.8       0.2       0.6
 9 H  s               0.3      13.4       2.1       6.6       1.0      15.5
10 H  s               0.0       0.0       0.4       0.2       5.2       2.7
11 H  s               0.2       2.1       0.2       0.3      15.7       0.9
12 H  s               4.9      11.8       0.1       0.3       0.1      26.8
13 H  s               6.9      18.2       0.7       0.9       0.4       1.8
14 H  s              11.9       0.4       9.6       2.7       2.5       6.1
15 H  s               0.5       0.9       1.7       6.6       7.4       0.9
16 H  s               7.0       2.0      22.2       3.4       0.6       2.0
17 H  s               2.1       2.0       4.6       0.4      17.6       2.3
18 H  s              10.1       3.4      18.6       1.8       1.1       1.0
19 H  s               1.0       0.7       1.5      29.6       8.7       1.2

                     42        43        44        45        46        47   
                   0.12488   0.13284   0.13673   0.14572   0.18194   0.18977
                   0.00000   0.00000   0.00000   0.00000   0.00000   0.00000
                  --------  --------  --------  --------  --------  --------
 0 C  s               0.8       0.7       0.6       0.4       0.5       0.7
 0 C  pz              0.0       8.2       0.5       8.4       0.3       2.5
 0 C  px              0.2       3.9       3.2       5.0       0.1       0.8
 0 C  py              0.1       0.1       0.9       1.7       5.1       8.3
 0 C  dz2             0.0       0.1       0.0       0.3       0.1       0.0
 0 C  dxz             0.0       0.1       0.2       0.8       0.0       0.0
 0 C  dyz             0.3       0.2       0.1       0.1       0.2       0.7
 0 C  dx2y2           0.0       0.5       0.4       0.0       0.7       2.6
 0 C  dxy             0.2       0.1       0.0       0.1       0.1       0.3
 1 C  s               1.1       0.0       0.6       0.6       0.3       7.0
 1 C  pz              3.2       0.0       2.5       2.2       0.5       3.3
 1 C  px              4.3       0.1       2.1       2.0       0.3      15.0
 1 C  py              0.4       1.2       0.2       0.2       4.4       5.6
 1 C  dz2             0.0       0.6       0.1       0.1       0.0       2.2
 1 C  dxz             0.1       0.2       0.1       0.3       0.0       2.4
 1 C  dyz             0.2       0.1       0.0       0.2       0.2       0.9
 1 C  dx2y2           0.0       0.2       0.2       0.0       1.0       0.0
 1 C  dxy             0.0       0.0       0.0       0.2       0.2       0.1
 2 C  s               1.1       0.6       0.1       0.1       1.5       4.0
 2 C  pz              3.2       1.3       1.1       0.1       2.1       8.0
 2 C  px              0.3       0.6       0.2       1.0       0.9       3.2
 2 C  py              1.1       5.3       3.0       0.7       0.8       5.1
 2 C  dz2             0.1       0.1       0.0       0.3       0.0       0.1
 2 C  dxz             0.0       0.5       0.0       0.4       0.3       0.1
 2 C  dyz             0.1       0.2       0.2       0.0       0.0       1.0
 2 C  dx2y2           0.2       0.0       0.0       0.0       0.9       1.0
 2 C  dxy             0.0       0.0       0.1       0.0       0.0       1.8
[...]
 2 C  dyz             0.8       0.8       0.1       0.5       0.5       0.1
 2 C  dx2y2           0.7       0.1       0.1       0.0       0.3       0.7
 2 C  dxy             5.4       0.4       0.3       0.4       0.1       0.1
 3 C  s               0.8       0.1       0.0       0.0       0.3       1.0
 3 C  pz              0.1       0.2       0.0       0.2       0.1       1.0
 3 C  px              0.5       0.4       0.0       0.2       0.2       1.4
 3 C  py              0.0       0.0       0.1       0.7       0.2       0.8
 3 C  dz2             0.0       0.0       0.0       0.0       4.8       0.8
 3 C  dxz             0.3       0.4       0.1       1.7       0.2       4.0
 3 C  dyz             0.2       0.3       0.0       1.0       0.4       0.5
 3 C  dx2y2           0.1       1.8       0.3       2.6       5.3       0.6
 3 C  dxy             0.1       0.6       0.4       8.1       1.5       0.0
 4 O  s               0.0       0.0       0.0       0.1       1.1       0.4
 4 O  pz              0.0       0.0       0.0       0.0       0.4       0.4
 4 O  px              0.0       0.0       0.0       0.1       0.2       0.4
 4 O  py              0.0       0.0       0.0       0.2       0.0       0.0
 4 O  dz2             0.2       2.1       3.0       4.3       1.1       2.7
 4 O  dxz             2.2       3.3       0.0       7.7       8.6      18.1
 4 O  dyz             0.0       7.8       2.8       1.6       0.4       0.1
 4 O  dx2y2           0.0      37.2       0.0       7.8       3.8       0.1
 4 O  dxy            20.4      19.2       2.6       3.0       0.4       5.5
 5 O  s               0.0       0.2       0.0       0.0       0.6       7.7
 5 O  pz              0.1       0.3       0.2       0.2       1.3       0.7
 5 O  px              0.0       0.2       0.1       0.0       1.2       0.1
 5 O  py              0.1       0.2       0.6       0.5       0.1       0.2
 5 O  dz2             0.8       1.8      25.2      12.4      14.7       1.2
 5 O  dxz             0.4       0.2       0.3       9.1      10.6       0.2
 5 O  dyz             2.4       3.7      22.7       1.2      24.9       6.5
 5 O  dx2y2           0.6       0.3       0.6      23.5       0.3      22.7
 5 O  dxy             0.1       0.2      28.2      10.4       0.6      15.5
 6 C  s               0.0       0.2       0.0       0.0       0.8       0.3
 6 C  pz              0.0       0.2       0.1       0.0       0.1       0.2
 6 C  px              0.0       0.6       0.1       0.0       0.5       0.6
 6 C  py              0.1       0.2       0.5       0.0       0.0       0.0
 6 C  dz2             0.0       0.4       1.0       0.2       2.7       0.2
 6 C  dxz             0.3       1.4       0.7       0.1       0.0       2.6
 6 C  dyz             0.3       0.6       1.7       0.4       0.1       0.0
 6 C  dx2y2           0.1       0.4       1.5       0.3       3.3       0.6
 6 C  dxy             0.0       2.8       5.6       0.2       2.1       0.1
 7 C  s               0.1       0.5       0.0       0.0       0.0       0.1
 7 C  pz              0.0       0.2       0.0       0.0       0.0       0.0
 7 C  px              0.0       0.2       0.0       0.0       0.0       0.1
 7 C  py              0.0       0.2       0.0       0.0       0.0       0.0
 7 C  dz2             0.1       0.0       0.3       0.0       0.4       0.0
 7 C  dxz             0.1       0.8       0.0       0.0       0.2       0.1
 7 C  dyz             0.1       1.0       0.1       0.0       0.5       0.0
 7 C  dx2y2           0.0       0.0       0.0       0.1       0.3       0.0
 7 C  dxy             0.1       0.9       0.1       0.0       0.0       0.0
 9 H  s               0.2       0.0       0.0       0.0       0.0       0.0
14 H  s               0.2       0.0       0.0       0.0       0.0       0.0
15 H  s               0.0       0.1       0.0       0.0       0.1       0.0
16 H  s               0.0       0.1       0.0       0.1       0.1       0.0

                    132       133       134       135   
                   3.11402   3.32856   3.49797   3.55601
                   0.00000   0.00000   0.00000   0.00000
                  --------  --------  --------  --------
 1 C  dxz             0.1       0.0       0.0       0.0
 2 C  s               0.0       0.2       0.1       0.0
 2 C  pz              0.0       0.1       0.0       0.1
 2 C  px              0.0       0.1       0.3       0.0
 2 C  dz2             0.0       0.2       0.4       0.1
 2 C  dxz             0.2       0.5       0.4       0.3
 2 C  dx2y2           0.4       0.0       0.8       0.0
 2 C  dxy             0.4       0.1       0.1       0.0
 3 C  s               0.0       3.9       0.1       6.0
 3 C  pz              0.1       0.3       2.0       3.3
 3 C  px              0.0       1.3       0.9       0.1
 3 C  py              0.3       0.1       1.1       0.7
 3 C  dz2             8.9       1.1       2.0       3.5
 3 C  dxz             2.0       2.3      12.2       2.7
 3 C  dyz             5.5       0.6       0.4       5.7
 3 C  dx2y2           4.4       2.6       0.0       1.1
 3 C  dxy             0.0       0.1       5.0       0.4
 4 O  s               0.0       1.7       1.1       4.0
 4 O  pz              0.2       0.5       0.5       2.6
 4 O  px              0.1       0.2       0.5       0.2
 4 O  py              0.7       0.2       0.3       0.5
 4 O  dz2            28.3       3.5       2.5      26.9
 4 O  dxz             2.7       4.5      12.3       5.8
 4 O  dyz            20.5       9.6       8.9      17.5
 4 O  dx2y2           6.4       0.6       1.9       0.8
 4 O  dxy             2.6       1.6       2.5       1.5
 5 O  s               0.0       0.1       0.8       0.4
 5 O  pz              0.0       0.0       0.1       0.1
 5 O  px              0.0       2.3       3.0       0.1
 5 O  py              0.0       0.4       0.5       0.0
 5 O  dz2             0.0       2.6       4.5       4.6
 5 O  dxz             2.4      31.0      16.9       0.2
 5 O  dyz             0.2       6.8       1.2       0.6
 5 O  dx2y2           5.0      10.5       1.2       6.1
 5 O  dxy             7.4       1.0      12.7       2.5
 6 C  s               0.0       0.7       0.2       0.0
 6 C  pz              0.0       0.4       0.0       0.1
 6 C  px              0.0       1.4       0.3       0.1
 6 C  dz2             0.2       0.0       0.5       0.2
 6 C  dxz             0.0       4.4       0.1       0.6
 6 C  dyz             0.2       0.1       0.2       0.0
 6 C  dx2y2           0.0       1.8       0.5       0.0
 6 C  dxy             0.3       0.0       0.1       0.1
 7 C  dx2y2           0.0       0.0       0.1       0.0
 7 C  dxy             0.0       0.1       0.1       0.0


                      *****************************
                      * MAYER POPULATION ANALYSIS *
                      *****************************

  NA   - Mulliken gross atomic population
  ZA   - Total nuclear charge
  QA   - Mulliken gross atomic charge
  VA   - Mayer's total valence
  BVA  - Mayer's bonded valence
  FA   - Mayer's free valence

  ATOM       NA         ZA         QA         VA         BVA        FA
  0 C      6.2890     6.0000    -0.2890     4.0136     4.0136     0.0000
  1 C      6.1999     6.0000    -0.1999     4.1683     4.1683     0.0000
  2 C      6.1200     6.0000    -0.1200     3.9431     3.9431    -0.0000
  3 C      5.9115     6.0000     0.0885     4.4143     4.4143    -0.0000
  4 O      8.2164     8.0000    -0.2164     2.2733     2.2733    -0.0000
  5 O      8.2363     8.0000    -0.2363     2.2617     2.2617     0.0000
  6 C      6.0310     6.0000    -0.0310     4.0256     4.0256     0.0000
  7 C      6.2711     6.0000    -0.2711     3.9976     3.9976     0.0000
  8 H      0.9015     1.0000     0.0985     0.9556     0.9556    -0.0000
  9 H      0.8922     1.0000     0.1078     0.9504     0.9504     0.0000
 10 H      0.8844     1.0000     0.1156     0.9575     0.9575    -0.0000
 11 H      0.9088     1.0000     0.0912     0.9423     0.9423     0.0000
 12 H      0.8915     1.0000     0.1085     0.9613     0.9613    -0.0000
 13 H      0.9083     1.0000     0.0917     0.9750     0.9750    -0.0000
 14 H      0.8872     1.0000     0.1128     0.9524     0.9524     0.0000
 15 H      0.8947     1.0000     0.1053     0.9622     0.9622    -0.0000
 16 H      0.8957     1.0000     0.1043     0.9583     0.9583    -0.0000
 17 H      0.8856     1.0000     0.1144     0.9584     0.9584     0.0000
 18 H      0.8857     1.0000     0.1143     0.9588     0.9588     0.0000
 19 H      0.8892     1.0000     0.1108     0.9553     0.9553     0.0000

  Mayer bond orders larger than 0.100000
B(  0-C ,  1-C ) :   1.1546 B(  0-C ,  8-H ) :   0.9537 B(  0-C ,  9-H ) :   0.9522 
B(  0-C , 10-H ) :   0.9494 B(  1-C ,  2-C ) :   1.1122 B(  1-C , 11-H ) :   0.9282 
B(  1-C , 12-H ) :   0.9193 B(  2-C ,  3-C ) :   1.0256 B(  2-C , 13-H ) :   0.9109 
B(  2-C , 14-H ) :   0.8920 B(  3-C ,  4-O ) :   2.0387 B(  3-C ,  5-O ) :   1.2187 
B(  5-O ,  6-C ) :   0.9118 B(  6-C ,  7-C ) :   1.1501 B(  6-C , 15-H ) :   0.9302 
B(  6-C , 16-H ) :   0.9328 B(  7-C , 17-H ) :   0.9496 B(  7-C , 18-H ) :   0.9504 
B(  7-C , 19-H ) :   0.9447 

-------
TIMINGS
-------

Total SCF time: 0 days 0 hours 0 min 8 sec 

Total time                  ....       8.097 sec
Sum of individual times     ....       7.610 sec  ( 94.0%)

SCF preparation             ....       0.163 sec  (  2.0%)
Fock matrix formation       ....       6.607 sec  ( 81.6%)
  Startup                   ....       0.056 sec  (  0.8% of F)
  Split-RI-J                ....       2.374 sec  ( 35.9% of F)
  XC integration            ....       3.664 sec  ( 55.5% of F)
    Basis function eval.    ....       1.329 sec  ( 36.3% of XC)
    Density eval.           ....       0.448 sec  ( 12.2% of XC)
    XC-Functional eval.     ....       0.348 sec  (  9.5% of XC)
    XC-Potential eval.      ....       0.696 sec  ( 19.0% of XC)
Diagonalization             ....       0.000 sec  (  0.0%)
Density matrix formation    ....       0.179 sec  (  2.2%)
Total Energy calculation    ....       0.038 sec  (  0.5%)
Population analysis         ....       0.075 sec  (  0.9%)
Orbital Transformation      ....       0.045 sec  (  0.5%)
Orbital Orthonormalization  ....       0.000 sec  (  0.0%)
DIIS solution               ....       0.337 sec  (  4.2%)
  MO trafo                  ....       0.000 sec  (  0.0 % of DIIS)
  Orb grad                  ....       0.000 sec  (  0.0 % of DIIS)
  Energy W gradient         ....       0.000 sec  (  0.0 % of DIIS)
  DIIS error                ....       0.005 sec  (  1.4 % of DIIS)
  DIIS work                 ....       0.293 sec  ( 86.9 % of DIIS)
  Form Q                    ....       0.000 sec  (  0.0 % of DIIS)
  Form QpQm                 ....       0.000 sec  (  0.0 % of DIIS)
  Exp/Cayley                ....       0.000 sec  (  0.0 % of DIIS)
  Orb update                ....       0.000 sec  (  0.0 % of DIIS)
  Wake-sleep                ....       0.016 sec  (  4.7 % of DIIS)
SOSCF solution              ....       0.168 sec  (  2.1%)
  MO trafo                  ....       0.057 sec  ( 33.8 % of SOSCF)
  Orb grad                  ....       0.003 sec  (  2.1 % of SOSCF)
  Rot update                ....       0.069 sec  ( 40.8 % of SOSCF)
  Step                      ....       0.039 sec  ( 23.2 % of SOSCF)
Finished LeanSCF after   8.2 sec

Maximum memory used throughout the entire LEANSCF-calculation: 12.7 MB


-------------------------------------------------------------------------------
                          DFT DISPERSION CORRECTION                            
                                                                               
                                DFTD4 V3.4.0                                   
-------------------------------------------------------------------------------
The PBE functional is recognized
Active option DFTDOPT                   ...         5   

-------------------------   ----------------
Dispersion correction           -0.014877593
-------------------------   ----------------

------------------   -----------------
gCP correction             0.089823638
------------------   -----------------

-------------------------   --------------------
FINAL SINGLE POINT ENERGY      -385.458290915816
-------------------------   --------------------


------------------------------------------------------------------------------
                              ORCA PROPERTY CALCULATIONS
------------------------------------------------------------------------------

GBWName                                 ... sp.gbw
Number of atoms                         ...     20
Number of basis functions               ...    136
Max core memory                         ...   1024 MB

Electric properties:
Dipole moment                           ... YES
Quadrupole moment                       ...  NO
Static polarizability (Dipole/Dipole)   ...  NO
Static polarizability (Dipole/Quad.)    ...  NO
Static polarizability (Quad./Quad.)     ...  NO
Static polarizability (Velocity)        ...  NO

Atomic electric properties:
Dipole moment                           ...  NO
Quadrupole moment                       ...  NO
Static polarizability                   ...  NO

Choice of electric origin               ... Center of mass
Position of electric origin             ...    -0.000008    -0.000017     0.000008

General magnetic properties:
Magnetizability                         ...  NO

EPR properties:
g-Tensor (aka g-matrix)                 ...  NO
Zero-Field splitting spin-orbit         ...  NO
Zero-field splitting spin-spin          ...  NO
Hyperfine couplings                     ...  NO (   0 nuclei)
Quadrupole couplings                    ...  NO (   0 nuclei)
Contact density                         ...  NO (   0 nuclei)

NMR properties:
Chemical shifts                         ...  NO (   0 nuclei)
Spin-rotation constants                 ...  NO (   0 nuclei)
Spin-spin couplings                     ...  NO (   0 nuclei,    0 pairs)

Choice of magnetic origin               ... GIAO
Position of magnetic origin             ...     0.000000     0.000000     0.000000

Properties with geometric perturbations:
SCF Hessian                             ...  NO
IR spectrum                             ...  NO
VCD spectrum                            ...  NO
X-ray spectroscopy properties:
SCF XES/XAS/RIXS spectra                ...  NO


-------------
DIPOLE MOMENT
-------------

Method             : SCF
Type of density    : Electron Density
Multiplicity       :   1
Irrep              :   0
Energy             :  -385.5332369603363531 Eh
Relativity type    : 
Basis              : AO
                                X                 Y                 Z
Electronic contribution:      1.382149963       4.841853962      -1.288616437
Nuclear contribution   :     -1.107889550      -5.249176403       1.819461329
                        -----------------------------------------
Total Dipole Moment    :      0.274260414      -0.407322441       0.530844892
                        -----------------------------------------
Magnitude (a.u.)       :      0.723136671
Magnitude (Debye)      :      1.838067343



--------------------
Rotational spectrum 
--------------------
 
Rotational constants in cm-1:             0.128203             0.034644             0.031819 
Rotational constants in MHz :          3843.420782          1038.609094           953.897039 

Dipole components along the rotational axes: 
x,y,z [a.u.] :     0.313054    -0.554681    -0.342423 
x,y,z [Debye]:     0.795720    -1.409886    -0.870369 

 

Dipole moment calculation done in   0.0 sec 

Maximum memory used throughout the entire PROP-calculation: 8.0 MB

--------------------------------
SUGGESTED CITATIONS FOR THIS RUN
--------------------------------

Below you find a list of papers that are relevant to this ORCA run
We neither can nor want to force you to cite these papers, but we appreciate if you do
You receive ORCA, which is the product of decades of hard work by many enthusiastic individuals, for free
The only thing we kindly ask in return is that you cite our papers,
We deeply appreciate it, if you show your appreciation for ORCA by not just citing the generic ORCA reference.

Please note that relegating all ORCA citations to the supporting information does *not* help us.
SI sections are not indexed - citations you put there will not count into any citation statistics
But we need these citations in order to attract the funding resources that allow us to do what we are doing

Therefore, if you are a happy ORCA user, please consider citing a few of the papers listed below in the main body of your paper

In addition to the list printed below, the program has created the file sp.bibtex that contains the list in bibtex format
You can import this file easily into all common literature databanks and citation aid programs


List of essential papers. We consider these as the minimum necessary citations

  1. Neese,F.
     Software update: the ORCA program system, version 5.0
     WIRES Comput. Molec. Sci., 2022 12(1)e1606
     doi.org/10.1002/wcms.1606

List of papers to cite with high priority. The work reported in these papers was absolutely
necessary for this run to complete.
Our perspective: the developers of density functionals and basis sets usually get cited in chemistry papers
Good! But without the algorithms to do something with them, the functionals or basis sets would not do anything.
Hence, in our opinion, the algorithm design and method developments papers are equally worthy of getting cited

  1. Neese,F.
     An improvement of the resolution of the identity approximation for the formation of the Coulomb matrix
     J. Comp. Chem., 2003 24(14)1740-1747
     doi.org/10.1002/jcc.10318
  2. Neese,F.
     The SHARK Integral Generation and Digestion System
     J. Comp. Chem., 2022  1-16
     doi.org/10.1002/jcc.26942
  3. Caldeweyher,E.; Bannwarth,C.; Grimme,S.
     Extension of the D3 dispersion coefficient model
     J. Chem. Phys., 2017 147 034112-XXXX
     doi.org/10.1063/1.4993215
  4. Caldeweyher,E.; Ehlert,S.; Hansen,A.; Neugebauer,H.; Spicher,S.; Bannwarth,C.; Grimme,S.
     A generally applicable atomic-charge dependent London dispersion correction
     J. Chem. Phys., 2019 150 154122-XXXX
     doi.org/10.1063/1.5090222
  5. Caldeweyher,E.; Mewes,J.; Ehlert,S.; Grimme,S.
     Extension and evaluation of the D4 London-dispersion model for periodic systems
     Phys. Chem. Chem. Phys., 2020 22(16)8499-8512
     doi.org/10.1039/D0CP00502A

List of suggested additional citations. These are papers that are important in the 'surrounding' of 
of this run, or papers that preceded the highly important papers. If you like your results we are grateful for a citation.

  1. Neese,F.
     The ORCA program system
     WIRES Comput. Molec. Sci., 2012 2(1)73-78
     doi.org/10.1002/wcms.81
  2. Neese,F.
     Software update: the ORCA program system, version 4.0
     WIRES Comput. Molec. Sci., 2018 8(1)1-6
     doi.org/10.1002/wcms.1327
  3. Neese,F.; Wennmohs,F.; Becker,U.; Riplinger,C.
     The ORCA quantum chemistry program package
     J. Chem. Phys., 2020 152 Art. No. L224108
     doi.org/10.1063/5.0004608

List of optional additional citations

  1. Neese,F.
     Approximate second-order SCF convergence for spin unrestricted wavefunctions
     Chem. Phys. Lett., 2000 325(1-3)93-98
     doi.org/10.1016/s0009-2614(00)00662-x

Timings for individual modules:

Sum of individual times          ...        9.833 sec (=   0.164 min)
Startup calculation              ...        0.756 sec (=   0.013 min)   7.7 %
SCF iterations                   ...        8.960 sec (=   0.149 min)  91.1 %
Property calculations            ...        0.118 sec (=   0.002 min)   1.2 %
                             ****ORCA TERMINATED NORMALLY****
TOTAL RUN TIME: 0 days 0 hours 0 minutes 10 seconds 562 msec
