22
 energy: -292.319572228005 gnorm: 0.000497339610 xtb: 6.7.1 (edcfbbe)
C            1.32505530005047        0.40192779568381       -1.22220896087616
C            1.10371170950878        0.27384801178062        0.29013516227759
C            2.37728585205615       -0.25346847780406        0.94810437468669
N           -0.01008687280531       -0.60006078894225        0.70902485609148
C           -1.38697641376850       -0.27288404022276        0.26464296472748
C           -1.75409485555870       -0.76943598331655       -1.13993913748759
C           -1.70112852543074        1.20925833197516        0.42337903761404
H            0.50160916905097        0.92067364620715       -1.71780416355906
H            2.24108306692081        0.96966265473207       -1.42277701877974
H            1.43397634574293       -0.58964796470185       -1.67832968581458
H            0.90463027289890        1.27417154056376        0.69370980446078
H            3.22986585237931        0.38937552805388        0.70860359552791
H            2.60573301646965       -1.26266698088298        0.58363704266677
H            2.27560503190659       -0.29848273558295        2.03643853256301
H            0.20363506838529       -1.53491162266635        0.36773052534747
H           -2.04827424221185       -0.81309379891854        0.95754778120652
H           -1.46455607743094       -1.81869645753769       -1.26679454311717
H           -2.83880406949545       -0.70471635089066       -1.28541367525819
H           -1.27633749632959       -0.18403051855508       -1.92957984218371
H           -2.76916820617649        1.37372112537760        0.24949414980260
H           -1.15121159855968        1.82236807518988       -0.29818702722138
H           -1.46526975955318        1.56552093264299        1.43151635205428
22
 energy: -292.319573505823 gnorm: 0.000203388133 xtb: 6.7.1 (edcfbbe)
C            1.32494238088625        0.40210966678887       -1.22210760764084
C            1.10366807275477        0.27390686117268        0.29022063661895
C            2.37745808034588       -0.25354805055933        0.94793489807738
N           -0.01026562015485       -0.60015052154188        0.70912404001616
C           -1.38725796298934       -0.27298853706560        0.26470805846155
C           -1.75387312551457       -0.76952785290434       -1.14009493416811
C           -1.70127910660365        1.20929854129874        0.42363598244531
H            0.50081769100327        0.92001747871062       -1.71766105643192
H            2.24026071008058        0.97092245366981       -1.42285697237324
H            1.43497611769091       -0.58954270589276       -1.67823828263130
H            0.90464967708618        1.27435673032874        0.69406073690712
H            3.23040977487606        0.38839993704611        0.70675740565098
H            2.60495140815463       -1.26380870127417        0.58456349014065
H            2.27676956260573       -0.29686044096693        2.03669751721546
H            0.20330753530625       -1.53458217221744        0.36739974746047
H           -2.04857445340186       -0.81359544232321        0.95753141214690
H           -1.46539960756929       -1.81934641907390       -1.26642991512327
H           -2.83845319501629       -0.70352484898449       -1.28614104583663
H           -1.27489943267369       -0.18477764589829       -1.92981372859646
H           -2.76900644531243        1.37397583973513        0.24881252651243
H           -1.15058772928298        1.82246375913595       -0.29734277538849
H           -1.46633174866012        1.56523397009910        1.43216998966347
22
 energy: -292.319573505823 gnorm: 0.000203388133 xtb: 6.7.1 (edcfbbe)
C            1.32494238088625        0.40210966678887       -1.22210760764084
C            1.10366807275477        0.27390686117268        0.29022063661895
C            2.37745808034588       -0.25354805055933        0.94793489807738
N           -0.01026562015485       -0.60015052154188        0.70912404001616
C           -1.38725796298934       -0.27298853706560        0.26470805846155
C           -1.75387312551457       -0.76952785290434       -1.14009493416811
C           -1.70127910660365        1.20929854129874        0.42363598244531
H            0.50081769100327        0.92001747871062       -1.71766105643192
H            2.24026071008058        0.97092245366981       -1.42285697237324
H            1.43497611769091       -0.58954270589276       -1.67823828263130
H            0.90464967708618        1.27435673032874        0.69406073690712
H            3.23040977487606        0.38839993704611        0.70675740565098
H            2.60495140815463       -1.26380870127417        0.58456349014065
H            2.27676956260573       -0.29686044096693        2.03669751721546
H            0.20330753530625       -1.53458217221744        0.36739974746047
H           -2.04857445340186       -0.81359544232321        0.95753141214690
H           -1.46539960756929       -1.81934641907390       -1.26642991512327
H           -2.83845319501629       -0.70352484898449       -1.28614104583663
H           -1.27489943267369       -0.18477764589829       -1.92981372859646
H           -2.76900644531243        1.37397583973513        0.24881252651243
H           -1.15058772928298        1.82246375913595       -0.29734277538849
H           -1.46633174866012        1.56523397009910        1.43216998966347
