      -----------------------------------------------------------      
     |                   =====================                   |     
     |                           x T B                           |     
     |                   =====================                   |     
     |                         S. Grimme                         |     
     |          Mulliken Center for Theoretical Chemistry        |     
     |                    University of Bonn                     |     
      -----------------------------------------------------------      

   * xtb version 6.7.1 (edcfbbe) compiled by 'albert@albert-system' on 2024-07-22

   xtb is free software: you can redistribute it and/or modify it under
   the terms of the GNU Lesser General Public License as published by
   the Free Software Foundation, either version 3 of the License, or
   (at your option) any later version.
   
   xtb is distributed in the hope that it will be useful,
   but WITHOUT ANY WARRANTY; without even the implied warranty of
   MERCHANTABILITY or FITNESS FOR A PARTICULAR PURPOSE.  See the
   GNU Lesser General Public License for more details.
   
   Cite this work as:
   * C. Bannwarth, E. Caldeweyher, S. Ehlert, A. Hansen, P. Pracht,
     J. Seibert, S. Spicher, S. Grimme, WIREs Comput. Mol. Sci., 2020, 11,
     e01493. DOI: 10.1002/wcms.1493
   
   for GFN2-xTB:
   * C. Bannwarth, S. Ehlert and S. Grimme., J. Chem. Theory Comput., 2019,
     15, 1652-1671. DOI: 10.1021/acs.jctc.8b01176
   for GFN1-xTB:
   * S. Grimme, C. Bannwarth, P. Shushkov, J. Chem. Theory Comput., 2017,
     13, 1989-2009. DOI: 10.1021/acs.jctc.7b00118
   for GFN0-xTB:
   * P. Pracht, E. Caldeweyher, S. Ehlert, S. Grimme, ChemRxiv, 2019, preprint.
     DOI: 10.26434/chemrxiv.8326202.v1
   for GFN-FF:
   * S. Spicher and S. Grimme, Angew. Chem. Int. Ed., 2020, 59, 15665-15673.
     DOI: 10.1002/anie.202004239
   
   for ALPB and GBSA implicit solvation:
   * S. Ehlert, M. Stahn, S. Spicher, S. Grimme, J. Chem. Theory Comput.,
     2021, 17, 4250-4261. DOI: 10.1021/acs.jctc.1c00471
   
   for ddCOSMO and CPCM-X implicit solvation:
   * M. Stahn, S. Ehlert, S. Grimme, J. Phys. Chem. A,
     2023, XX, XXXX-XXXX. DOI: 10.1021/acs.jpca.3c04382
   
   for DFT-D4:
   * E. Caldeweyher, C. Bannwarth and S. Grimme, J. Chem. Phys., 2017,
     147, 034112. DOI: 10.1063/1.4993215
   * E. Caldeweyher, S. Ehlert, A. Hansen, H. Neugebauer, S. Spicher,
     C. Bannwarth and S. Grimme, J. Chem. Phys., 2019, 150, 154122.
     DOI: 10.1063/1.5090222
   * E. Caldeweyher, J.-M. Mewes, S. Ehlert and S. Grimme, Phys. Chem. Chem. Phys.
     2020, 22, 8499-8512. DOI: 10.1039/D0CP00502A
   
   for sTDA-xTB:
   * S. Grimme and C. Bannwarth, J. Chem. Phys., 2016, 145, 054103.
     DOI: 10.1063/1.4959605
   
   in the mass-spec context:
   * V. Asgeirsson, C. Bauer and S. Grimme, Chem. Sci., 2017, 8, 4879.
     DOI: 10.1039/c7sc00601b
   * J. Koopman and S. Grimme, ACS Omega 2019, 4, 12, 15120-15133.
     DOI: 10.1021/acsomega.9b02011
   
   for metadynamics refer to:
   * S. Grimme, J. Chem. Theory Comput., 2019, 155, 2847-2862
     DOI: 10.1021/acs.jctc.9b00143
   
   for SPH calculations refer to:
   * S. Spicher and S. Grimme, J. Chem. Theory Comput., 2021, 17, 1701-1714
     DOI: 10.1021/acs.jctc.0c01306
   
   for ONIOM refer to:
   * C. Plett, A. Katbashev, S. Ehlert, S. Grimme, M. Bursch,
     Phys. Chem. Chem. Phys., 2023, 25, 17860-17868. DOI: 10.1039/D3CP02178E
   
   for DIPRO refer to:
   * J. Kohn, N. Gildemeister, S. Grimme, D. Fazzi, A. Hansen,
     J. Chem. Phys., 2023, just accepted.
   
   for PTB refer to:
   * S. Grimme, M. Mueller, A. Hansen, J. Chem. Phys., 2023, 158, 124111.
     DOI: 10.1063/5.0137838
   
   with help from (in alphabetical order)
   P. Atkinson, C. Bannwarth, F. Bohle, G. Brandenburg, E. Caldeweyher
   M. Checinski, S. Dohm, S. Ehlert, S. Ehrlich, I. Gerasimov, C. Hölzer
   A. Katbashev, J. Kohn, J. Koopman, C. Lavigne, S. Lehtola, F. März, M. Müller,
   F. Musil, H. Neugebauer, J. Pisarek, C. Plett, P. Pracht, F. Pultar,
   J. Seibert, P. Shushkov, S. Spicher, M. Stahn, M. Steiner, T. Strunk,
   J. Stückrath, T. Rose, and J. Unsleber
   
 * started run on 2025/04/11 at 17:03:08.168     
   ID    Z sym.   atoms
    1    6 C      1-4, 7, 8
    2    8 O      5, 6
    3    1 H      9-20

           -------------------------------------------------
          |                Calculation Setup                |
           -------------------------------------------------

          program call               : /srv/scratch/z5358697/.xtb/bin/xtb xtb_opt.coord --opt normal --orca -I xtb_opt-xcontrol-inp
          hostname                   : k061
          coordinate file            : xtb_opt.coord
          omp threads                :                    16

           -------------------------------------------------
          |                   Orca driver                   |
           -------------------------------------------------
orca executable           : /apps/z_install_tree/linux-rocky8-ivybridge/gcc-12.2.0/orca-6.0.0-srtngmq3qlimg2qxbl6avaaiffipurdx/bin/orca
orca input file           : xtb_opt.inp
orca input line           : 
orca parallel             : true
orca number of threads    : 16
                         * ORCA takes the control...
  ------------------------------------------------------------------------

                                 *****************
                                 * O   R   C   A *
                                 *****************

                                            #,                                       
                                            ###                                      
                                            ####                                     
                                            #####                                    
                                            ######                                   
                                           ########,                                 
                                     ,,################,,,,,                         
                               ,,#################################,,                 
                          ,,##########################################,,             
                       ,#########################################, ''#####,          
                    ,#############################################,,   '####,        
                  ,##################################################,,,,####,       
                ,###########''''           ''''###############################       
              ,#####''   ,,,,##########,,,,          '''####'''          '####       
            ,##' ,,,,###########################,,,                        '##       
           ' ,,###''''                  '''############,,,                           
         ,,##''                                '''############,,,,        ,,,,,,###''
      ,#''                                            '''#######################'''  
     '                                                          ''''####''''         
             ,#######,   #######,   ,#######,      ##                                
            ,#'     '#,  ##    ##  ,#'     '#,    #''#        ,####,   ,####,        
            ##       ##  ##   ,#'  ##            #'  '#       #'       #'  '#        
            ##       ##  #######   ##           ,######,      #####,   #    #        
            '#,     ,#'  ##    ##  '#,     ,#' ,#      #,     #,   #   #,  ,#        
             '#######'   ##     ##  '#######'  #'      '#     '####' # '####'        



                #########################################################
                #                        -***-                          #
                #          Department of theory and spectroscopy        #
                #                                                       #
                #                      Frank Neese                      #
                #                                                       #
                #     Directorship, Architecture, Infrastructure        #
                #                    SHARK, DRIVERS                     #
                #        Core code/Algorithms in most modules           #
                #                                                       #
                #        Max Planck Institute fuer Kohlenforschung      #
                #                Kaiser Wilhelm Platz 1                 #
                #                 D-45470 Muelheim/Ruhr                 #
                #                      Germany                          #
                #                                                       #
                #                  All rights reserved                  #
                #                        -***-                          #
                #########################################################


                         Program Version 6.0.0  -   RELEASE  -


 With contributions from (in alphabetic order):
   Daniel Aravena         : Magnetic Suceptibility
   Michael Atanasov       : Ab Initio Ligand Field Theory (pilot matlab implementation)
   Alexander A. Auer      : GIAO ZORA, VPT2 properties, NMR spectrum
   Ute Becker             : All parallelization in ORCA, NUMFREQ, NUMCALC
   Giovanni Bistoni       : ED, misc. LED, open-shell LED, HFLD
   Martin Brehm           : Molecular dynamics
   Dmytro Bykov           : pre 5.0 version of the SCF Hessian
   Marcos Casanova-Páez   : Triplet and SCS-CIS(D). UHF-(DLPNO)-IP/EA/STEOM-CCSD. UHF-CVS-IP/STEOM-CCSD
   Vijay G. Chilkuri      : MRCI spin determinant printing, contributions to CSF-ICE
   Pauline Colinet        : FMM embedding
   Dipayan Datta          : RHF DLPNO-CCSD density
   Achintya Kumar Dutta   : EOM-CC, STEOM-CC
   Nicolas Foglia         : Exact transition moments, OPA infrastructure, MCD improvements
   Dmitry Ganyushin       : Spin-Orbit,Spin-Spin,Magnetic field MRCI
   Miquel Garcia          : C-PCM and meta-GGA Hessian, CCSD/C-PCM, Gaussian charge scheme
   Tiago L. C. Gouveia    : GS-ROHF, GS-ROCIS
   Yang Guo               : DLPNO-NEVPT2, F12-NEVPT2, CIM, IAO-localization
   Andreas Hansen         : Spin unrestricted coupled pair/coupled cluster methods
   Ingolf Harden          : AUTO-CI MPn and infrastructure 
   Benjamin Helmich-Paris : MC-RPA, TRAH-(SCF,CASSCF), AVAS, COSX integrals, SCF dyn. polar.
   Lee Huntington         : MR-EOM, pCC
   Robert Izsak           : Overlap fitted RIJCOSX, COSX-SCS-MP3, EOM
   Riya Kayal             : Wick's Theorem for AUTO-CI, AUTO-CI UHF-CCSDT
   Emily Kempfer          : AUTO-CI, RHF CISDT and CCSDT
   Christian Kollmar      : KDIIS, OOCD, Brueckner-CCSD(T), CCSD density, CASPT2, CASPT2-K, improved NEVPT2
   Axel Koslowski         : Symmetry handling
   Simone Kossmann        : Meta GGA functionals, TD-DFT gradient, OOMP2, (MP2 Hessian; deprecated post 5.0)
   Lucas Lang             : DCDCAS
   Marvin Lechner         : AUTO-CI (C++ implementation), FIC-MRCC
   Spencer Leger          : CASSCF response
   Dagmar Lenk            : GEPOL surface, SMD, ORCA-2-JSON
   Dimitrios Liakos       : Extrapolation schemes; Compound Job, initial MDCI parallelization
   Dimitrios Manganas     : Further ROCIS development; embedding schemes. LFT, Crystal Embedding
   Dimitrios Pantazis     : SARC Basis sets
   Anastasios Papadopoulos: AUTO-CI, single reference methods and gradients
   Taras Petrenko         : pre 6.0 DFT Hessian and TD-DFT gradient, (ASA, deprecated), ECA, 1-Electron XAS/XES, NRVS
   Peter Pinski           : DLPNO-MP2, DLPNO-MP2 Gradient
   Christoph Reimann      : Effective Core Potentials
   Marius Retegan         : Local ZFS, SOC
   Christoph Riplinger    : Optimizer, TS searches, QM/MM, DLPNO-CCSD(T), (RO)-DLPNO pert. Triples
   Michael Roemelt        : Original ROCIS implementation
   Masaaki Saitow         : Open-shell DLPNO-CCSD energy and density
   Barbara Sandhoefer     : DKH picture change effects
   Kantharuban Sivalingam : CASSCF convergence/infrastructure, NEVPT2 and variants, FIC-MRCI
   Bernardo de Souza      : ESD, SOC TD-DFT
   Georgi Stoychev        : AutoAux, RI-MP2 NMR, DLPNO-MP2 response, X2C
   Van Anh Tran           : RI-MP2 g-tensors
   Willem Van den Heuvel  : Paramagnetic NMR
   Zikuan Wang            : NOTCH, Electric field optimization 
   Frank Wennmohs         : Technical directorship and infrastructure
   Hang Xu                : AUTO-CI-Response properties 


 We gratefully acknowledge several colleagues who have allowed us to
 interface, adapt or use parts of their codes:
   Stefan Grimme, W. Hujo, H. Kruse, P. Pracht,  : VdW corrections, initial TS optimization,
                  C. Bannwarth, S. Ehlert,         DFT functionals, gCP, sTDA/sTD-DF
                  L. Wittmann, M. Mueller
   Ed Valeev, F. Pavosevic, A. Kumar             : LibInt (2-el integral package), F12 methods
   Garnet Chan, S. Sharma, J. Yang, R. Olivares  : DMRG
   Ulf Ekstrom                                   : XCFun DFT Library
   Mihaly Kallay                                 : mrcc  (arbitrary order and MRCC methods)
   Frank Weinhold                                : gennbo (NPA and NBO analysis)
   Simon Mueller                                 : openCOSMO-RS
   Christopher J. Cramer and Donald G. Truhlar   : smd solvation model
   Lars Goerigk                                  : TD-DFT with DH, B97 family of functionals
   V. Asgeirsson, H. Jonsson                     : NEB implementation
   FAccTs GmbH                                   : IRC, NEB, NEB-TS, DLPNO-Multilevel, CI-OPT
                                                   MM, QMMM, 2- and 3-layer-ONIOM, Crystal-QMMM,
                                                   LR-CPCM, SF, NACMEs, symmetry and pop. for TD-DFT,
                                                   nearIR, NL-DFT gradient (VV10), updates on ESD,
                                                   ML-optimized integration grids, MBIS, APM,
                                                   GOAT, DOCKER, SOLVATOR, interface openCOSMO-RS
   S Lehtola, MJT Oliveira, MAL Marques          : LibXC Library
   Liviu Ungur et al                             : ANISO software


 Your calculation uses the libint2 library for the computation of 2-el integrals
 For citations please refer to: http://libint.valeyev.net

 Your ORCA version has been built with support for libXC version: 6.2.2
 For citations please refer to: https://libxc.gitlab.io

 This ORCA versions uses:
   CBLAS   interface :  Fast vector & matrix operations
   LAPACKE interface :  Fast linear algebra routines
   SCALAPACK package :  Parallel linear algebra routines
   Shared memory     :  Shared parallel matrices
   BLAS/LAPACK       :  OpenBLAS 0.3.27  USE64BITINT DYNAMIC_ARCH NO_AFFINITY SkylakeX SINGLE_THREADED
        Core in use  :  SkylakeX
   Copyright (c) 2011-2014, The OpenBLAS Project




***************************************
The coordinates will be read from file: xtb_opt.xyz
***************************************


Your calculation utilizes the geometrical counterpoise correction gCP
Please cite in your paper:
H.Kruse, S. Grimme J.Chem.Phys., 136, (2012), 154101 
   

Your calculation utilizes the atom-pairwise dispersion correction
based on EEQ partial charges (D4)


Your calculation utilizes the SMD solvation module
Please cite in your paper:
A.V. Marenich, C.J. Cramer, D.G. Truhlar J. Phys. Chem. B, 113, (2009), 6378 

================================================================================

----- Orbital basis set information -----
Your calculation utilizes the basis: def2-mTZVPP
   Stefan Grimme, Andreas Hansen, Sebastian Ehlert, and Jan-Michael Mewes 
   J. Chem. Phys. 154, 064103 (2021). DOI: 10.1063/5.0040021

----- AuxJ basis set information -----
Your calculation utilizes the auxiliary basis: def2/J
   F. Weigend, Phys. Chem. Chem. Phys. 8, 1057 (2006).

================================================================================
                                        WARNINGS
                       Please study these warnings very carefully!
================================================================================

WARNING: Old DensityContainer found on disk!
         Will remove this file - 
         If you want to keep old densities, please start your calculation with a different basename. 

Using LibXC functional ID 497 : Re-regularized SCAN exchange by Furness et al
[ 1]  J. W. Furness, A. D. Kaplan, J. Ning, J. P. Perdew, and J. Sun.,  J. Phys. Chem. Lett. 11, 8208-8215 (2020)
[ 2]  J. W. Furness, A. D. Kaplan, J. Ning, J. P. Perdew, and J. Sun.,  J. Phys. Chem. Lett. 11, 9248-9248 (2020)
Using LibXC functional ID 498 : Re-regularized SCAN correlation by Furness et al
[ 1]  J. W. Furness, A. D. Kaplan, J. Ning, J. P. Perdew, and J. Sun.,  J. Phys. Chem. Lett. 11, 8208-8215 (2020)
[ 2]  J. W. Furness, A. D. Kaplan, J. Ning, J. P. Perdew, and J. Sun.,  J. Phys. Chem. Lett. 11, 9248-9248 (2020)
Using LibXC functional ID 497 : Re-regularized SCAN exchange by Furness et al
[ 1]  J. W. Furness, A. D. Kaplan, J. Ning, J. P. Perdew, and J. Sun.,  J. Phys. Chem. Lett. 11, 8208-8215 (2020)
[ 2]  J. W. Furness, A. D. Kaplan, J. Ning, J. P. Perdew, and J. Sun.,  J. Phys. Chem. Lett. 11, 9248-9248 (2020)
Using LibXC functional ID 498 : Re-regularized SCAN correlation by Furness et al
[ 1]  J. W. Furness, A. D. Kaplan, J. Ning, J. P. Perdew, and J. Sun.,  J. Phys. Chem. Lett. 11, 8208-8215 (2020)
[ 2]  J. W. Furness, A. D. Kaplan, J. Ning, J. P. Perdew, and J. Sun.,  J. Phys. Chem. Lett. 11, 9248-9248 (2020)

================================================================================
                                       INPUT FILE
================================================================================
NAME = xtb_opt.inp
|  1> ! r2scan-3c def2/J RI DEFGRID2 scfconv7 ENGRAD tightSCF miniprint
|  2> %cpcm
|  3>     smd true
|  4>     smdsolvent "water"
|  5> end
|  6> * xyzfile 0 1 xtb_opt.xyz
|  7> 
|  8>                          ****END OF INPUT****
================================================================================

                     *******************************
                     * Energy+Gradient Calculation *
                     *******************************

---------------------------------
CARTESIAN COORDINATES (ANGSTROEM)
---------------------------------
  C     -3.653816   -0.624841    0.219658
  C     -2.387269    0.029910   -0.324183
  C     -1.158983   -0.401625    0.471400
  C      0.121712    0.227188   -0.000515
  O      0.257084    0.867866   -1.030498
  O      1.125630   -0.011879    0.864664
  C      2.449453    0.496528    0.515952
  C      3.164648   -0.458450   -0.416022
  H     -4.536548   -0.302315   -0.341845
  H     -3.590250   -1.717792    0.151938
  H     -3.808509   -0.362999    1.273466
  H     -2.481827    1.122709   -0.279240
  H     -2.251345   -0.233864   -1.380350
  H     -1.021589   -1.490955    0.412319
  H     -1.276748   -0.169590    1.536948
  H      2.342628    1.494691    0.079272
  H      2.962894    0.578293    1.477460
  H      2.644887   -0.538275   -1.375163
  H      4.176504   -0.087025   -0.601403
  H      3.240825   -1.453329    0.033051

----------------------------
CARTESIAN COORDINATES (A.U.)
----------------------------
  NO LB      ZA    FRAG     MASS         X           Y           Z
   0 C     6.0000    0    12.011   -6.904711   -1.180778    0.415093
   1 C     6.0000    0    12.011   -4.511285    0.056522   -0.612616
   2 C     6.0000    0    12.011   -2.190161   -0.758962    0.890817
   3 C     6.0000    0    12.011    0.230002    0.429323   -0.000974
   4 O     8.0000    0    15.999    0.485819    1.640029   -1.947359
   5 O     8.0000    0    15.999    2.127132   -0.022448    1.633979
   6 C     6.0000    0    12.011    4.628796    0.938302    0.975009
   7 C     6.0000    0    12.011    5.980318   -0.866345   -0.786168
   8 H     1.0000    0     1.008   -8.572834   -0.571293   -0.645994
   9 H     1.0000    0     1.008   -6.784589   -3.246156    0.287120
  10 H     1.0000    0     1.008   -7.197039   -0.685969    2.406502
  11 H     1.0000    0     1.008   -4.689973    2.121613   -0.527687
  12 H     1.0000    0     1.008   -4.254425   -0.441938   -2.608484
  13 H     1.0000    0     1.008   -1.930523   -2.817496    0.779170
  14 H     1.0000    0     1.008   -2.412704   -0.320478    2.904411
  15 H     1.0000    0     1.008    4.426925    2.824557    0.149803
  16 H     1.0000    0     1.008    5.599058    1.092815    2.791994
  17 H     1.0000    0     1.008    4.998113   -1.017192   -2.598681
  18 H     1.0000    0     1.008    7.892449   -0.164454   -1.136487
  19 H     1.0000    0     1.008    6.124271   -2.746395    0.062457

------------------------------------------------------------------------------
                   ___                                                        
                  /   \      - P O W E R E D   B Y -                         
                 /     \                                                     
                 |  |  |   _    _      __       _____    __    __             
                 |  |  |  | |  | |    /  \     |  _  \  |  |  /  |          
                  \  \/   | |  | |   /    \    | | | |  |  | /  /          
                 / \  \   | |__| |  /  /\  \   | |_| |  |  |/  /          
                |  |  |   |  __  | /  /__\  \  |    /   |      \           
                |  |  |   | |  | | |   __   |  |    \   |  |\   \          
                \     /   | |  | | |  |  |  |  | |\  \  |  | \   \       
                 \___/    |_|  |_| |__|  |__|  |_| \__\ |__|  \__/        
                                                                              
                      - O R C A' S   B I G   F R I E N D -                    
                                      &                                       
                       - I N T E G R A L  F E E D E R -                       
                                                                              
 v1 FN, 2020, v2 2021, v3 2022-2024                                           
------------------------------------------------------------------------------


----------------------
SHARK INTEGRAL PACKAGE
----------------------

Number of atoms                             ...     20
Number of basis functions                   ...    222
Number of shells                            ...    110
Maximum angular momentum                    ...      2
Integral batch strategy                     ... SHARK/LIBINT Hybrid
RI-J (if used) integral strategy            ... SPLIT-RIJ (Revised 2003 algorithm where possible)
Printlevel                                  ...      1
Contraction scheme used                     ... SEGMENTED contraction
Prescreening option                         ... SCHWARTZ
   Thresh                                   ... 3.000e-11
   Tcut                                     ... 1.000e-12
   Tpresel                                  ... 1.000e-12 
Coulomb Range Separation                    ... NOT USED
Exchange Range Separation                   ... NOT USED
Multipole approximations                    ... NOT USED
Finite Nucleus Model                        ... NOT USED
CABS basis                                  ... NOT available
Auxiliary Coulomb fitting basis             ... AVAILABLE
   # of basis functions in Aux-J            ...    524
   # of shells in Aux-J                     ...    180
   Maximum angular momentum in Aux-J        ...      4
Auxiliary J/K fitting basis                 ... NOT available
Auxiliary Correlation fitting basis         ... NOT available
Auxiliary 'external' fitting basis          ... NOT available

Checking pre-screening integrals            ... done (  0.0 sec) Dimension = 110
Check shell pair data                       ... done (  0.0 sec)
Shell pair information
Shell pair cut-off parameter TPreSel        ...   1.0e-12
Total number of shell pairs                 ...      6105
Shell pairs after pre-screening             ...      5227
Total number of primitive shell pairs       ...     21533
Primitive shell pairs kept                  ...     13115
          la=0 lb=0:   1750 shell pairs
          la=1 lb=0:   1975 shell pairs
          la=1 lb=1:    576 shell pairs
          la=2 lb=0:    559 shell pairs
          la=2 lb=1:    317 shell pairs
          la=2 lb=2:     50 shell pairs

Calculating one electron integrals          ... done (  0.0 sec)
Calculating RI/J V-Matrix + Cholesky decomp.... done (  0.1 sec)
Calculating Nuclear repulsion               ... done (  0.0 sec) ENN=    385.658933045086 Eh

Diagonalization of the overlap matrix:
Smallest eigenvalue                        ... 1.046e-04
Time for diagonalization                   ...    0.011 sec
Threshold for overlap eigenvalues          ... 1.000e-07
Number of eigenvalues below threshold      ... 0
Time for construction of square roots      ...    0.019 sec
Total time needed                          ...    0.062 sec

-------------------
DFT GRID GENERATION
-------------------

General Integration Accuracy     IntAcc      ... 4.388
Radial Grid Type                 RadialGrid  ... OptM3 with GC (2021)
Angular Grid (max. ang.)         AngularGrid ... 4 (Lebedev-302)
Angular grid pruning method      GridPruning ... 4 (adaptive)
Weight generation scheme         WeightScheme... mBecke (2022)
Basis function cutoff            BFCut       ... 1.0000e-11
Integration weight cutoff        WCut        ... 1.0000e-14
Partially contracted basis set               ... off
Rotationally invariant grid construction     ... off
Angular grids for H and He will be reduced by one unit
Diffuse basis detected: some atoms will have their outermost
                        angular grid increased by 1.

Total number of grid points                  ...    87470
Total number of batches                      ...     1376
Average number of points per batch           ...       63
Average number of grid points per atom       ...     4374
Initializing property integral containers    ... done (  0.0 sec)

SHARK setup successfully completed in   1.5 seconds

Maximum memory used throughout the entire STARTUP-calculation: 39.2 MB
Occupation numbers will be reassigned to an Aufbau configuration
             **** ENERGY FILE WAS UPDATED (xtb_opt.en.tmp) ****
Finished Guess after   0.4 sec
Maximum memory used throughout the entire GUESS-calculation: 14.9 MB
--------------------
CPCM SOLVATION MODEL
--------------------
CPCM parameters:
  Epsilon                                         ...      78.3550
  Refrac                                          ...       1.3328
  Rsolv                                           ...       1.3000
  Surface type                                    ... GAUSSIAN VDW
  Discretization scheme                           ... Constant charge density
    Threshold for H atoms                         ...       5.0000 (charges/Ang^2)
    Threshold for non-H atoms                     ...       5.0000 (charges/Ang^2)
  Epsilon function type                           ...         CPCM
Solvent:                                          ... WATER
SMD-CDS solvent descriptors:
  Soln                                            ...       1.3328
  Soln25                                          ...       1.3323
  Sola                                            ...       0.0000
  Solb                                            ...       0.0000
  Solg                                            ...       0.0000
  Solc                                            ...       0.0000
  Solh                                            ...       0.0000
Radii:
  Scheme                                          ... Element-dependent radii
  Radius for C  used is    3.4960 Bohr (=   1.8500 Ang.)
  Radius for O  used is    2.8724 Bohr (=   1.5200 Ang.)
  Radius for H  used is    2.2677 Bohr (=   1.2000 Ang.)
Calculating surface                               ...        done! (  0.0s)
Cavity surface points                             ...         1506
Cavity Volume                                     ...     885.0961
Cavity Surface-area                               ...     594.8998
Calculating surface distance matrix               ...        done! (  0.0s)
Performing Cholesky decomposition & store         ...        done! (  0.1s)
Overall time for CPCM initialization              ...                 0.1s

----------------------------------------D-I-I-S--------------------------------------------
Iteration    Energy (Eh)           Delta-E    RMSDP     MaxDP     DIISErr   Damp  Time(sec)
-------------------------------------------------------------------------------------------
               ***  Starting incremental Fock matrix formation  ***
                              *** Initializing SOSCF ***
---------------------------------------S-O-S-C-F--------------------------------------
Iteration    Energy (Eh)           Delta-E    RMSDP     MaxDP     MaxGrad    Time(sec)
--------------------------------------------------------------------------------------
    1    -386.2576658312957534     0.00e+00  1.76e-07  4.92e-06  1.05e-06     4.0
               *** Restarting incremental Fock matrix formation ***
    2    -386.2576658312557356     4.00e-11  2.88e-07  9.05e-06  2.30e-06     4.3
                  *** Gradient check signals convergence ***

               *****************************************************
               *                     SUCCESS                       *
               *           SCF CONVERGED AFTER   2 CYCLES          *
               *****************************************************


SMD CDS free energy correction energy :                 4.96749     Kcal/mol
Total Energy after SMD CDS correction =              -386.249749629 Eh
             **** ENERGY FILE WAS UPDATED (xtb_opt.en.tmp) ****

----------------
TOTAL SCF ENERGY
----------------

Total Energy       :       -386.24974962890133 Eh          -10510.39003 eV

Components:
Nuclear Repulsion  :        385.65893304508631 Eh           10494.31309 eV
Electronic Energy  :       -771.90040933233206 Eh          -21004.47798 eV
One Electron Energy:      -1288.81881507556091 Eh          -35070.54291 eV
Two Electron Energy:        516.91840574322885 Eh           14066.06493 eV
CPCM Dielectric    :         -0.01618954401003 Eh              -0.44054 eV
SMD CDS (Gcds)     :          0.00791620235443 Eh               0.21541 eV

Virial components:
Potential Energy   :       -770.68151336646315 Eh          -20971.31014 eV
Kinetic Energy     :        384.43176373756188 Eh           10460.92011 eV
Virial Ratio       :          2.00472902101966

DFT components:
N(Alpha)           :       32.000028120384 electrons
N(Beta)            :       32.000028120384 electrons
N(Total)           :       64.000056240769 electrons
E(X)               :      -52.033357081795 Eh       
E(C)               :       -2.035150872155 Eh       
E(XC)              :      -54.068507953950 Eh       

CPCM Solvation Model Properties:
Surface-charge          :         -0.04827337055214
Corrected charge        :         -0.00000000000000
Outlying charge corr.   :          0.00017320205980 Eh               0.00471 eV
Free-energy (cav+disp)  :          0.00791620235443 Eh               0.21541 eV

---------------
SCF CONVERGENCE
---------------

  Last Energy change         ...   -4.0018e-11  Tolerance :   1.0000e-07
  Last MAX-Density change    ...    9.0459e-06  Tolerance :   1.0000e-07
  Last RMS-Density change    ...    2.8823e-07  Tolerance :   5.0000e-09
  Last DIIS Error            ...    7.4132e-06  Tolerance :   1.0000e-07
  Last Orbital Gradient      ...    2.3028e-06  Tolerance :   1.0000e-04
  Last Orbital Rotation      ...    7.4374e-06  Tolerance :   1.0000e-04


----------------
ORBITAL ENERGIES
----------------

  NO   OCC          E(Eh)            E(eV) 
   0   2.0000     -18.999356      -516.9988 
   1   2.0000     -18.945928      -515.5449 
   2   2.0000     -10.164778      -276.5977 
   3   2.0000     -10.084606      -274.4161 
   4   2.0000     -10.038033      -273.1488 
   5   2.0000     -10.027136      -272.8522 
   6   2.0000     -10.020299      -272.6662 
   7   2.0000     -10.014289      -272.5026 
   8   2.0000      -1.068074       -29.0638 
   9   2.0000      -0.984080       -26.7782 
  10   2.0000      -0.765584       -20.8326 
  11   2.0000      -0.731545       -19.9064 
  12   2.0000      -0.673692       -18.3321 
  13   2.0000      -0.612599       -16.6697 
  14   2.0000      -0.556788       -15.1510 
  15   2.0000      -0.515551       -14.0289 
  16   2.0000      -0.472345       -12.8532 
  17   2.0000      -0.458227       -12.4690 
  18   2.0000      -0.445227       -12.1152 
  19   2.0000      -0.414902       -11.2901 
  20   2.0000      -0.409143       -11.1334 
  21   2.0000      -0.377546       -10.2736 
  22   2.0000      -0.373669       -10.1680 
  23   2.0000      -0.357272        -9.7219 
  24   2.0000      -0.345524        -9.4022 
  25   2.0000      -0.333923        -9.0865 
  26   2.0000      -0.318363        -8.6631 
  27   2.0000      -0.307861        -8.3773 
  28   2.0000      -0.303575        -8.2607 
  29   2.0000      -0.296931        -8.0799 
  30   2.0000      -0.276792        -7.5319 
  31   2.0000      -0.252557        -6.8724 
  32   0.0000      -0.024294        -0.6611 
  33   0.0000       0.079459         2.1622 
  34   0.0000       0.087815         2.3896 
  35   0.0000       0.112574         3.0633 
  36   0.0000       0.131521         3.5789 
  37   0.0000       0.133852         3.6423 
  38   0.0000       0.140358         3.8193 
  39   0.0000       0.147421         4.0115 
  40   0.0000       0.156577         4.2607 
  41   0.0000       0.159690         4.3454 
  42   0.0000       0.173388         4.7181 
*Only the first 10 virtual orbitals were printed.
Total SCF time: 0 days 0 hours 0 min 9 sec 
Finished LeanSCF after   9.3 sec

Maximum memory used throughout the entire LEANSCF-calculation: 30.5 MB


-------------------------------------------------------------------------------
                          DFT DISPERSION CORRECTION                            
                                                                               
                                DFTD4 V3.4.0                                   
-------------------------------------------------------------------------------
-------------------------   ----------------
Dispersion correction           -0.004886712
-------------------------   ----------------

------------------   -----------------
gCP correction             0.011477544
------------------   -----------------

-------------------------   --------------------
FINAL SINGLE POINT ENERGY      -386.243158796899
-------------------------   --------------------

------------------------------------------------------------------------------
                         ORCA SCF GRADIENT CALCULATION
------------------------------------------------------------------------------

Nuc. rep. gradient        (SHARK) ... done (  0.0 sec)
HCore & Overlap gradient  (SHARK) ... done (  0.3 sec)
Split-RIJ-J gradient      (SHARK) ... done (  1.8 sec)
XC gradient                       ... done (  7.1 sec)
CPCM gradient                     ... done (  1.0 sec)
SMD gradient                      ... done (  0.0 sec)
Dispersion correction             ... done (  0.1 sec)

-------------------
DISPERSION GRADIENT
-------------------

   1   C   :   -0.000070811   -0.000017504    0.000006391
   2   C   :   -0.000058514    0.000003661   -0.000015414
   3   C   :   -0.000047767   -0.000017933    0.000021381
   4   C   :    0.000013382    0.000019955    0.000000600
   5   O   :    0.000004917    0.000047000   -0.000050202
   6   O   :    0.000042984    0.000006538    0.000032814
   7   C   :    0.000062876    0.000019387    0.000012861
   8   C   :    0.000075969   -0.000016936   -0.000015523
   9   H   :   -0.000027427   -0.000002400   -0.000002821
  10   H   :   -0.000027298   -0.000012872    0.000000176
  11   H   :   -0.000028978   -0.000003609    0.000007758
  12   H   :   -0.000023092    0.000010824   -0.000005711
  13   H   :   -0.000021492   -0.000000882   -0.000015504
  14   H   :   -0.000014325   -0.000021402    0.000006669
  15   H   :   -0.000012751   -0.000002133    0.000021551
  16   H   :    0.000019982    0.000011113    0.000002676
  17   H   :    0.000023449    0.000004999    0.000014750
  18   H   :    0.000030317   -0.000006952   -0.000013935
  19   H   :    0.000027206   -0.000005193   -0.000006464
  20   H   :    0.000031372   -0.000015662   -0.000002053

Difference to translation invariance:
           :    0.0000000000   -0.0000000000    0.0000000000

Difference to rotation invariance:
           :   -0.0000000000    0.0000000000   -0.0000000000

Norm of the Dispersion gradient    ...    0.0002025600
RMS gradient                       ...    0.0000261504
MAX gradient                       ...    0.0000759689
gCP correction                   ... done

------------------
CARTESIAN GRADIENT
------------------

   1   C   :   -0.000090803    0.000389877   -0.000216875
   2   C   :   -0.000600937   -0.000346337    0.000041449
   3   C   :    0.000592690   -0.000467893    0.000556869
   4   C   :    0.001053074    0.000117199    0.001339673
   5   O   :    0.000152719    0.000220457   -0.000692898
   6   O   :   -0.000190770    0.000147279   -0.001420821
   7   C   :   -0.001923999   -0.000537094    0.000945044
   8   C   :    0.001395447   -0.000516432   -0.000704476
   9   H   :   -0.000278959    0.000196535   -0.000198435
  10   H   :    0.000168028   -0.000856705   -0.000106963
  11   H   :    0.000091289    0.000165192    0.000865346
  12   H   :   -0.000153676    0.001092261    0.000063391
  13   H   :    0.000114673   -0.000225725   -0.001028997
  14   H   :    0.000015869   -0.000596239   -0.000148691
  15   H   :    0.000165553    0.000321884    0.000346771
  16   H   :   -0.000106956    0.001015370   -0.000607894
  17   H   :    0.000372108    0.000170956    0.000863744
  18   H   :   -0.000323384    0.000174718   -0.000184388
  19   H   :   -0.000462000   -0.000230589    0.000184648
  20   H   :    0.000010032   -0.000234713    0.000103504

Difference to translation invariance:
           :    0.0000000000   -0.0000000000    0.0000000000

Difference to rotation invariance:
           :    0.0000864807    0.0001416252    0.0001120240

Norm of the Cartesian gradient     ...    0.0047178701
RMS gradient                       ...    0.0006090744
MAX gradient                       ...    0.0019239985

-------
TIMINGS
-------

Total SCF gradient time     ....       11.249 sec

Densities                   ....       0.001 sec  (  0.0%)
One electron gradient       ....       0.345 sec  (  3.1%)
RI-J Coulomb gradient       ....       1.795 sec  ( 16.0%)
XC gradient                 ....       7.109 sec  ( 63.2%)
CPCM gradient               ....       1.050 sec  (  9.3%)
   A-Matrix (El+Nuc)        ....       0.076 sec  (  0.7%)
   Potential                ....       0.973 sec  (  8.7%)
SMD gradient                ....       0.024 sec  (  0.2%)

Maximum memory used throughout the entire SCFGRAD-calculation: 35.2 MB

------------------------------------------------------------------------------
                              ORCA PROPERTY CALCULATIONS
------------------------------------------------------------------------------

GBWName                                 ... xtb_opt.gbw
Number of atoms                         ...     20
Number of basis functions               ...    222
Max core memory                         ...   1024 MB

Electric properties:
Dipole moment                           ... YES
Quadrupole moment                       ...  NO
Static polarizability (Dipole/Dipole)   ...  NO
Static polarizability (Dipole/Quad.)    ...  NO
Static polarizability (Quad./Quad.)     ...  NO
Static polarizability (Velocity)        ...  NO

Atomic electric properties:
Dipole moment                           ...  NO
Quadrupole moment                       ...  NO
Static polarizability                   ...  NO

Choice of electric origin               ... Center of mass
Position of electric origin             ...     0.014755     0.028074     0.064126

General magnetic properties:
Magnetizability                         ...  NO

EPR properties:
g-Tensor (aka g-matrix)                 ...  NO
Zero-Field splitting spin-orbit         ...  NO
Zero-field splitting spin-spin          ...  NO
Hyperfine couplings                     ...  NO (   0 nuclei)
Quadrupole couplings                    ...  NO (   0 nuclei)
Contact density                         ...  NO (   0 nuclei)

NMR properties:
Chemical shifts                         ...  NO (   0 nuclei)
Spin-rotation constants                 ...  NO (   0 nuclei)
Spin-spin couplings                     ...  NO (   0 nuclei,    0 pairs)

Choice of magnetic origin               ... GIAO
Position of magnetic origin             ...     0.000000     0.000000     0.000000

Properties with geometric perturbations:
SCF Hessian                             ...  NO
IR spectrum                             ...  NO
VCD spectrum                            ...  NO
X-ray spectroscopy properties:
SCF XES/XAS/RIXS spectra                ...  NO


-------------
DIPOLE MOMENT
-------------

Method             : SCF
Type of density    : Electron Density
Multiplicity       :   1
Irrep              :   0
Energy             :  -386.2497496289013270 Eh
Relativity type    : 
Basis              : AO
                                X                 Y                 Z
Electronic contribution:      3.734981729       2.563608483       0.326464496
Nuclear contribution   :     -3.444255812      -3.120090710       0.539975721
                        -----------------------------------------
Total Dipole Moment    :      0.290725916      -0.556482227       0.866440217
                        -----------------------------------------
Magnitude (a.u.)       :      1.070005923
Magnitude (Debye)      :      2.719738916



--------------------
Rotational spectrum 
--------------------
 
Rotational constants in cm-1:             0.203142             0.028091             0.026740 
Rotational constants in MHz :          6090.054591           842.142930           801.657823 

Dipole components along the rotational axes: 
x,y,z [a.u.] :     0.246480    -1.038197    -0.079419 
x,y,z [Debye]:     0.626503    -2.638887    -0.201868 

 

Dipole moment calculation done in   0.0 sec 

Maximum memory used throughout the entire PROP-calculation: 13.7 MB

--------------------------------
SUGGESTED CITATIONS FOR THIS RUN
--------------------------------

Below you find a list of papers that are relevant to this ORCA run
We neither can nor want to force you to cite these papers, but we appreciate if you do
You receive ORCA, which is the product of decades of hard work by many enthusiastic individuals, for free
The only thing we kindly ask in return is that you cite our papers,
We deeply appreciate it, if you show your appreciation for ORCA by not just citing the generic ORCA reference.

Please note that relegating all ORCA citations to the supporting information does *not* help us.
SI sections are not indexed - citations you put there will not count into any citation statistics
But we need these citations in order to attract the funding resources that allow us to do what we are doing

Therefore, if you are a happy ORCA user, please consider citing a few of the papers listed below in the main body of your paper

In addition to the list printed below, the program has created the file xtb_opt.bibtex that contains the list in bibtex format
You can import this file easily into all common literature databanks and citation aid programs


List of essential papers. We consider these as the minimum necessary citations

  1. Neese,F.
     Software update: the ORCA program system, version 5.0
     WIRES Comput. Molec. Sci., 2022 12(1)e1606
     doi.org/10.1002/wcms.1606
  2. Grimme,S.; Hansen,A.; Ehlert,S.; Mewes,J.
     r2SCAN-3c: A 'Swiss army knife' composite electronic-structure method
     J. Chem. Phys., 2021 154 064103
     doi.org/10.1063/5.0040021

List of papers to cite with high priority. The work reported in these papers was absolutely
necessary for this run to complete.
Our perspective: the developers of density functionals and basis sets usually get cited in chemistry papers
Good! But without the algorithms to do something with them, the functionals or basis sets would not do anything.
Hence, in our opinion, the algorithm design and method developments papers are equally worthy of getting cited

  1. Neese,F.
     An improvement of the resolution of the identity approximation for the formation of the Coulomb matrix
     J. Comp. Chem., 2003 24(14)1740-1747
     doi.org/10.1002/jcc.10318
  2. Garcia-Rates,M.; Neese,F.
     Effect of the Solute Cavity on the Solvation Energy and its Derivatives within the Framework of the Gaussian Charge Scheme
     J. Comput. Chem., 2020 41 922-939
     doi.org/10.1002/jcc.26139
  3. Neese,F.
     The SHARK Integral Generation and Digestion System
     J. Comp. Chem., 2022  1-16
     doi.org/10.1002/jcc.26942
  4. Lehtola,S.; Steigemann,C.; Oliveira,M.; Marques,M.
     Recent developments in Libxc - A comprehensive library of functionals for density functional theory
     Software X, 2018 7 
     doi.org/10.1016/j.softx.2017.11.002
  5. Caldeweyher,E.; Bannwarth,C.; Grimme,S.
     Extension of the D3 dispersion coefficient model
     J. Chem. Phys., 2017 147 034112-XXXX
     doi.org/10.1063/1.4993215
  6. Caldeweyher,E.; Ehlert,S.; Hansen,A.; Neugebauer,H.; Spicher,S.; Bannwarth,C.; Grimme,S.
     A generally applicable atomic-charge dependent London dispersion correction
     J. Chem. Phys., 2019 150 154122-XXXX
     doi.org/10.1063/1.5090222
  7. Caldeweyher,E.; Mewes,J.; Ehlert,S.; Grimme,S.
     Extension and evaluation of the D4 London-dispersion model for periodic systems
     Phys. Chem. Chem. Phys., 2020 22(16)8499-8512
     doi.org/10.1039/D0CP00502A

List of suggested additional citations. These are papers that are important in the 'surrounding' of 
of this run, or papers that preceded the highly important papers. If you like your results we are grateful for a citation.

  1. Neese,F.
     The ORCA program system
     WIRES Comput. Molec. Sci., 2012 2(1)73-78
     doi.org/10.1002/wcms.81
  2. Neese,F.
     Software update: the ORCA program system, version 4.0
     WIRES Comput. Molec. Sci., 2018 8(1)1-6
     doi.org/10.1002/wcms.1327
  3. Neese,F.; Wennmohs,F.; Becker,U.; Riplinger,C.
     The ORCA quantum chemistry program package
     J. Chem. Phys., 2020 152 Art. No. L224108
     doi.org/10.1063/5.0004608

List of optional additional citations

  1. Neese,F.
     Approximate second-order SCF convergence for spin unrestricted wavefunctions
     Chem. Phys. Lett., 2000 325(1-3)93-98
     doi.org/10.1016/s0009-2614(00)00662-x

Timings for individual modules:

Sum of individual times          ...       22.868 sec (=   0.381 min)
Startup calculation              ...        1.521 sec (=   0.025 min)   6.7 %
SCF iterations                   ...        9.846 sec (=   0.164 min)  43.1 %
Property calculations            ...        0.125 sec (=   0.002 min)   0.5 %
SCF Gradient evaluation          ...       11.376 sec (=   0.190 min)  49.7 %
                             ****ORCA TERMINATED NORMALLY****
TOTAL RUN TIME: 0 days 0 hours 0 minutes 23 seconds 937 msec
  ------------------------------------------------------------------------
          * successful ORCA run, taking over control again...

         :::::::::::::::::::::::::::::::::::::::::::::::::::::
         ::                  ORCA SUMMARY                   ::
         :::::::::::::::::::::::::::::::::::::::::::::::::::::
         :: total energy            -386.243158796899 Eh    ::
         :: gradient norm              0.004717870077 Eh/a0 ::
         :: HOMO-LUMO gap              0.000000000000 eV    ::
         :::::::::::::::::::::::::::::::::::::::::::::::::::::

      ----------------------------------------------------------- 
     |                       L-ANC optimizer                     |
      ----------------------------------------------------------- 
          low memory version by Sebastian Ehlert

          ...................................................
          :                      SETUP                      :
          :.................................................:
          :   energy convergence        0.5000000E-05 Eh    :
          :   grad. convergence         0.1000000E-02 Eh/a0 :
          :   optimization log               true           :
          :   writing optlog all                1     steps :
          :   Hessian reset                     8     steps :
          :   maximium step len.        1.0000000     a0    :
          :   LBFGS images                      8           :
          ...................................................
 * calculating model hessian...
Using Lindh-Hessian (1995)
 Shifting diagonal of input Hessian by   1.000000000000000E-002
 Lowest  eigenvalues of input Hessian
    0.000000    0.000000    0.000000    0.000000    0.000000    0.000000
    0.011250    0.012401    0.013777    0.015695    0.017896    0.019489
    0.021828    0.026135    0.038473    0.042779    0.048667    0.053500
 Highest eigenvalues
    1.202455    1.220852    1.257868    1.305797    1.733631    2.273530
 

........................................................................
.............................. CYCLE    1 ..............................
........................................................................
                         * ORCA takes the control...
  ------------------------------------------------------------------------

                                 *****************
                                 * O   R   C   A *
                                 *****************

                                            #,                                       
                                            ###                                      
                                            ####                                     
                                            #####                                    
                                            ######                                   
                                           ########,                                 
                                     ,,################,,,,,                         
                               ,,#################################,,                 
                          ,,##########################################,,             
                       ,#########################################, ''#####,          
                    ,#############################################,,   '####,        
                  ,##################################################,,,,####,       
                ,###########''''           ''''###############################       
              ,#####''   ,,,,##########,,,,          '''####'''          '####       
            ,##' ,,,,###########################,,,                        '##       
           ' ,,###''''                  '''############,,,                           
         ,,##''                                '''############,,,,        ,,,,,,###''
      ,#''                                            '''#######################'''  
     '                                                          ''''####''''         
             ,#######,   #######,   ,#######,      ##                                
            ,#'     '#,  ##    ##  ,#'     '#,    #''#        ,####,   ,####,        
            ##       ##  ##   ,#'  ##            #'  '#       #'       #'  '#        
            ##       ##  #######   ##           ,######,      #####,   #    #        
            '#,     ,#'  ##    ##  '#,     ,#' ,#      #,     #,   #   #,  ,#        
             '#######'   ##     ##  '#######'  #'      '#     '####' # '####'        



                #########################################################
                #                        -***-                          #
                #          Department of theory and spectroscopy        #
                #                                                       #
                #                      Frank Neese                      #
                #                                                       #
                #     Directorship, Architecture, Infrastructure        #
                #                    SHARK, DRIVERS                     #
                #        Core code/Algorithms in most modules           #
                #                                                       #
                #        Max Planck Institute fuer Kohlenforschung      #
                #                Kaiser Wilhelm Platz 1                 #
                #                 D-45470 Muelheim/Ruhr                 #
                #                      Germany                          #
                #                                                       #
                #                  All rights reserved                  #
                #                        -***-                          #
                #########################################################


                         Program Version 6.0.0  -   RELEASE  -


 With contributions from (in alphabetic order):
   Daniel Aravena         : Magnetic Suceptibility
   Michael Atanasov       : Ab Initio Ligand Field Theory (pilot matlab implementation)
   Alexander A. Auer      : GIAO ZORA, VPT2 properties, NMR spectrum
   Ute Becker             : All parallelization in ORCA, NUMFREQ, NUMCALC
   Giovanni Bistoni       : ED, misc. LED, open-shell LED, HFLD
   Martin Brehm           : Molecular dynamics
   Dmytro Bykov           : pre 5.0 version of the SCF Hessian
   Marcos Casanova-Páez   : Triplet and SCS-CIS(D). UHF-(DLPNO)-IP/EA/STEOM-CCSD. UHF-CVS-IP/STEOM-CCSD
   Vijay G. Chilkuri      : MRCI spin determinant printing, contributions to CSF-ICE
   Pauline Colinet        : FMM embedding
   Dipayan Datta          : RHF DLPNO-CCSD density
   Achintya Kumar Dutta   : EOM-CC, STEOM-CC
   Nicolas Foglia         : Exact transition moments, OPA infrastructure, MCD improvements
   Dmitry Ganyushin       : Spin-Orbit,Spin-Spin,Magnetic field MRCI
   Miquel Garcia          : C-PCM and meta-GGA Hessian, CCSD/C-PCM, Gaussian charge scheme
   Tiago L. C. Gouveia    : GS-ROHF, GS-ROCIS
   Yang Guo               : DLPNO-NEVPT2, F12-NEVPT2, CIM, IAO-localization
   Andreas Hansen         : Spin unrestricted coupled pair/coupled cluster methods
   Ingolf Harden          : AUTO-CI MPn and infrastructure 
   Benjamin Helmich-Paris : MC-RPA, TRAH-(SCF,CASSCF), AVAS, COSX integrals, SCF dyn. polar.
   Lee Huntington         : MR-EOM, pCC
   Robert Izsak           : Overlap fitted RIJCOSX, COSX-SCS-MP3, EOM
   Riya Kayal             : Wick's Theorem for AUTO-CI, AUTO-CI UHF-CCSDT
   Emily Kempfer          : AUTO-CI, RHF CISDT and CCSDT
   Christian Kollmar      : KDIIS, OOCD, Brueckner-CCSD(T), CCSD density, CASPT2, CASPT2-K, improved NEVPT2
   Axel Koslowski         : Symmetry handling
   Simone Kossmann        : Meta GGA functionals, TD-DFT gradient, OOMP2, (MP2 Hessian; deprecated post 5.0)
   Lucas Lang             : DCDCAS
   Marvin Lechner         : AUTO-CI (C++ implementation), FIC-MRCC
   Spencer Leger          : CASSCF response
   Dagmar Lenk            : GEPOL surface, SMD, ORCA-2-JSON
   Dimitrios Liakos       : Extrapolation schemes; Compound Job, initial MDCI parallelization
   Dimitrios Manganas     : Further ROCIS development; embedding schemes. LFT, Crystal Embedding
   Dimitrios Pantazis     : SARC Basis sets
   Anastasios Papadopoulos: AUTO-CI, single reference methods and gradients
   Taras Petrenko         : pre 6.0 DFT Hessian and TD-DFT gradient, (ASA, deprecated), ECA, 1-Electron XAS/XES, NRVS
   Peter Pinski           : DLPNO-MP2, DLPNO-MP2 Gradient
   Christoph Reimann      : Effective Core Potentials
   Marius Retegan         : Local ZFS, SOC
   Christoph Riplinger    : Optimizer, TS searches, QM/MM, DLPNO-CCSD(T), (RO)-DLPNO pert. Triples
   Michael Roemelt        : Original ROCIS implementation
   Masaaki Saitow         : Open-shell DLPNO-CCSD energy and density
   Barbara Sandhoefer     : DKH picture change effects
   Kantharuban Sivalingam : CASSCF convergence/infrastructure, NEVPT2 and variants, FIC-MRCI
   Bernardo de Souza      : ESD, SOC TD-DFT
   Georgi Stoychev        : AutoAux, RI-MP2 NMR, DLPNO-MP2 response, X2C
   Van Anh Tran           : RI-MP2 g-tensors
   Willem Van den Heuvel  : Paramagnetic NMR
   Zikuan Wang            : NOTCH, Electric field optimization 
   Frank Wennmohs         : Technical directorship and infrastructure
   Hang Xu                : AUTO-CI-Response properties 


 We gratefully acknowledge several colleagues who have allowed us to
 interface, adapt or use parts of their codes:
   Stefan Grimme, W. Hujo, H. Kruse, P. Pracht,  : VdW corrections, initial TS optimization,
                  C. Bannwarth, S. Ehlert,         DFT functionals, gCP, sTDA/sTD-DF
                  L. Wittmann, M. Mueller
   Ed Valeev, F. Pavosevic, A. Kumar             : LibInt (2-el integral package), F12 methods
   Garnet Chan, S. Sharma, J. Yang, R. Olivares  : DMRG
   Ulf Ekstrom                                   : XCFun DFT Library
   Mihaly Kallay                                 : mrcc  (arbitrary order and MRCC methods)
   Frank Weinhold                                : gennbo (NPA and NBO analysis)
   Simon Mueller                                 : openCOSMO-RS
   Christopher J. Cramer and Donald G. Truhlar   : smd solvation model
   Lars Goerigk                                  : TD-DFT with DH, B97 family of functionals
   V. Asgeirsson, H. Jonsson                     : NEB implementation
   FAccTs GmbH                                   : IRC, NEB, NEB-TS, DLPNO-Multilevel, CI-OPT
                                                   MM, QMMM, 2- and 3-layer-ONIOM, Crystal-QMMM,
                                                   LR-CPCM, SF, NACMEs, symmetry and pop. for TD-DFT,
                                                   nearIR, NL-DFT gradient (VV10), updates on ESD,
                                                   ML-optimized integration grids, MBIS, APM,
                                                   GOAT, DOCKER, SOLVATOR, interface openCOSMO-RS
   S Lehtola, MJT Oliveira, MAL Marques          : LibXC Library
   Liviu Ungur et al                             : ANISO software


 Your calculation uses the libint2 library for the computation of 2-el integrals
 For citations please refer to: http://libint.valeyev.net

 Your ORCA version has been built with support for libXC version: 6.2.2
 For citations please refer to: https://libxc.gitlab.io

 This ORCA versions uses:
   CBLAS   interface :  Fast vector & matrix operations
   LAPACKE interface :  Fast linear algebra routines
   SCALAPACK package :  Parallel linear algebra routines
   Shared memory     :  Shared parallel matrices
   BLAS/LAPACK       :  OpenBLAS 0.3.27  USE64BITINT DYNAMIC_ARCH NO_AFFINITY SkylakeX SINGLE_THREADED
        Core in use  :  SkylakeX
   Copyright (c) 2011-2014, The OpenBLAS Project




***************************************
The coordinates will be read from file: xtb_opt.xyz
***************************************


Your calculation utilizes the geometrical counterpoise correction gCP
Please cite in your paper:
H.Kruse, S. Grimme J.Chem.Phys., 136, (2012), 154101 
   

Your calculation utilizes the atom-pairwise dispersion correction
based on EEQ partial charges (D4)


Your calculation utilizes the SMD solvation module
Please cite in your paper:
A.V. Marenich, C.J. Cramer, D.G. Truhlar J. Phys. Chem. B, 113, (2009), 6378 

================================================================================

----- Orbital basis set information -----
Your calculation utilizes the basis: def2-mTZVPP
   Stefan Grimme, Andreas Hansen, Sebastian Ehlert, and Jan-Michael Mewes 
   J. Chem. Phys. 154, 064103 (2021). DOI: 10.1063/5.0040021

----- AuxJ basis set information -----
Your calculation utilizes the auxiliary basis: def2/J
   F. Weigend, Phys. Chem. Chem. Phys. 8, 1057 (2006).

================================================================================
                                        WARNINGS
                       Please study these warnings very carefully!
================================================================================

WARNING: Old DensityContainer found on disk!
         Will remove this file - 
         If you want to keep old densities, please start your calculation with a different basename. 

Using LibXC functional ID 497 : Re-regularized SCAN exchange by Furness et al
[ 1]  J. W. Furness, A. D. Kaplan, J. Ning, J. P. Perdew, and J. Sun.,  J. Phys. Chem. Lett. 11, 8208-8215 (2020)
[ 2]  J. W. Furness, A. D. Kaplan, J. Ning, J. P. Perdew, and J. Sun.,  J. Phys. Chem. Lett. 11, 9248-9248 (2020)
Using LibXC functional ID 498 : Re-regularized SCAN correlation by Furness et al
[ 1]  J. W. Furness, A. D. Kaplan, J. Ning, J. P. Perdew, and J. Sun.,  J. Phys. Chem. Lett. 11, 8208-8215 (2020)
[ 2]  J. W. Furness, A. D. Kaplan, J. Ning, J. P. Perdew, and J. Sun.,  J. Phys. Chem. Lett. 11, 9248-9248 (2020)
Using LibXC functional ID 497 : Re-regularized SCAN exchange by Furness et al
[ 1]  J. W. Furness, A. D. Kaplan, J. Ning, J. P. Perdew, and J. Sun.,  J. Phys. Chem. Lett. 11, 8208-8215 (2020)
[ 2]  J. W. Furness, A. D. Kaplan, J. Ning, J. P. Perdew, and J. Sun.,  J. Phys. Chem. Lett. 11, 9248-9248 (2020)
Using LibXC functional ID 498 : Re-regularized SCAN correlation by Furness et al
[ 1]  J. W. Furness, A. D. Kaplan, J. Ning, J. P. Perdew, and J. Sun.,  J. Phys. Chem. Lett. 11, 8208-8215 (2020)
[ 2]  J. W. Furness, A. D. Kaplan, J. Ning, J. P. Perdew, and J. Sun.,  J. Phys. Chem. Lett. 11, 9248-9248 (2020)

================================================================================
                                       INPUT FILE
================================================================================
NAME = xtb_opt.inp
|  1> ! r2scan-3c def2/J RI DEFGRID2 scfconv7 ENGRAD tightSCF miniprint
|  2> %cpcm
|  3>     smd true
|  4>     smdsolvent "water"
|  5> end
|  6> * xyzfile 0 1 xtb_opt.xyz
|  7> 
|  8>                          ****END OF INPUT****
================================================================================

                     *******************************
                     * Energy+Gradient Calculation *
                     *******************************

---------------------------------
CARTESIAN COORDINATES (ANGSTROEM)
---------------------------------
  C     -3.654065   -0.624989    0.218244
  C     -2.386692    0.029519   -0.322954
  C     -1.159629   -0.400744    0.472532
  C      0.121469    0.226909    0.001190
  O      0.256316    0.868550   -1.027798
  O      1.126346   -0.010479    0.867383
  C      2.450993    0.496415    0.514981
  C      3.163832   -0.457889   -0.416959
  H     -4.535507   -0.303793   -0.345034
  H     -3.591115   -1.716978    0.152385
  H     -3.812263   -0.362247    1.270209
  H     -2.481104    1.121002   -0.278953
  H     -2.249769   -0.234217   -1.377668
  H     -1.021909   -1.489331    0.413836
  H     -1.279158   -0.170605    1.537757
  H      2.344178    1.493792    0.080191
  H      2.965776    0.577257    1.474526
  H      2.644578   -0.539929   -1.375723
  H      4.175918   -0.085927   -0.603976
  H      3.241187   -1.452068    0.032738

----------------------------
CARTESIAN COORDINATES (A.U.)
----------------------------
  NO LB      ZA    FRAG     MASS         X           Y           Z
   0 C     6.0000    0    12.011   -6.905182   -1.181057    0.412421
   1 C     6.0000    0    12.011   -4.510194    0.055782   -0.610295
   2 C     6.0000    0    12.011   -2.191382   -0.757296    0.892956
   3 C     6.0000    0    12.011    0.229543    0.428795    0.002249
   4 O     8.0000    0    15.999    0.484366    1.641322   -1.942257
   5 O     8.0000    0    15.999    2.128486   -0.019803    1.639117
   6 C     6.0000    0    12.011    4.631705    0.938089    0.973173
   7 C     6.0000    0    12.011    5.978775   -0.865285   -0.787939
   8 H     1.0000    0     1.008   -8.570866   -0.574085   -0.652020
   9 H     1.0000    0     1.008   -6.786224   -3.244619    0.287967
  10 H     1.0000    0     1.008   -7.204133   -0.684548    2.400347
  11 H     1.0000    0     1.008   -4.688606    2.118388   -0.527145
  12 H     1.0000    0     1.008   -4.251447   -0.442607   -2.603415
  13 H     1.0000    0     1.008   -1.931128   -2.814427    0.782038
  14 H     1.0000    0     1.008   -2.417258   -0.322397    2.905940
  15 H     1.0000    0     1.008    4.429855    2.822858    0.151540
  16 H     1.0000    0     1.008    5.604505    1.090858    2.786450
  17 H     1.0000    0     1.008    4.997528   -1.020319   -2.599739
  18 H     1.0000    0     1.008    7.891341   -0.162379   -1.141349
  19 H     1.0000    0     1.008    6.124956   -2.744012    0.061866

------------------------------------------------------------------------------
                   ___                                                        
                  /   \      - P O W E R E D   B Y -                         
                 /     \                                                     
                 |  |  |   _    _      __       _____    __    __             
                 |  |  |  | |  | |    /  \     |  _  \  |  |  /  |          
                  \  \/   | |  | |   /    \    | | | |  |  | /  /          
                 / \  \   | |__| |  /  /\  \   | |_| |  |  |/  /          
                |  |  |   |  __  | /  /__\  \  |    /   |      \           
                |  |  |   | |  | | |   __   |  |    \   |  |\   \          
                \     /   | |  | | |  |  |  |  | |\  \  |  | \   \       
                 \___/    |_|  |_| |__|  |__|  |_| \__\ |__|  \__/        
                                                                              
                      - O R C A' S   B I G   F R I E N D -                    
                                      &                                       
                       - I N T E G R A L  F E E D E R -                       
                                                                              
 v1 FN, 2020, v2 2021, v3 2022-2024                                           
------------------------------------------------------------------------------


----------------------
SHARK INTEGRAL PACKAGE
----------------------

Number of atoms                             ...     20
Number of basis functions                   ...    222
Number of shells                            ...    110
Maximum angular momentum                    ...      2
Integral batch strategy                     ... SHARK/LIBINT Hybrid
RI-J (if used) integral strategy            ... SPLIT-RIJ (Revised 2003 algorithm where possible)
Printlevel                                  ...      1
Contraction scheme used                     ... SEGMENTED contraction
Prescreening option                         ... SCHWARTZ
   Thresh                                   ... 3.000e-11
   Tcut                                     ... 1.000e-12
   Tpresel                                  ... 1.000e-12 
Coulomb Range Separation                    ... NOT USED
Exchange Range Separation                   ... NOT USED
Multipole approximations                    ... NOT USED
Finite Nucleus Model                        ... NOT USED
CABS basis                                  ... NOT available
Auxiliary Coulomb fitting basis             ... AVAILABLE
   # of basis functions in Aux-J            ...    524
   # of shells in Aux-J                     ...    180
   Maximum angular momentum in Aux-J        ...      4
Auxiliary J/K fitting basis                 ... NOT available
Auxiliary Correlation fitting basis         ... NOT available
Auxiliary 'external' fitting basis          ... NOT available

Checking pre-screening integrals            ... done (  0.0 sec) Dimension = 110
Check shell pair data                       ... done (  0.0 sec)
Shell pair information
Shell pair cut-off parameter TPreSel        ...   1.0e-12
Total number of shell pairs                 ...      6105
Shell pairs after pre-screening             ...      5227
Total number of primitive shell pairs       ...     21533
Primitive shell pairs kept                  ...     13117
          la=0 lb=0:   1750 shell pairs
          la=1 lb=0:   1975 shell pairs
          la=1 lb=1:    576 shell pairs
          la=2 lb=0:    559 shell pairs
          la=2 lb=1:    317 shell pairs
          la=2 lb=2:     50 shell pairs

Calculating one electron integrals          ... done (  0.0 sec)
Calculating RI/J V-Matrix + Cholesky decomp.... done (  0.1 sec)
Calculating Nuclear repulsion               ... done (  0.0 sec) ENN=    385.698189168966 Eh

Diagonalization of the overlap matrix:
Smallest eigenvalue                        ... 1.046e-04
Time for diagonalization                   ...    0.006 sec
Threshold for overlap eigenvalues          ... 1.000e-07
Number of eigenvalues below threshold      ... 0
Time for construction of square roots      ...    0.015 sec
Total time needed                          ...    0.030 sec

-------------------
DFT GRID GENERATION
-------------------

General Integration Accuracy     IntAcc      ... 4.388
Radial Grid Type                 RadialGrid  ... OptM3 with GC (2021)
Angular Grid (max. ang.)         AngularGrid ... 4 (Lebedev-302)
Angular grid pruning method      GridPruning ... 4 (adaptive)
Weight generation scheme         WeightScheme... mBecke (2022)
Basis function cutoff            BFCut       ... 1.0000e-11
Integration weight cutoff        WCut        ... 1.0000e-14
Partially contracted basis set               ... off
Rotationally invariant grid construction     ... off
Angular grids for H and He will be reduced by one unit
Diffuse basis detected: some atoms will have their outermost
                        angular grid increased by 1.

Total number of grid points                  ...    87467
Total number of batches                      ...     1377
Average number of points per batch           ...       63
Average number of grid points per atom       ...     4373
Initializing property integral containers    ... done (  0.0 sec)

SHARK setup successfully completed in   1.6 seconds

Maximum memory used throughout the entire STARTUP-calculation: 39.2 MB
Occupation numbers will be reassigned to an Aufbau configuration
             **** ENERGY FILE WAS UPDATED (xtb_opt.en.tmp) ****
Finished Guess after   0.5 sec
Maximum memory used throughout the entire GUESS-calculation: 14.9 MB
--------------------
CPCM SOLVATION MODEL
--------------------
CPCM parameters:
  Epsilon                                         ...      78.3550
  Refrac                                          ...       1.3328
  Rsolv                                           ...       1.3000
  Surface type                                    ... GAUSSIAN VDW
  Discretization scheme                           ... Constant charge density
    Threshold for H atoms                         ...       5.0000 (charges/Ang^2)
    Threshold for non-H atoms                     ...       5.0000 (charges/Ang^2)
  Epsilon function type                           ...         CPCM
Solvent:                                          ... WATER
SMD-CDS solvent descriptors:
  Soln                                            ...       1.3328
  Soln25                                          ...       1.3323
  Sola                                            ...       0.0000
  Solb                                            ...       0.0000
  Solg                                            ...       0.0000
  Solc                                            ...       0.0000
  Solh                                            ...       0.0000
Radii:
  Scheme                                          ... Element-dependent radii
  Radius for C  used is    3.4960 Bohr (=   1.8500 Ang.)
  Radius for O  used is    2.8724 Bohr (=   1.5200 Ang.)
  Radius for H  used is    2.2677 Bohr (=   1.2000 Ang.)
Calculating surface                               ...        done! (  0.0s)
Cavity surface points                             ...         1508
Cavity Volume                                     ...     884.7395
Cavity Surface-area                               ...     594.6568
Calculating surface distance matrix               ...        done! (  0.0s)
Performing Cholesky decomposition & store         ...        done! (  0.1s)
Overall time for CPCM initialization              ...                 0.1s

----------------------------------------D-I-I-S--------------------------------------------
Iteration    Energy (Eh)           Delta-E    RMSDP     MaxDP     DIISErr   Damp  Time(sec)
-------------------------------------------------------------------------------------------
               ***  Starting incremental Fock matrix formation  ***
                              *** Initializing SOSCF ***
---------------------------------------S-O-S-C-F--------------------------------------
Iteration    Energy (Eh)           Delta-E    RMSDP     MaxDP     MaxGrad    Time(sec)
--------------------------------------------------------------------------------------
    1    -386.2576820970123208     0.00e+00  3.51e-05  8.32e-04  8.82e-05     4.3
               *** Restarting incremental Fock matrix formation ***
    2    -386.2576930630220886    -1.10e-05  1.65e-05  3.92e-04  1.14e-04     3.6
    3    -386.2576928780063099     1.85e-07  8.78e-06  2.94e-04  2.05e-04     3.1
    4    -386.2576939636757061    -1.09e-06  5.89e-06  1.37e-04  7.12e-05     3.1
    5    -386.2576938888190625     7.49e-08  3.76e-06  1.32e-04  8.18e-05     2.9
                 **** Energy Check signals convergence ****

               *****************************************************
               *                     SUCCESS                       *
               *           SCF CONVERGED AFTER   5 CYCLES          *
               *****************************************************


SMD CDS free energy correction energy :                 4.95854     Kcal/mol
Total Energy after SMD CDS correction =              -386.249791959 Eh
             **** ENERGY FILE WAS UPDATED (xtb_opt.en.tmp) ****

----------------
TOTAL SCF ENERGY
----------------

Total Energy       :       -386.24979195902347 Eh          -10510.39118 eV

Components:
Nuclear Repulsion  :        385.69818916896622 Eh           10495.38130 eV
Electronic Energy  :       -771.93971742777831 Eh          -21005.54761 eV
One Electron Energy:      -1288.89850858633690 Eh          -35072.71148 eV
Two Electron Energy:        516.95879115855860 Eh           14067.16387 eV
CPCM Dielectric    :         -0.01616563000699 Eh              -0.43989 eV
SMD CDS (Gcds)     :          0.00790192979561 Eh               0.21502 eV

Virial components:
Potential Energy   :       -770.69692160284126 Eh          -20971.72942 eV
Kinetic Energy     :        384.44712964381779 Eh           10461.33824 eV
Virial Ratio       :          2.00468897327150

DFT components:
N(Alpha)           :       32.000027134333 electrons
N(Beta)            :       32.000027134333 electrons
N(Total)           :       64.000054268666 electrons
E(X)               :      -52.037348699437 Eh       
E(C)               :       -2.035296271929 Eh       
E(XC)              :      -54.072644971366 Eh       

CPCM Solvation Model Properties:
Surface-charge          :         -0.04824126273352
Corrected charge        :         -0.00000000000000
Outlying charge corr.   :          0.00017299557068 Eh               0.00471 eV
Free-energy (cav+disp)  :          0.00790192979561 Eh               0.21502 eV

---------------
SCF CONVERGENCE
---------------

  Last Energy change         ...   -7.4857e-08  Tolerance :   1.0000e-07
  Last MAX-Density change    ...    1.3186e-04  Tolerance :   1.0000e-07
  Last RMS-Density change    ...    3.7581e-06  Tolerance :   5.0000e-09
  Last DIIS Error            ...    9.7689e-04  Tolerance :   1.0000e-07
  Last Orbital Gradient      ...    8.1803e-05  Tolerance :   1.0000e-04
  Last Orbital Rotation      ...    1.0071e-04  Tolerance :   1.0000e-04


----------------
ORBITAL ENERGIES
----------------

  NO   OCC          E(Eh)            E(eV) 
   0   2.0000     -18.999036      -516.9900 
   1   2.0000     -18.946394      -515.5576 
   2   2.0000     -10.164774      -276.5976 
   3   2.0000     -10.084057      -274.4012 
   4   2.0000     -10.037652      -273.1384 
   5   2.0000     -10.026503      -272.8350 
   6   2.0000     -10.020132      -272.6616 
   7   2.0000     -10.013807      -272.4895 
   8   2.0000      -1.067682       -29.0531 
   9   2.0000      -0.984099       -26.7787 
  10   2.0000      -0.765729       -20.8365 
  11   2.0000      -0.731691       -19.9103 
  12   2.0000      -0.673819       -18.3355 
  13   2.0000      -0.612502       -16.6670 
  14   2.0000      -0.557042       -15.1579 
  15   2.0000      -0.515502       -14.0275 
  16   2.0000      -0.472507       -12.8576 
  17   2.0000      -0.458172       -12.4675 
  18   2.0000      -0.445230       -12.1153 
  19   2.0000      -0.414900       -11.2900 
  20   2.0000      -0.409352       -11.1390 
  21   2.0000      -0.377614       -10.2754 
  22   2.0000      -0.373809       -10.1719 
  23   2.0000      -0.357305        -9.7228 
  24   2.0000      -0.345455        -9.4003 
  25   2.0000      -0.334036        -9.0896 
  26   2.0000      -0.318392        -8.6639 
  27   2.0000      -0.307839        -8.3767 
  28   2.0000      -0.303624        -8.2620 
  29   2.0000      -0.296912        -8.0794 
  30   2.0000      -0.276830        -7.5329 
  31   2.0000      -0.252690        -6.8760 
  32   0.0000      -0.024315        -0.6616 
  33   0.0000       0.079479         2.1627 
  34   0.0000       0.087655         2.3852 
  35   0.0000       0.112799         3.0694 
  36   0.0000       0.131648         3.5823 
  37   0.0000       0.134085         3.6486 
  38   0.0000       0.140577         3.8253 
  39   0.0000       0.147509         4.0139 
  40   0.0000       0.156892         4.2692 
  41   0.0000       0.159882         4.3506 
  42   0.0000       0.173647         4.7252 
*Only the first 10 virtual orbitals were printed.
Total SCF time: 0 days 0 hours 0 min 17 sec 
Finished LeanSCF after  17.8 sec

Maximum memory used throughout the entire LEANSCF-calculation: 30.5 MB


-------------------------------------------------------------------------------
                          DFT DISPERSION CORRECTION                            
                                                                               
                                DFTD4 V3.4.0                                   
-------------------------------------------------------------------------------
-------------------------   ----------------
Dispersion correction           -0.004886575
-------------------------   ----------------

------------------   -----------------
gCP correction             0.011491509
------------------   -----------------

-------------------------   --------------------
[...]
  Last RMS-Density change    ...    1.5073e-06  Tolerance :   5.0000e-09
  Last DIIS Error            ...    3.8595e-05  Tolerance :   1.0000e-07
  Last Orbital Gradient      ...    1.3466e-05  Tolerance :   1.0000e-04
  Last Orbital Rotation      ...    5.3325e-05  Tolerance :   1.0000e-04


----------------
ORBITAL ENERGIES
----------------

  NO   OCC          E(Eh)            E(eV) 
   0   2.0000     -18.998919      -516.9869 
   1   2.0000     -18.946086      -515.5492 
   2   2.0000     -10.164710      -276.5958 
   3   2.0000     -10.084231      -274.4059 
   4   2.0000     -10.037876      -273.1445 
   5   2.0000     -10.026611      -272.8380 
   6   2.0000     -10.020199      -272.6635 
   7   2.0000     -10.013931      -272.4929 
   8   2.0000      -1.067034       -29.0355 
   9   2.0000      -0.983777       -26.7699 
  10   2.0000      -0.765700       -20.8358 
  11   2.0000      -0.731625       -19.9085 
  12   2.0000      -0.673945       -18.3390 
  13   2.0000      -0.612227       -16.6595 
  14   2.0000      -0.557065       -15.1585 
  15   2.0000      -0.515167       -14.0184 
  16   2.0000      -0.472517       -12.8579 
  17   2.0000      -0.457991       -12.4626 
  18   2.0000      -0.445060       -12.1107 
  19   2.0000      -0.414826       -11.2880 
  20   2.0000      -0.409378       -11.1397 
  21   2.0000      -0.377875       -10.2825 
  22   2.0000      -0.373896       -10.1742 
  23   2.0000      -0.357399        -9.7253 
  24   2.0000      -0.345365        -9.3978 
  25   2.0000      -0.334100        -9.0913 
  26   2.0000      -0.318318        -8.6619 
  27   2.0000      -0.307864        -8.3774 
  28   2.0000      -0.303769        -8.2660 
  29   2.0000      -0.296938        -8.0801 
  30   2.0000      -0.276890        -7.5346 
  31   2.0000      -0.252588        -6.8733 
  32   0.0000      -0.024391        -0.6637 
  33   0.0000       0.079394         2.1604 
  34   0.0000       0.086902         2.3647 
  35   0.0000       0.112706         3.0669 
  36   0.0000       0.131770         3.5856 
  37   0.0000       0.134004         3.6464 
  38   0.0000       0.140706         3.8288 
  39   0.0000       0.147470         4.0129 
  40   0.0000       0.156715         4.2644 
  41   0.0000       0.159695         4.3455 
  42   0.0000       0.174008         4.7350 
*Only the first 10 virtual orbitals were printed.
Total SCF time: 0 days 0 hours 0 min 9 sec 
Finished LeanSCF after  10.0 sec

Maximum memory used throughout the entire LEANSCF-calculation: 30.5 MB


-------------------------------------------------------------------------------
                          DFT DISPERSION CORRECTION                            
                                                                               
                                DFTD4 V3.4.0                                   
-------------------------------------------------------------------------------
-------------------------   ----------------
Dispersion correction           -0.004889211
-------------------------   ----------------

------------------   -----------------
gCP correction             0.011490435
------------------   -----------------

-------------------------   --------------------
FINAL SINGLE POINT ENERGY      -386.243210238594
-------------------------   --------------------

------------------------------------------------------------------------------
                         ORCA SCF GRADIENT CALCULATION
------------------------------------------------------------------------------

Nuc. rep. gradient        (SHARK) ... done (  0.0 sec)
HCore & Overlap gradient  (SHARK) ... done (  0.3 sec)
Split-RIJ-J gradient      (SHARK) ... done (  1.8 sec)
XC gradient                       ... done (  7.2 sec)
CPCM gradient                     ... done (  1.0 sec)
SMD gradient                      ... done (  0.0 sec)
Dispersion correction             ... done (  0.0 sec)

-------------------
DISPERSION GRADIENT
-------------------

   1   C   :   -0.000070941   -0.000017593    0.000005807
   2   C   :   -0.000058569    0.000003553   -0.000015480
   3   C   :   -0.000047836   -0.000017757    0.000021910
   4   C   :    0.000013345    0.000020116    0.000001356
   5   O   :    0.000004916    0.000047169   -0.000049540
   6   O   :    0.000043330    0.000006848    0.000033187
   7   C   :    0.000062687    0.000019097    0.000012858
   8   C   :    0.000076042   -0.000017028   -0.000016154
   9   H   :   -0.000027441   -0.000002531   -0.000003138
  10   H   :   -0.000027299   -0.000012978    0.000000067
  11   H   :   -0.000029001   -0.000003541    0.000007521
  12   H   :   -0.000023009    0.000010798   -0.000005760
  13   H   :   -0.000021551   -0.000000940   -0.000015539
  14   H   :   -0.000014388   -0.000021362    0.000007039
  15   H   :   -0.000012722   -0.000002010    0.000021763
  16   H   :    0.000019998    0.000011183    0.000002664
  17   H   :    0.000023502    0.000004870    0.000014652
  18   H   :    0.000030350   -0.000006929   -0.000014187
  19   H   :    0.000027205   -0.000005234   -0.000006761
  20   H   :    0.000031383   -0.000015730   -0.000002266

Difference to translation invariance:
           :   -0.0000000000    0.0000000000   -0.0000000000

Difference to rotation invariance:
           :    0.0000000000    0.0000000000   -0.0000000000

Norm of the Dispersion gradient    ...    0.0002027906
RMS gradient                       ...    0.0000261802
MAX gradient                       ...    0.0000760418
gCP correction                   ... done

------------------
CARTESIAN GRADIENT
------------------

   1   C   :   -0.000035097    0.000035948   -0.000013573
   2   C   :   -0.000071818   -0.000015374    0.000000818
   3   C   :    0.000093900   -0.000022417    0.000135652
   4   C   :   -0.000045922    0.000129394   -0.000261329
   5   O   :    0.000010756   -0.000077466    0.000057454
   6   O   :   -0.000134884   -0.000122581    0.000203900
   7   C   :    0.000098171    0.000044050   -0.000056215
   8   C   :    0.000090343   -0.000048194   -0.000057978
   9   H   :   -0.000037804    0.000050836   -0.000041834
  10   H   :    0.000002579   -0.000118415   -0.000022188
  11   H   :   -0.000006134    0.000020630    0.000130929
  12   H   :   -0.000003526    0.000145814    0.000018038
  13   H   :    0.000016943   -0.000023582   -0.000128049
  14   H   :    0.000006025   -0.000103531   -0.000071761
  15   H   :    0.000015196   -0.000027686    0.000067235
  16   H   :   -0.000044598    0.000106783   -0.000073110
  17   H   :    0.000058290    0.000039737    0.000100343
  18   H   :   -0.000023304    0.000015974   -0.000042086
  19   H   :   -0.000010305   -0.000005603    0.000028431
  20   H   :    0.000021188   -0.000024316    0.000025322

Difference to translation invariance:
           :   -0.0000000000   -0.0000000000   -0.0000000000

Difference to rotation invariance:
           :    0.0001250983    0.0001490094    0.0001376128

Norm of the Cartesian gradient     ...    0.0006106522
RMS gradient                       ...    0.0000788349
MAX gradient                       ...    0.0002613285

-------
TIMINGS
-------

Total SCF gradient time     ....       11.529 sec

Densities                   ....       0.001 sec  (  0.0%)
One electron gradient       ....       0.348 sec  (  3.0%)
RI-J Coulomb gradient       ....       1.837 sec  ( 15.9%)
XC gradient                 ....       7.208 sec  ( 62.5%)
CPCM gradient               ....       1.035 sec  (  9.0%)
   A-Matrix (El+Nuc)        ....       0.083 sec  (  0.7%)
   Potential                ....       0.952 sec  (  8.3%)
SMD gradient                ....       0.014 sec  (  0.1%)

Maximum memory used throughout the entire SCFGRAD-calculation: 35.2 MB

------------------------------------------------------------------------------
                              ORCA PROPERTY CALCULATIONS
------------------------------------------------------------------------------

GBWName                                 ... xtb_opt.gbw
Number of atoms                         ...     20
Number of basis functions               ...    222
Max core memory                         ...   1024 MB

Electric properties:
Dipole moment                           ... YES
Quadrupole moment                       ...  NO
Static polarizability (Dipole/Dipole)   ...  NO
Static polarizability (Dipole/Quad.)    ...  NO
Static polarizability (Quad./Quad.)     ...  NO
Static polarizability (Velocity)        ...  NO

Atomic electric properties:
Dipole moment                           ...  NO
Quadrupole moment                       ...  NO
Static polarizability                   ...  NO

Choice of electric origin               ... Center of mass
Position of electric origin             ...     0.015941     0.031378     0.074691

General magnetic properties:
Magnetizability                         ...  NO

EPR properties:
g-Tensor (aka g-matrix)                 ...  NO
Zero-Field splitting spin-orbit         ...  NO
Zero-field splitting spin-spin          ...  NO
Hyperfine couplings                     ...  NO (   0 nuclei)
Quadrupole couplings                    ...  NO (   0 nuclei)
Contact density                         ...  NO (   0 nuclei)

NMR properties:
Chemical shifts                         ...  NO (   0 nuclei)
Spin-rotation constants                 ...  NO (   0 nuclei)
Spin-spin couplings                     ...  NO (   0 nuclei,    0 pairs)

Choice of magnetic origin               ... GIAO
Position of magnetic origin             ...     0.000000     0.000000     0.000000

Properties with geometric perturbations:
SCF Hessian                             ...  NO
IR spectrum                             ...  NO
VCD spectrum                            ...  NO
X-ray spectroscopy properties:
SCF XES/XAS/RIXS spectra                ...  NO


-------------
DIPOLE MOMENT
-------------

Method             : SCF
Type of density    : Electron Density
Multiplicity       :   1
Irrep              :   0
Energy             :  -386.2498114624480081 Eh
Relativity type    : 
Basis              : AO
                                X                 Y                 Z
Electronic contribution:      3.746797996       2.592776187       0.411518845
Nuclear contribution   :     -3.456355735      -3.153170746       0.433519463
                        -----------------------------------------
Total Dipole Moment    :      0.290442260      -0.560394559       0.845038308
                        -----------------------------------------
Magnitude (a.u.)       :      1.054745709
Magnitude (Debye)      :      2.680950533



--------------------
Rotational spectrum 
--------------------
 
Rotational constants in cm-1:             0.202809             0.028125             0.026798 
Rotational constants in MHz :          6080.057058           843.177049           803.371977 

Dipole components along the rotational axes: 
x,y,z [a.u.] :     0.246057    -1.020620    -0.101387 
x,y,z [Debye]:     0.625426    -2.594210    -0.257705 

 

Dipole moment calculation done in   0.0 sec 

Maximum memory used throughout the entire PROP-calculation: 13.7 MB

--------------------------------
SUGGESTED CITATIONS FOR THIS RUN
--------------------------------

Below you find a list of papers that are relevant to this ORCA run
We neither can nor want to force you to cite these papers, but we appreciate if you do
You receive ORCA, which is the product of decades of hard work by many enthusiastic individuals, for free
The only thing we kindly ask in return is that you cite our papers,
We deeply appreciate it, if you show your appreciation for ORCA by not just citing the generic ORCA reference.

Please note that relegating all ORCA citations to the supporting information does *not* help us.
SI sections are not indexed - citations you put there will not count into any citation statistics
But we need these citations in order to attract the funding resources that allow us to do what we are doing

Therefore, if you are a happy ORCA user, please consider citing a few of the papers listed below in the main body of your paper

In addition to the list printed below, the program has created the file xtb_opt.bibtex that contains the list in bibtex format
You can import this file easily into all common literature databanks and citation aid programs


List of essential papers. We consider these as the minimum necessary citations

  1. Neese,F.
     Software update: the ORCA program system, version 5.0
     WIRES Comput. Molec. Sci., 2022 12(1)e1606
     doi.org/10.1002/wcms.1606
  2. Grimme,S.; Hansen,A.; Ehlert,S.; Mewes,J.
     r2SCAN-3c: A 'Swiss army knife' composite electronic-structure method
     J. Chem. Phys., 2021 154 064103
     doi.org/10.1063/5.0040021

List of papers to cite with high priority. The work reported in these papers was absolutely
necessary for this run to complete.
Our perspective: the developers of density functionals and basis sets usually get cited in chemistry papers
Good! But without the algorithms to do something with them, the functionals or basis sets would not do anything.
Hence, in our opinion, the algorithm design and method developments papers are equally worthy of getting cited

  1. Neese,F.
     An improvement of the resolution of the identity approximation for the formation of the Coulomb matrix
     J. Comp. Chem., 2003 24(14)1740-1747
     doi.org/10.1002/jcc.10318
  2. Garcia-Rates,M.; Neese,F.
     Effect of the Solute Cavity on the Solvation Energy and its Derivatives within the Framework of the Gaussian Charge Scheme
     J. Comput. Chem., 2020 41 922-939
     doi.org/10.1002/jcc.26139
  3. Neese,F.
     The SHARK Integral Generation and Digestion System
     J. Comp. Chem., 2022  1-16
     doi.org/10.1002/jcc.26942
  4. Lehtola,S.; Steigemann,C.; Oliveira,M.; Marques,M.
     Recent developments in Libxc - A comprehensive library of functionals for density functional theory
     Software X, 2018 7 
     doi.org/10.1016/j.softx.2017.11.002
  5. Caldeweyher,E.; Bannwarth,C.; Grimme,S.
     Extension of the D3 dispersion coefficient model
     J. Chem. Phys., 2017 147 034112-XXXX
     doi.org/10.1063/1.4993215
  6. Caldeweyher,E.; Ehlert,S.; Hansen,A.; Neugebauer,H.; Spicher,S.; Bannwarth,C.; Grimme,S.
     A generally applicable atomic-charge dependent London dispersion correction
     J. Chem. Phys., 2019 150 154122-XXXX
     doi.org/10.1063/1.5090222
  7. Caldeweyher,E.; Mewes,J.; Ehlert,S.; Grimme,S.
     Extension and evaluation of the D4 London-dispersion model for periodic systems
     Phys. Chem. Chem. Phys., 2020 22(16)8499-8512
     doi.org/10.1039/D0CP00502A

List of suggested additional citations. These are papers that are important in the 'surrounding' of 
of this run, or papers that preceded the highly important papers. If you like your results we are grateful for a citation.

  1. Neese,F.
     The ORCA program system
     WIRES Comput. Molec. Sci., 2012 2(1)73-78
     doi.org/10.1002/wcms.81
  2. Neese,F.
     Software update: the ORCA program system, version 4.0
     WIRES Comput. Molec. Sci., 2018 8(1)1-6
     doi.org/10.1002/wcms.1327
  3. Neese,F.; Wennmohs,F.; Becker,U.; Riplinger,C.
     The ORCA quantum chemistry program package
     J. Chem. Phys., 2020 152 Art. No. L224108
     doi.org/10.1063/5.0004608

List of optional additional citations

  1. Neese,F.
     Approximate second-order SCF convergence for spin unrestricted wavefunctions
     Chem. Phys. Lett., 2000 325(1-3)93-98
     doi.org/10.1016/s0009-2614(00)00662-x

Timings for individual modules:

Sum of individual times          ...       23.630 sec (=   0.394 min)
Startup calculation              ...        1.414 sec (=   0.024 min)   6.0 %
SCF iterations                   ...       10.404 sec (=   0.173 min)  44.0 %
Property calculations            ...        0.123 sec (=   0.002 min)   0.5 %
SCF Gradient evaluation          ...       11.689 sec (=   0.195 min)  49.5 %
                             ****ORCA TERMINATED NORMALLY****
TOTAL RUN TIME: 0 days 0 hours 0 minutes 24 seconds 746 msec
  ------------------------------------------------------------------------
          * successful ORCA run, taking over control again...

         :::::::::::::::::::::::::::::::::::::::::::::::::::::
         ::                  ORCA SUMMARY                   ::
         :::::::::::::::::::::::::::::::::::::::::::::::::::::
         :: total energy            -386.243210238594 Eh    ::
         :: gradient norm              0.000610652218 Eh/a0 ::
         :: HOMO-LUMO gap              0.000000000000 eV    ::
         :::::::::::::::::::::::::::::::::::::::::::::::::::::

           -------------------------------------------------
          |                Property Printout                |
           -------------------------------------------------
           -------------------------------------------------
          |                Geometry Summary                 |
           -------------------------------------------------

      molecular mass/u    :      116.1585142
   center of mass at/Å    :        0.0084456       0.0166108       0.0395233
  moments of inertia/u·Å² :        0.8312013E+02   0.5993588E+03   0.6290574E+03
rotational constants/cm⁻¹ :        0.2028105E+00   0.2812611E-01   0.2679824E-01

 * 17 selected distances

     #   Z          #   Z                                           value/Å
     1   6 C        2   6 C                                       1.5255164 (max)
     2   6 C        3   6 C                                       1.5240812
     4   6 C        5   8 O                                       1.2197718
     4   6 C        6   8 O                                       1.3493574
     7   6 C        8   6 C                                       1.5114641
     1   6 C        9   1 H                                       1.0943321
     1   6 C       10   1 H                                       1.0957239
     1   6 C       11   1 H                                       1.0956727
     2   6 C       12   1 H                                       1.0963077
     2   6 C       13   1 H                                       1.0956467
     3   6 C       14   1 H                                       1.0988920
     3   6 C       15   1 H                                       1.0963965
     7   6 C       16   1 H                                       1.0930150
     7   6 C       17   1 H                                       1.0917714 (min)
     8   6 C       18   1 H                                       1.0933631
     8   6 C       19   1 H                                       1.0946559
     8   6 C       20   1 H                                       1.0938795

 * 3 distinct bonds (by element types)

   Z      Z             #   av. dist./Å        max./Å        min./Å
   1 H    6 C          12     1.0949714     1.0988920     1.0917714
   6 C    6 C           3     1.5203539     1.5255164     1.5114641
   6 C    8 O           2     1.2845646     1.3493574     1.2197718


optimized geometry written to: xtbopt.coord


           -------------------------------------------------
          | TOTAL ENERGY             -386.243210238594 Eh   |
          | GRADIENT NORM               0.000610652218 Eh/α |
           -------------------------------------------------

------------------------------------------------------------------------
 * finished run on 2025/04/11 at 17:06:38.282     
------------------------------------------------------------------------
 total:
 * wall-time:     0 d,  0 h,  3 min, 30.113 sec
 *  cpu-time:     0 d,  0 h,  0 min,  1.322 sec
 * ratio c/w:     0.006 speedup
 SCF:
 * wall-time:     0 d,  0 h,  0 min, 24.113 sec
 *  cpu-time:     0 d,  0 h,  0 min,  0.100 sec
 * ratio c/w:     0.004 speedup
 ANC optimizer:
 * wall-time:     0 d,  0 h,  3 min,  5.863 sec
 *  cpu-time:     0 d,  0 h,  0 min,  1.201 sec
 * ratio c/w:     0.006 speedup

