
                                 *****************
                                 * O   R   C   A *
                                 *****************

                                            #,                                       
                                            ###                                      
                                            ####                                     
                                            #####                                    
                                            ######                                   
                                           ########,                                 
                                     ,,################,,,,,                         
                               ,,#################################,,                 
                          ,,##########################################,,             
                       ,#########################################, ''#####,          
                    ,#############################################,,   '####,        
                  ,##################################################,,,,####,       
                ,###########''''           ''''###############################       
              ,#####''   ,,,,##########,,,,          '''####'''          '####       
            ,##' ,,,,###########################,,,                        '##       
           ' ,,###''''                  '''############,,,                           
         ,,##''                                '''############,,,,        ,,,,,,###''
      ,#''                                            '''#######################'''  
     '                                                          ''''####''''         
             ,#######,   #######,   ,#######,      ##                                
            ,#'     '#,  ##    ##  ,#'     '#,    #''#        ,####,   ,####,        
            ##       ##  ##   ,#'  ##            #'  '#       #'       #'  '#        
            ##       ##  #######   ##           ,######,      #####,   #    #        
            '#,     ,#'  ##    ##  '#,     ,#' ,#      #,     #,   #   #,  ,#        
             '#######'   ##     ##  '#######'  #'      '#     '####' # '####'        



                #########################################################
                #                        -***-                          #
                #          Department of theory and spectroscopy        #
                #                                                       #
                #                      Frank Neese                      #
                #                                                       #
                #     Directorship, Architecture, Infrastructure        #
                #                    SHARK, DRIVERS                     #
                #        Core code/Algorithms in most modules           #
                #                                                       #
                #        Max Planck Institute fuer Kohlenforschung      #
                #                Kaiser Wilhelm Platz 1                 #
                #                 D-45470 Muelheim/Ruhr                 #
                #                      Germany                          #
                #                                                       #
                #                  All rights reserved                  #
                #                        -***-                          #
                #########################################################


                         Program Version 6.0.0  -   RELEASE  -


 With contributions from (in alphabetic order):
   Daniel Aravena         : Magnetic Suceptibility
   Michael Atanasov       : Ab Initio Ligand Field Theory (pilot matlab implementation)
   Alexander A. Auer      : GIAO ZORA, VPT2 properties, NMR spectrum
   Ute Becker             : All parallelization in ORCA, NUMFREQ, NUMCALC
   Giovanni Bistoni       : ED, misc. LED, open-shell LED, HFLD
   Martin Brehm           : Molecular dynamics
   Dmytro Bykov           : pre 5.0 version of the SCF Hessian
   Marcos Casanova-Páez   : Triplet and SCS-CIS(D). UHF-(DLPNO)-IP/EA/STEOM-CCSD. UHF-CVS-IP/STEOM-CCSD
   Vijay G. Chilkuri      : MRCI spin determinant printing, contributions to CSF-ICE
   Pauline Colinet        : FMM embedding
   Dipayan Datta          : RHF DLPNO-CCSD density
   Achintya Kumar Dutta   : EOM-CC, STEOM-CC
   Nicolas Foglia         : Exact transition moments, OPA infrastructure, MCD improvements
   Dmitry Ganyushin       : Spin-Orbit,Spin-Spin,Magnetic field MRCI
   Miquel Garcia          : C-PCM and meta-GGA Hessian, CCSD/C-PCM, Gaussian charge scheme
   Tiago L. C. Gouveia    : GS-ROHF, GS-ROCIS
   Yang Guo               : DLPNO-NEVPT2, F12-NEVPT2, CIM, IAO-localization
   Andreas Hansen         : Spin unrestricted coupled pair/coupled cluster methods
   Ingolf Harden          : AUTO-CI MPn and infrastructure 
   Benjamin Helmich-Paris : MC-RPA, TRAH-(SCF,CASSCF), AVAS, COSX integrals, SCF dyn. polar.
   Lee Huntington         : MR-EOM, pCC
   Robert Izsak           : Overlap fitted RIJCOSX, COSX-SCS-MP3, EOM
   Riya Kayal             : Wick's Theorem for AUTO-CI, AUTO-CI UHF-CCSDT
   Emily Kempfer          : AUTO-CI, RHF CISDT and CCSDT
   Christian Kollmar      : KDIIS, OOCD, Brueckner-CCSD(T), CCSD density, CASPT2, CASPT2-K, improved NEVPT2
   Axel Koslowski         : Symmetry handling
   Simone Kossmann        : Meta GGA functionals, TD-DFT gradient, OOMP2, (MP2 Hessian; deprecated post 5.0)
   Lucas Lang             : DCDCAS
   Marvin Lechner         : AUTO-CI (C++ implementation), FIC-MRCC
   Spencer Leger          : CASSCF response
   Dagmar Lenk            : GEPOL surface, SMD, ORCA-2-JSON
   Dimitrios Liakos       : Extrapolation schemes; Compound Job, initial MDCI parallelization
   Dimitrios Manganas     : Further ROCIS development; embedding schemes. LFT, Crystal Embedding
   Dimitrios Pantazis     : SARC Basis sets
   Anastasios Papadopoulos: AUTO-CI, single reference methods and gradients
   Taras Petrenko         : pre 6.0 DFT Hessian and TD-DFT gradient, (ASA, deprecated), ECA, 1-Electron XAS/XES, NRVS
   Peter Pinski           : DLPNO-MP2, DLPNO-MP2 Gradient
   Christoph Reimann      : Effective Core Potentials
   Marius Retegan         : Local ZFS, SOC
   Christoph Riplinger    : Optimizer, TS searches, QM/MM, DLPNO-CCSD(T), (RO)-DLPNO pert. Triples
   Michael Roemelt        : Original ROCIS implementation
   Masaaki Saitow         : Open-shell DLPNO-CCSD energy and density
   Barbara Sandhoefer     : DKH picture change effects
   Kantharuban Sivalingam : CASSCF convergence/infrastructure, NEVPT2 and variants, FIC-MRCI
   Bernardo de Souza      : ESD, SOC TD-DFT
   Georgi Stoychev        : AutoAux, RI-MP2 NMR, DLPNO-MP2 response, X2C
   Van Anh Tran           : RI-MP2 g-tensors
   Willem Van den Heuvel  : Paramagnetic NMR
   Zikuan Wang            : NOTCH, Electric field optimization 
   Frank Wennmohs         : Technical directorship and infrastructure
   Hang Xu                : AUTO-CI-Response properties 


 We gratefully acknowledge several colleagues who have allowed us to
 interface, adapt or use parts of their codes:
   Stefan Grimme, W. Hujo, H. Kruse, P. Pracht,  : VdW corrections, initial TS optimization,
                  C. Bannwarth, S. Ehlert,         DFT functionals, gCP, sTDA/sTD-DF
                  L. Wittmann, M. Mueller
   Ed Valeev, F. Pavosevic, A. Kumar             : LibInt (2-el integral package), F12 methods
   Garnet Chan, S. Sharma, J. Yang, R. Olivares  : DMRG
   Ulf Ekstrom                                   : XCFun DFT Library
   Mihaly Kallay                                 : mrcc  (arbitrary order and MRCC methods)
   Frank Weinhold                                : gennbo (NPA and NBO analysis)
   Simon Mueller                                 : openCOSMO-RS
   Christopher J. Cramer and Donald G. Truhlar   : smd solvation model
   Lars Goerigk                                  : TD-DFT with DH, B97 family of functionals
   V. Asgeirsson, H. Jonsson                     : NEB implementation
   FAccTs GmbH                                   : IRC, NEB, NEB-TS, DLPNO-Multilevel, CI-OPT
                                                   MM, QMMM, 2- and 3-layer-ONIOM, Crystal-QMMM,
                                                   LR-CPCM, SF, NACMEs, symmetry and pop. for TD-DFT,
                                                   nearIR, NL-DFT gradient (VV10), updates on ESD,
                                                   ML-optimized integration grids, MBIS, APM,
                                                   GOAT, DOCKER, SOLVATOR, interface openCOSMO-RS
   S Lehtola, MJT Oliveira, MAL Marques          : LibXC Library
   Liviu Ungur et al                             : ANISO software


 Your calculation uses the libint2 library for the computation of 2-el integrals
 For citations please refer to: http://libint.valeyev.net

 Your ORCA version has been built with support for libXC version: 6.2.2
 For citations please refer to: https://libxc.gitlab.io

 This ORCA versions uses:
   CBLAS   interface :  Fast vector & matrix operations
   LAPACKE interface :  Fast linear algebra routines
   SCALAPACK package :  Parallel linear algebra routines
   Shared memory     :  Shared parallel matrices
   BLAS/LAPACK       :  OpenBLAS 0.3.27  USE64BITINT DYNAMIC_ARCH NO_AFFINITY SkylakeX SINGLE_THREADED
        Core in use  :  SkylakeX
   Copyright (c) 2011-2014, The OpenBLAS Project


Your calculation utilizes the geometrical counterpoise correction gCP
Please cite in your paper:
H.Kruse, S. Grimme J.Chem.Phys., 136, (2012), 154101 
   

Your calculation utilizes the atom-pairwise dispersion correction
based on EEQ partial charges (D4)


================================================================================

----- Orbital basis set information -----
Your calculation utilizes the basis: def2-mTZVPP
   Stefan Grimme, Andreas Hansen, Sebastian Ehlert, and Jan-Michael Mewes 
   J. Chem. Phys. 154, 064103 (2021). DOI: 10.1063/5.0040021

----- AuxJ basis set information -----
Your calculation utilizes the auxiliary basis: def2/J
   F. Weigend, Phys. Chem. Chem. Phys. 8, 1057 (2006).

================================================================================
                                        WARNINGS
                       Please study these warnings very carefully!
================================================================================

Using LibXC functional ID 497 : Re-regularized SCAN exchange by Furness et al
[ 1]  J. W. Furness, A. D. Kaplan, J. Ning, J. P. Perdew, and J. Sun.,  J. Phys. Chem. Lett. 11, 8208-8215 (2020)
[ 2]  J. W. Furness, A. D. Kaplan, J. Ning, J. P. Perdew, and J. Sun.,  J. Phys. Chem. Lett. 11, 9248-9248 (2020)
Using LibXC functional ID 498 : Re-regularized SCAN correlation by Furness et al
[ 1]  J. W. Furness, A. D. Kaplan, J. Ning, J. P. Perdew, and J. Sun.,  J. Phys. Chem. Lett. 11, 8208-8215 (2020)
[ 2]  J. W. Furness, A. D. Kaplan, J. Ning, J. P. Perdew, and J. Sun.,  J. Phys. Chem. Lett. 11, 9248-9248 (2020)
Using LibXC functional ID 497 : Re-regularized SCAN exchange by Furness et al
[ 1]  J. W. Furness, A. D. Kaplan, J. Ning, J. P. Perdew, and J. Sun.,  J. Phys. Chem. Lett. 11, 8208-8215 (2020)
[ 2]  J. W. Furness, A. D. Kaplan, J. Ning, J. P. Perdew, and J. Sun.,  J. Phys. Chem. Lett. 11, 9248-9248 (2020)
Using LibXC functional ID 498 : Re-regularized SCAN correlation by Furness et al
[ 1]  J. W. Furness, A. D. Kaplan, J. Ning, J. P. Perdew, and J. Sun.,  J. Phys. Chem. Lett. 11, 8208-8215 (2020)
[ 2]  J. W. Furness, A. D. Kaplan, J. Ning, J. P. Perdew, and J. Sun.,  J. Phys. Chem. Lett. 11, 9248-9248 (2020)

================================================================================
                                       INPUT FILE
================================================================================
NAME = sp_gas.inp
|  1> ! r2scan-3c def2/J RI DEFGRID2 scfconv6 printgap
|  2> %output
|  3>     printlevel normal
|  4> end
|  5> * xyz 0 1
|  6> C 1.5919307922 -0.8460277538 -0.4438105659
|  7> C 1.3024672511 0.5697201228 0.0385326548
|  8> C 0.0162720039 0.6709133859 0.8596436395
|  9> C -1.266410194 0.551641019 0.0337622554
| 10> N -1.4915132517 -0.807257894 -0.4431143206
| 11> H 1.7394339458 -1.511572095 0.4039647965
| 12> H 0.7570791689 -1.2150992485 -1.0311353172
| 13> H 2.4925804783 -0.8615274372 -1.0530607944
| 14> H 2.1359628754 0.9159545467 0.655131378
| 15> H 1.2276656465 1.2384420703 -0.8213609274
| 16> H 0.0179304567 -0.1023414454 1.6312590709
| 17> H -0.0037859112 1.6416873378 1.3600545905
| 18> H -1.1926381367 1.1991513815 -0.8450255711
| 19> H -2.1060458552 0.9218878857 0.6499066947
| 20> H -2.363514163 -0.8483612552 -0.9581992663
| 21> H -1.5716458196 -1.4361152397 0.3494358189
| 22> *
| 23> 
| 24>                          ****END OF INPUT****
================================================================================

                       ****************************
                       * Single Point Calculation *
                       ****************************

---------------------------------
CARTESIAN COORDINATES (ANGSTROEM)
---------------------------------
  C      1.591931   -0.846028   -0.443811
  C      1.302467    0.569720    0.038533
  C      0.016272    0.670913    0.859644
  C     -1.266410    0.551641    0.033762
  N     -1.491513   -0.807258   -0.443114
  H      1.739434   -1.511572    0.403965
  H      0.757079   -1.215099   -1.031135
  H      2.492580   -0.861527   -1.053061
  H      2.135963    0.915955    0.655131
  H      1.227666    1.238442   -0.821361
  H      0.017930   -0.102341    1.631259
  H     -0.003786    1.641687    1.360055
  H     -1.192638    1.199151   -0.845026
  H     -2.106046    0.921888    0.649907
  H     -2.363514   -0.848361   -0.958199
  H     -1.571646   -1.436115    0.349436

----------------------------
CARTESIAN COORDINATES (A.U.)
----------------------------
  NO LB      ZA    FRAG     MASS         X           Y           Z
   0 C     6.0000    0    12.011    3.008313   -1.598761   -0.838680
   1 C     6.0000    0    12.011    2.461306    1.076615    0.072816
   2 C     6.0000    0    12.011    0.030750    1.267843    1.624491
   3 C     6.0000    0    12.011   -2.393168    1.042450    0.063801
   4 N     7.0000    0    14.007   -2.818552   -1.525496   -0.837365
   5 H     1.0000    0     1.008    3.287054   -2.856457    0.763383
   6 H     1.0000    0     1.008    1.430672   -2.296205   -1.948563
   7 H     1.0000    0     1.008    4.710294   -1.628051   -1.989997
   8 H     1.0000    0     1.008    4.036385    1.730903    1.238019
   9 H     1.0000    0     1.008    2.319952    2.340316   -1.552147
  10 H     1.0000    0     1.008    0.033884   -0.193397    3.082633
  11 H     1.0000    0     1.008   -0.007154    3.102339    2.570131
  12 H     1.0000    0     1.008   -2.253759    2.266068   -1.596867
  13 H     1.0000    0     1.008   -3.979850    1.742116    1.228146
  14 H     1.0000    0     1.008   -4.466394   -1.603170   -1.810734
  15 H     1.0000    0     1.008   -2.969980   -2.713864    0.660338

--------------------------------
INTERNAL COORDINATES (ANGSTROEM)
--------------------------------
 C      0   0   0     0.000000000000     0.00000000     0.00000000
 C      1   0   0     1.523412673664     0.00000000     0.00000000
 C      2   1   0     1.529300997061   113.03526291     0.00000000
 C      3   2   1     1.530222068498   114.20752333   286.93551221
 N      4   3   2     1.457631267185   112.25229519    71.86525411
 H      1   2   3     1.087855466281   110.33911558   297.61051413
 H      1   2   3     1.085422205695   109.94835419    57.29847453
 H      1   2   3     1.087472270076   110.36487932   177.83455130
 H      2   1   3     1.093063226658   109.15271501   120.85581378
 H      2   1   3     1.091879707581   109.44086477   238.38260107
 H      3   2   1     1.092390112812   109.33799695    49.49120724
 H      3   2   1     1.092344041741   108.67595080   166.90441185
 H      4   3   2     1.094065825254   109.32114609   312.77216528
 H      4   3   2     1.105307539077   108.04639735   196.06714298
 H      5   4   3     1.013601290891   109.68902723   178.18036072
 H      5   4   3     1.014898277317   109.53397124    60.19076652

---------------------------
INTERNAL COORDINATES (A.U.)
---------------------------
 C      0   0   0     0.000000000000     0.00000000     0.00000000
 C      1   0   0     2.878832742169     0.00000000     0.00000000
 C      2   1   0     2.889960060778   113.03526291     0.00000000
 C      3   2   1     2.891700633544   114.20752333   286.93551221
 N      4   3   2     2.754523899221   112.25229519    71.86525411
 H      1   2   3     2.055748904561   110.33911558   297.61051413
 H      1   2   3     2.051150708441   109.94835419    57.29847453
 H      1   2   3     2.055024768678   110.36487932   177.83455130
 H      2   1   3     2.065590145444   109.15271501   120.85581378
 H      2   1   3     2.063353618515   109.44086477   238.38260107
 H      3   2   1     2.064318144618   109.33799695    49.49120724
 H      3   2   1     2.064231082911   108.67595080   166.90441185
 H      4   3   2     2.067484782212   109.32114609   312.77216528
 H      4   3   2     2.088728542614   108.04639735   196.06714298
 H      5   4   3     1.915428848774   109.68902723   178.18036072
 H      5   4   3     1.917879797917   109.53397124    60.19076652

---------------------
BASIS SET INFORMATION
---------------------
There are 3 groups of distinct atoms

 Group   1 Type C   : 11s6p1d contracted to 5s3p1d pattern {62111/411/1}
 Group   2 Type N   : 11s6p2d contracted to 5s3p2d pattern {62111/411/11}
 Group   3 Type H   : 4s1p contracted to 2s1p pattern {31/1}

Atom   0C    basis set group =>   1
Atom   1C    basis set group =>   1
Atom   2C    basis set group =>   1
Atom   3C    basis set group =>   1
Atom   4N    basis set group =>   2
Atom   5H    basis set group =>   3
Atom   6H    basis set group =>   3
Atom   7H    basis set group =>   3
Atom   8H    basis set group =>   3
Atom   9H    basis set group =>   3
Atom  10H    basis set group =>   3
Atom  11H    basis set group =>   3
Atom  12H    basis set group =>   3
Atom  13H    basis set group =>   3
Atom  14H    basis set group =>   3
Atom  15H    basis set group =>   3
---------------------------------
AUXILIARY/J BASIS SET INFORMATION
---------------------------------
There are 3 groups of distinct atoms

 Group   1 Type C   : 12s5p4d2f1g contracted to 6s4p3d1f1g pattern {711111/2111/211/2/1}
 Group   2 Type N   : 12s5p4d2f1g contracted to 6s4p3d1f1g pattern {711111/2111/211/2/1}
 Group   3 Type H   : 5s2p1d contracted to 3s1p1d pattern {311/2/1}

Atom   0C    basis set group =>   1
Atom   1C    basis set group =>   1
Atom   2C    basis set group =>   1
Atom   3C    basis set group =>   1
Atom   4N    basis set group =>   2
Atom   5H    basis set group =>   3
Atom   6H    basis set group =>   3
Atom   7H    basis set group =>   3
Atom   8H    basis set group =>   3
Atom   9H    basis set group =>   3
Atom  10H    basis set group =>   3
Atom  11H    basis set group =>   3
Atom  12H    basis set group =>   3
Atom  13H    basis set group =>   3
Atom  14H    basis set group =>   3
Atom  15H    basis set group =>   3

Checking for AutoStart:
The File: sp_gas.gbw exists
Trying to determine its content:
     ... Fine, the file contains calculation information
     ... Fine, the calculation information was read
     ... Fine, the file contains a basis set
     ... Fine, the basis set was read
     ... Fine, the file contains a geometry
     ... Fine, the geometry was read
     ... Fine, the file contains a set of orbitals
     ... Fine, the orbitals can be read
     => possible old guess file was deleted
     => GBW file was renamed to GES file
     => GES file is set as startup file
     => Guess is set to MORead
     ... now leaving AutoStart

------------------------------------------------------------------------------
                             ORCA STARTUP CALCULATIONS
                           -- RI-GTO INTEGRALS CHOSEN --
------------------------------------------------------------------------------
------------------------------------------------------------------------------
                   ___                                                        
                  /   \      - P O W E R E D   B Y -                         
                 /     \                                                     
                 |  |  |   _    _      __       _____    __    __             
                 |  |  |  | |  | |    /  \     |  _  \  |  |  /  |          
                  \  \/   | |  | |   /    \    | | | |  |  | /  /          
                 / \  \   | |__| |  /  /\  \   | |_| |  |  |/  /          
                |  |  |   |  __  | /  /__\  \  |    /   |      \           
                |  |  |   | |  | | |   __   |  |    \   |  |\   \          
                \     /   | |  | | |  |  |  |  | |\  \  |  | \   \       
                 \___/    |_|  |_| |__|  |__|  |_| \__\ |__|  \__/        
                                                                              
                      - O R C A' S   B I G   F R I E N D -                    
                                      &                                       
                       - I N T E G R A L  F E E D E R -                       
                                                                              
 v1 FN, 2020, v2 2021, v3 2022-2024                                           
------------------------------------------------------------------------------


----------------------
SHARK INTEGRAL PACKAGE
----------------------

Number of atoms                             ...     16
Number of basis functions                   ...    155
Number of shells                            ...     79
Maximum angular momentum                    ...      2
Integral batch strategy                     ... SHARK/LIBINT Hybrid
RI-J (if used) integral strategy            ... SPLIT-RIJ (Revised 2003 algorithm where possible)
Printlevel                                  ...      1
Contraction scheme used                     ... SEGMENTED contraction
Prescreening option                         ... SCHWARTZ
   Thresh                                   ... 1.000e-10
   Tcut                                     ... 1.000e-11
   Tpresel                                  ... 1.000e-11 
Coulomb Range Separation                    ... NOT USED
Exchange Range Separation                   ... NOT USED
Multipole approximations                    ... NOT USED
Finite Nucleus Model                        ... NOT USED
CABS basis                                  ... NOT available
Auxiliary Coulomb fitting basis             ... AVAILABLE
   # of basis functions in Aux-J            ...    366
   # of shells in Aux-J                     ...    130
   Maximum angular momentum in Aux-J        ...      4
Auxiliary J/K fitting basis                 ... NOT available
Auxiliary Correlation fitting basis         ... NOT available
Auxiliary 'external' fitting basis          ... NOT available

Checking pre-screening integrals            ... done (  0.0 sec) Dimension = 79
Check shell pair data                       ... done (  0.0 sec)
Shell pair information
Shell pair cut-off parameter TPreSel        ...   1.0e-11
Total number of shell pairs                 ...      3160
Shell pairs after pre-screening             ...      3023
Total number of primitive shell pairs       ...     10874
Primitive shell pairs kept                  ...      7857
          la=0 lb=0:   1070 shell pairs
          la=1 lb=0:   1165 shell pairs
          la=1 lb=1:    334 shell pairs
          la=2 lb=0:    278 shell pairs
          la=2 lb=1:    155 shell pairs
          la=2 lb=2:     21 shell pairs

Calculating one electron integrals          ... done (  0.0 sec)
Calculating RI/J V-Matrix + Cholesky decomp.... done (  0.1 sec)
Calculating Nuclear repulsion               ... done (  0.0 sec) ENN=    193.557428663981 Eh

Diagonalization of the overlap matrix:
Smallest eigenvalue                        ... 2.829e-04
Time for diagonalization                   ...    0.002 sec
Threshold for overlap eigenvalues          ... 1.000e-07
Number of eigenvalues below threshold      ... 0
Time for construction of square roots      ...    0.014 sec
Total time needed                          ...    0.027 sec

-------------------
DFT GRID GENERATION
-------------------

General Integration Accuracy     IntAcc      ... 4.388
Radial Grid Type                 RadialGrid  ... OptM3 with GC (2021)
Angular Grid (max. ang.)         AngularGrid ... 4 (Lebedev-302)
Angular grid pruning method      GridPruning ... 4 (adaptive)
Weight generation scheme         WeightScheme... mBecke (2022)
Basis function cutoff            BFCut       ... 1.0000e-10
Integration weight cutoff        WCut        ... 1.0000e-14
Partially contracted basis set               ... off
Rotationally invariant grid construction     ... off
Angular grids for H and He will be reduced by one unit

Total number of grid points                  ...    65437
Total number of batches                      ...     1032
Average number of points per batch           ...       63
Average number of grid points per atom       ...     4090
Initializing property integral containers    ... done (  0.0 sec)

SHARK setup successfully completed in   1.0 seconds

Maximum memory used throughout the entire STARTUP-calculation: 27.3 MB
-------------------------------------------------------------------------------
                                 ORCA GUESS
                   Start orbitals & Density for SCF / CASSCF
-------------------------------------------------------------------------------

------------
SCF SETTINGS
------------
Hamiltonian:
 Density Functional     Method          .... DFT(GTOs)
  Functional kind                       .... Exchange
  Functional name                       .... Re-regularized SCAN exchange by Furness et al
  Functional family                     .... MGGA
  Functional refs                              
    [ 0] J. W. Furness, A. D. Kaplan, J. Ning, J. P. Perdew, and J. Sun.,  J. Phys. Chem. Lett. 11, 8208-8215 (2020), doi: 10.1021/acs.jpclett.0c02405
    [ 1] J. W. Furness, A. D. Kaplan, J. Ning, J. P. Perdew, and J. Sun.,  J. Phys. Chem. Lett. 11, 9248-9248 (2020), doi: 10.1021/acs.jpclett.0c03077
  Functional external parameters        .... 6
    Parameter  0 _c1        =  6.670000e-01 : c1 parameter        
    Parameter  1 _c2        =  8.000000e-01 : c2 parameter        
    Parameter  2 _d         =  1.240000e+00 : d parameter         
    Parameter  3 _k1        =  6.500000e-02 : k1 parameter        
    Parameter  4 _eta       =  1.000000e-03 : eta parameter       
    Parameter  5 _dp2       =  3.610000e-01 : dp2 parameter       
  Functional kind                       .... Correlation
  Functional name                       .... Re-regularized SCAN correlation by Furness et al
  Functional family                     .... MGGA
  Functional refs                              
    [ 0] J. W. Furness, A. D. Kaplan, J. Ning, J. P. Perdew, and J. Sun.,  J. Phys. Chem. Lett. 11, 8208-8215 (2020), doi: 10.1021/acs.jpclett.0c02405
    [ 1] J. W. Furness, A. D. Kaplan, J. Ning, J. P. Perdew, and J. Sun.,  J. Phys. Chem. Lett. 11, 9248-9248 (2020), doi: 10.1021/acs.jpclett.0c03077
  Functional external parameters        .... 1
    Parameter  0 _eta       =  1.000000e-03 : Regularization parameter
 Gradients option       PostSCFGGA      .... off
 RI-approximation to the Coulomb term is turned on
   Number of AuxJ basis functions       .... 366


General Settings:
 Integral files         IntName         .... sp_gas
 Hartree-Fock type      HFTyp           .... RHF
 Total Charge           Charge          ....    0
 Multiplicity           Mult            ....    1
 Number of Electrons    NEL             ....   42
 Basis Dimension        Dim             ....  155
 Nuclear Repulsion      ENuc            ....    193.5574286640 Eh

Convergence Acceleration:
 AO-DIIS                CNVDIIS         .... on
   Start iteration      DIISMaxIt       ....    12
   Startup error        DIISStart       ....  0.200000
   # of expansion vecs  DIISMaxEq       ....     5
   Bias factor          DIISBfac        ....   1.050
   Max. coefficient     DIISMaxC        ....  10.000
 MO-DIIS                CNVKDIIS        .... off
 Trust-Rad. Augm. Hess. CNVTRAH         .... auto
   Auto Start mean grad. ratio tolernc. ....  1.125000
   Auto Start start iteration           ....     1
   Auto Start num. interpolation iter.  ....    10
   Max. Number of Micro iterations      ....    24
   Max. Number of Macro iterations      .... Maxiter - #DIIS iter
   Number of Davidson start vectors     ....     2
   Converg. threshold    (grad. norm)   ....   3.330e-04
   Grad. Scal. Fac. for Micro threshold ....   0.100
   Minimum threshold for Micro iter.    ....   1.000e-02
   NR start threshold (gradient norm)   ....   1.000e-04
   Initial trust radius                 ....   0.400
   Minimum AH scaling param. (alpha)    ....   1.000
   Maximum AH scaling param. (alpha)    .... 1000.000
   Quad. conv. algorithm                .... NR
   White noise on init. David. guess    .... on
   Maximum white noise                  ....   0.010
   Pseudo random numbers                .... off
   Inactive MOs                         .... canonical
   Orbital update algorithm             .... Taylor
   Preconditioner                       .... Diag
   Full preconditioner red. dimension   ....   250
   COSX micro iterations for RIJONX calc.... off
 SOSCF                  CNVSOSCF        .... on
   Start iteration      SOSCFMaxIt      ....   150
   Startup grad/error   SOSCFStart      ....  0.003300
   Hessian update       SOSCFHessUp     .... L-BFGS
 Level Shifting         CNVShift        .... on
   Level shift para.    LevelShift      ....    0.2500
   Turn off err/grad.   ShiftErr        ....    0.0010
 Zerner damping         CNVZerner       .... off
 Static damping         CNVDamp         .... on
   Fraction old density DampFac         ....    0.7000
   Max. Damping (<1)    DampMax         ....    0.9800
   Min. Damping (>=0)   DampMin         ....    0.0000
   Turn off err/grad.   DampErr         ....    0.1000

SCF Procedure:
 Maximum # iterations   MaxIter         ....   125
 SCF integral mode      SCFMode         .... Direct
   Integral package                     .... SHARK and LIBINT hybrid scheme
 Reset frequency        DirectResetFreq ....    20
 Integral Threshold     Thresh          ....  1.000e-10 Eh
 Primitive CutOff       TCut            ....  1.000e-11 Eh

Convergence Tolerance:
 Convergence Check Mode ConvCheckMode   .... Total+1el-Energy
 Convergence forced     ConvForced      .... 0
 Energy Change          TolE            ....  1.000e-06 Eh
 1-El. energy change                    ....  1.000e-03 Eh
 Orbital Gradient       TolG            ....  3.330e-04
 Orbital Rotation angle TolX            ....  3.330e-04
 DIIS Error             TolErr          ....  1.000e-06

---------------------
INITIAL GUESS: MOREAD
---------------------
Guess MOs are being read from file: sp_gas.ges
Input Geometry matches current geometry (good)
Atom 0: N(Shells)= 9 and 6 - projection required
Input basis set needs projection
NBasis(read)= 92
NBasis(calc)= 155
Basis set overlap was calculated
Using GuessMode=FMatrix for the initial guess
C*T matrix was formed
Effective Fockian was calculated
Effective Fockian was diagonalized
Initial density was built
                      ------------------
                      INITIAL GUESS DONE (   0.0 sec)
                      ------------------
             **** ENERGY FILE WAS UPDATED (sp_gas.en.tmp) ****
Finished Guess after   0.2 sec
Maximum memory used throughout the entire GUESS-calculation: 10.7 MB

-------------------------------------------------------------------------------------------
                                      ORCA LEAN-SCF
                              memory conserving SCF solver
-------------------------------------------------------------------------------------------

----------------------------------------D-I-I-S--------------------------------------------
Iteration    Energy (Eh)           Delta-E    RMSDP     MaxDP     DIISErr   Damp  Time(sec)
-------------------------------------------------------------------------------------------
               ***  Starting incremental Fock matrix formation  ***
    1    -213.6009531113680850     0.00e+00  3.83e-03  1.08e-01  4.43e-01  0.700   1.7
    2    -213.6382021297222877    -3.72e-02  3.13e-03  7.79e-02  3.11e-01  0.700   1.7
    3    -213.6646458000923303    -2.64e-02  2.30e-03  5.69e-02  2.18e-01  0.700   1.7
                               ***Turning on AO-DIIS***
    4    -213.6832210501772238    -1.86e-02  1.68e-03  4.12e-02  1.53e-01  0.700   1.7
    5    -213.6962555784314759    -1.30e-02  1.20e-03  2.92e-02  1.07e-01  0.700   1.6
    6    -213.7054009568383321    -9.15e-03  8.46e-04  2.05e-02  7.46e-02  0.700   1.6
    7    -213.7118143778410513    -6.41e-03  1.99e-03  4.80e-02  5.23e-02  0.000   1.5
                              *** Initializing SOSCF ***
---------------------------------------S-O-S-C-F--------------------------------------
Iteration    Energy (Eh)           Delta-E    RMSDP     MaxDP     MaxGrad    Time(sec)
--------------------------------------------------------------------------------------
    8    -213.7268157173575105    -1.50e-02  1.71e-05  2.91e-04  2.50e-04     1.6
               *** Restarting incremental Fock matrix formation ***
    9    -213.7268158735720931    -1.56e-07  1.10e-05  2.10e-04  4.82e-05     1.7
                  *** Gradient check signals convergence ***

               *****************************************************
               *                     SUCCESS                       *
               *           SCF CONVERGED AFTER   9 CYCLES          *
               *****************************************************

             **** ENERGY FILE WAS UPDATED (sp_gas.en.tmp) ****

----------------
TOTAL SCF ENERGY
----------------

Total Energy       :       -213.72681587357209 Eh           -5815.80233 eV

Components:
Nuclear Repulsion  :        193.55742866398072 Eh            5266.96540 eV
Electronic Energy  :       -407.28424453755281 Eh          -11082.76773 eV
One Electron Energy:       -670.44398050486564 Eh          -18243.70820 eV
Two Electron Energy:        263.15973596731283 Eh            7160.94047 eV

Virial components:
Potential Energy   :       -426.48032021491406 Eh          -11605.11951 eV
Kinetic Energy     :        212.75350434134194 Eh            5789.31718 eV
Virial Ratio       :          2.00457483196455

DFT components:
N(Alpha)           :       20.999948683610 electrons
N(Beta)            :       20.999948683610 electrons
N(Total)           :       41.999897367219 electrons
E(X)               :      -31.383906476651 Eh       
E(C)               :       -1.298920134880 Eh       
E(XC)              :      -32.682826611531 Eh       

---------------
SCF CONVERGENCE
---------------

  Last Energy change         ...    1.5621e-07  Tolerance :   1.0000e-06
  Last MAX-Density change    ...    2.0986e-04  Tolerance :   1.0000e-05
  Last RMS-Density change    ...    1.0984e-05  Tolerance :   1.0000e-06
  Last DIIS Error            ...    2.4969e-04  Tolerance :   1.0000e-06
  Last Orbital Gradient      ...    4.8245e-05  Tolerance :   3.3300e-04
  Last Orbital Rotation      ...    6.6160e-05  Tolerance :   3.3300e-04


----------------
ORBITAL ENERGIES
----------------

  NO   OCC          E(Eh)            E(eV) 
   0   2.0000     -14.134921      -384.6308 
   1   2.0000     -10.048866      -273.4435 
   2   2.0000     -10.021214      -272.6911 
   3   2.0000     -10.016027      -272.5500 
   4   2.0000      -9.996708      -272.0242 
   5   2.0000      -0.847473       -23.0609 
   6   2.0000      -0.744283       -20.2530 
   7   2.0000      -0.666922       -18.1479 
   8   2.0000      -0.584747       -15.9118 
   9   2.0000      -0.532519       -14.4906 
  10   2.0000      -0.453378       -12.3371 
  11   2.0000      -0.430769       -11.7218 
  12   2.0000      -0.418693       -11.3932 
  13   2.0000      -0.374100       -10.1798 
  14   2.0000      -0.371643       -10.1129 
  15   2.0000      -0.340345        -9.2613 
  16   2.0000      -0.319632        -8.6976 
  17   2.0000      -0.296169        -8.0592 
  18   2.0000      -0.293550        -7.9879 
  19   2.0000      -0.285087        -7.7576 
  20   2.0000      -0.200019        -5.4428 
  21   0.0000       0.075758         2.0615 
  22   0.0000       0.109577         2.9817 
  23   0.0000       0.123855         3.3703 
  24   0.0000       0.128136         3.4868 
  25   0.0000       0.129186         3.5153 
  26   0.0000       0.146123         3.9762 
  27   0.0000       0.159811         4.3487 
  28   0.0000       0.172303         4.6886 
  29   0.0000       0.174196         4.7401 
  30   0.0000       0.186712         5.0807 
  31   0.0000       0.206369         5.6156 
*Only the first 10 virtual orbitals were printed.

                    ********************************
                    * MULLIKEN POPULATION ANALYSIS *
                    ********************************

-----------------------
MULLIKEN ATOMIC CHARGES
-----------------------
   0 C :   -0.523895
   1 C :   -0.210479
   2 C :   -0.225365
   3 C :   -0.224582
   4 N :   -0.557420
   5 H :    0.135326
   6 H :    0.198527
   7 H :    0.136614
   8 H :    0.138838
   9 H :    0.125555
  10 H :    0.126735
  11 H :    0.141579
  12 H :    0.141157
  13 H :    0.121977
  14 H :    0.237661
  15 H :    0.237772
Sum of atomic charges:   -0.0000000

--------------------------------
MULLIKEN REDUCED ORBITAL CHARGES
--------------------------------
  0 C s       :     3.353542  s :     3.353542
      pz      :     1.082801  p :     3.143509
      px      :     1.118735
      py      :     0.941973
      dz2     :     0.002002  d :     0.026844
      dxz     :     0.006341
      dyz     :     0.007735
      dx2y2   :     0.006851
      dxy     :     0.003917

  1 C s       :     3.180192  s :     3.180192
      pz      :     1.036245  p :     2.993043
      px      :     0.991899
      py      :     0.964898
      dz2     :     0.003887  d :     0.037245
      dxz     :     0.008609
      dyz     :     0.009671
      dx2y2   :     0.009031
      dxy     :     0.006046

  2 C s       :     3.171428  s :     3.171428
      pz      :     0.990078  p :     3.017593
      px      :     0.916942
      py      :     1.110573
      dz2     :     0.003942  d :     0.036344
      dxz     :     0.009475
      dyz     :     0.008901
      dx2y2   :     0.010413
      dxy     :     0.003614

  3 C s       :     3.285710  s :     3.285710
      pz      :     1.030042  p :     2.889037
      px      :     1.016003
      py      :     0.842992
      dz2     :     0.005166  d :     0.049835
      dxz     :     0.009188
      dyz     :     0.013654
      dx2y2   :     0.011729
      dxy     :     0.010098

  4 N s       :     3.551963  s :     3.551963
      pz      :     1.358322  p :     3.969666
      px      :     1.473931
      py      :     1.137413
      dz2     :     0.005009  d :     0.035791
      dxz     :     0.003195
      dyz     :     0.011966
      dx2y2   :     0.013355
      dxy     :     0.002266

  5 H s       :     0.846363  s :     0.846363
      pz      :     0.007875  p :     0.018311
      px      :     0.003947
      py      :     0.006489

  6 H s       :     0.782006  s :     0.782006
      pz      :     0.005555  p :     0.019466
      px      :     0.009575
      py      :     0.004336

  7 H s       :     0.845060  s :     0.845060
      pz      :     0.006095  p :     0.018326
      px      :     0.008587
      py      :     0.003645

  8 H s       :     0.843375  s :     0.843375
      pz      :     0.005695  p :     0.017787
      px      :     0.007825
      py      :     0.004267

  9 H s       :     0.856544  s :     0.856544
      pz      :     0.008174  p :     0.017901
      px      :     0.003450
      py      :     0.006277

 10 H s       :     0.855285  s :     0.855285
      pz      :     0.007373  p :     0.017980
      px      :     0.003463
      py      :     0.007144

 11 H s       :     0.840613  s :     0.840613
      pz      :     0.005173  p :     0.017809
      px      :     0.003394
      py      :     0.009241

 12 H s       :     0.841408  s :     0.841408
      pz      :     0.008234  p :     0.017435
      px      :     0.003521
      py      :     0.005680

 13 H s       :     0.860899  s :     0.860899
      pz      :     0.005659  p :     0.017125
      px      :     0.007587
      py      :     0.003878

 14 H s       :     0.730208  s :     0.730208
      pz      :     0.010935  p :     0.032131
      px      :     0.015871
      py      :     0.005326

 15 H s       :     0.730335  s :     0.730335
      pz      :     0.013460  p :     0.031892
      px      :     0.007984
      py      :     0.010448


------------------------
MULLIKEN OVERLAP CHARGES
------------------------
B(  0-C ,  1-C ) :   0.4446 B(  0-C ,  2-C ) :  -0.2431 B(  0-C ,  5-H ) :   0.8504 
B(  0-C ,  6-H ) :   0.8827 B(  0-C ,  7-H ) :   0.7799 B(  0-C ,  8-H ) :  -0.0516 
B(  0-C ,  9-H ) :  -0.0561 B(  1-C ,  2-C ) :   0.4516 B(  1-C ,  3-C ) :  -0.2433 
B(  1-C ,  4-N ) :   0.0882 B(  1-C ,  5-H ) :  -0.1016 B(  1-C ,  6-H ) :  -0.1196 
B(  1-C ,  7-H ) :  -0.0639 B(  1-C ,  8-H ) :   0.8075 B(  1-C ,  9-H ) :   0.8335 
B(  1-C , 10-H ) :  -0.1256 B(  2-C ,  3-C ) :   0.5331 B(  2-C ,  4-N ) :  -0.2795 
B(  2-C ,  8-H ) :  -0.0892 B(  2-C ,  9-H ) :  -0.1045 B(  2-C , 10-H ) :   0.8490 
B(  2-C , 11-H ) :   0.7884 B(  2-C , 12-H ) :  -0.0540 B(  2-C , 13-H ) :  -0.1241 
B(  3-C ,  4-N ) :   0.2568 B(  3-C , 11-H ) :  -0.0824 B(  3-C , 12-H ) :   0.9052 
B(  3-C , 13-H ) :   0.8170 B(  4-N , 12-H ) :  -0.1496 B(  4-N , 13-H ) :  -0.0692 
B(  4-N , 14-H ) :   0.6412 B(  4-N , 15-H ) :   0.6840 B( 12-H , 13-H ) :  -0.0682 



                     *******************************
                     * LOEWDIN POPULATION ANALYSIS *
                     *******************************

----------------------
LOEWDIN ATOMIC CHARGES
----------------------
   0 C :   -0.433728
   1 C :   -0.314464
   2 C :   -0.289921
   3 C :   -0.075975
   4 N :   -0.750162
   5 H :    0.146089
   6 H :    0.173505
   7 H :    0.145008
   8 H :    0.149164
   9 H :    0.151524
  10 H :    0.154665
  11 H :    0.157151
  12 H :    0.169440
  13 H :    0.147803
  14 H :    0.235324
  15 H :    0.234577

-------------------------------
LOEWDIN REDUCED ORBITAL CHARGES
-------------------------------
  0 C s       :     2.975280  s :     2.975280
      pz      :     1.153906  p :     3.395492
      px      :     1.158030
      py      :     1.083556
      dz2     :     0.004446  d :     0.062956
      dxz     :     0.015976
      dyz     :     0.018079
      dx2y2   :     0.016337
      dxy     :     0.008118

  1 C s       :     2.937923  s :     2.937923
      pz      :     1.117532  p :     3.296197
      px      :     1.084328
      py      :     1.094337
      dz2     :     0.007807  d :     0.080344
      dxz     :     0.019783
      dyz     :     0.021284
      dx2y2   :     0.019931
      dxy     :     0.011539

  2 C s       :     2.937949  s :     2.937949
      pz      :     1.092952  p :     3.273974
      px      :     1.053853
      py      :     1.127168
      dz2     :     0.006937  d :     0.077999
      dxz     :     0.020181
      dyz     :     0.020935
      dx2y2   :     0.024030
      dxy     :     0.005916

  3 C s       :     2.870876  s :     2.870876
      pz      :     1.069935  p :     3.093606
      px      :     1.050923
      py      :     0.972747
      dz2     :     0.009928  d :     0.111493
      dxz     :     0.021819
      dyz     :     0.032253
      dx2y2   :     0.026227
      dxy     :     0.021266

  4 N s       :     3.248732  s :     3.248732
      pz      :     1.413027  p :     4.178916
      px      :     1.503309
      py      :     1.262580
      dz2     :     0.029201  d :     0.322515
      dxz     :     0.039226
      dyz     :     0.104358
      dx2y2   :     0.091939
      dxy     :     0.057790

  5 H s       :     0.810634  s :     0.810634
      pz      :     0.019242  p :     0.043277
      px      :     0.008825
      py      :     0.015209

  6 H s       :     0.778014  s :     0.778014
      pz      :     0.013768  p :     0.048481
      px      :     0.024406
      py      :     0.010307

  7 H s       :     0.811472  s :     0.811472
      pz      :     0.014255  p :     0.043520
      px      :     0.021161
      py      :     0.008104

  8 H s       :     0.807951  s :     0.807951
      pz      :     0.013819  p :     0.042885
      px      :     0.019028
      py      :     0.010039

  9 H s       :     0.805651  s :     0.805651
      pz      :     0.019963  p :     0.042825
      px      :     0.007824
      py      :     0.015038

 10 H s       :     0.802447  s :     0.802447
      pz      :     0.017340  p :     0.042888
      px      :     0.008120
      py      :     0.017428

 11 H s       :     0.799597  s :     0.799597
      pz      :     0.012216  p :     0.043252
      px      :     0.008260
      py      :     0.022776

 12 H s       :     0.790735  s :     0.790735
      pz      :     0.020199  p :     0.039826
      px      :     0.007856
      py      :     0.011771

 13 H s       :     0.811793  s :     0.811793
      pz      :     0.013268  p :     0.040404
      px      :     0.018240
      py      :     0.008896

 14 H s       :     0.679274  s :     0.679274
      pz      :     0.027342  p :     0.085402
      px      :     0.044285
      py      :     0.013775

 15 H s       :     0.680065  s :     0.680065
      pz      :     0.036787  p :     0.085357
      px      :     0.020807
      py      :     0.027763


---------------------------------
LOEWDIN BOND ORDERS (THRESH 0.050000)
---------------------------------
B(  0-C ,  1-C ) :   1.1428 B(  0-C ,  2-C ) :   0.0649 B(  0-C ,  4-N ) :   0.0540 
B(  0-C ,  5-H ) :   0.9314 B(  0-C ,  6-H ) :   0.9040 B(  0-C ,  7-H ) :   0.9302 
B(  1-C ,  2-C ) :   1.1098 B(  1-C ,  3-C ) :   0.0611 B(  1-C ,  8-H ) :   0.8978 
B(  1-C ,  9-H ) :   0.8952 B(  2-C ,  3-C ) :   1.0487 B(  2-C ,  4-N ) :   0.1539 
B(  2-C , 10-H ) :   0.8865 B(  2-C , 11-H ) :   0.8856 B(  3-C ,  4-N ) :   1.4044 
B(  3-C , 12-H ) :   0.8322 B(  3-C , 13-H ) :   0.8366 B(  4-N , 12-H ) :   0.0979 
B(  4-N , 13-H ) :   0.1100 B(  4-N , 14-H ) :   0.9392 B(  4-N , 15-H ) :   0.9413 


------------------------------------------
LOEWDIN REDUCED ORBITAL POPULATIONS PER MO
-------------------------------------------
THRESHOLD FOR PRINTING IS 0.1%%
                      0         1         2         3         4         5   
                 -14.13492 -10.04887 -10.02121 -10.01603  -9.99671  -0.84747
                   2.00000   2.00000   2.00000   2.00000   2.00000   2.00000
                  --------  --------  --------  --------  --------  --------
 0 C  s               0.0       0.0       0.0       0.0      99.7       0.2
 0 C  px              0.0       0.0       0.0       0.0       0.0       0.2
 1 C  s               0.0       0.0       0.0      99.7       0.0       0.7
 1 C  px              0.0       0.0       0.1       0.0       0.0       0.5
 2 C  s               0.0       0.0      99.7       0.0       0.0       3.4
 2 C  pz              0.0       0.0       0.0       0.0       0.0       0.8
 2 C  px              0.0       0.1       0.0       0.1       0.0       1.1
 2 C  py              0.0       0.0       0.0       0.0       0.0       0.2
 3 C  s               0.0      99.4       0.0       0.0       0.0      15.8
 3 C  pz              0.0       0.0       0.0       0.0       0.0       0.3
 3 C  py              0.0       0.0       0.0       0.0       0.0       5.6
 3 C  dyz             0.0       0.0       0.0       0.0       0.0       0.1
 3 C  dx2y2           0.0       0.0       0.0       0.0       0.0       0.2
 4 N  s              99.8       0.0       0.0       0.0       0.0      44.2
 4 N  pz              0.0       0.0       0.0       0.0       0.0       0.8
 4 N  px              0.0       0.0       0.0       0.0       0.0       0.5
 4 N  py              0.0       0.1       0.0       0.0       0.0       1.3
 4 N  dyz             0.0       0.1       0.0       0.0       0.0       0.1
 4 N  dx2y2           0.0       0.1       0.0       0.0       0.0       0.2
10 H  s               0.0       0.0       0.0       0.0       0.0       0.3
11 H  s               0.0       0.0       0.0       0.0       0.0       0.3
12 H  s               0.0       0.0       0.0       0.0       0.0       1.6
13 H  s               0.0       0.0       0.0       0.0       0.0       1.6
14 H  s               0.0       0.0       0.0       0.0       0.0       8.2
14 H  pz              0.0       0.0       0.0       0.0       0.0       0.4
14 H  px              0.0       0.0       0.0       0.0       0.0       0.7
15 H  s               0.0       0.0       0.0       0.0       0.0       8.2
15 H  pz              0.0       0.0       0.0       0.0       0.0       0.6
15 H  py              0.0       0.0       0.0       0.0       0.0       0.5

                      6         7         8         9        10        11   
                  -0.74428  -0.66692  -0.58475  -0.53252  -0.45338  -0.43077
                   2.00000   2.00000   2.00000   2.00000   2.00000   2.00000
                  --------  --------  --------  --------  --------  --------
 0 C  s              11.8      19.7      11.6       3.7       0.4       0.0
 0 C  pz              0.4       0.0       0.5       0.0       0.0       0.0
 0 C  px              0.2       0.1       0.2       0.0       1.0       5.9
 0 C  py              2.4       0.2       2.5       6.0       1.1       0.3
 1 C  s              25.1       4.1       5.4       9.4       0.4       0.3
 1 C  pz              0.2       1.9       2.3       1.8       1.4       0.1
 1 C  px              0.8       3.7       0.4       1.9       0.0      10.6
 1 C  py              0.5       3.4       4.9       4.4       0.1       1.3
 1 C  dxz             0.1       0.0       0.0       0.1       0.0       0.1
 1 C  dx2y2           0.0       0.2       0.1       0.0       0.0       0.0
 2 C  s              19.2      10.5       3.3       7.4       1.0       0.5
 2 C  pz              0.8       0.1       0.8       7.6       3.0       3.1
 2 C  px              1.7       4.5       7.8       1.0       0.6       2.3
 2 C  py              0.0       0.4       0.1       0.8       6.6       3.6
 2 C  dxz             0.0       0.1       0.2       0.0       0.0       0.0
 2 C  dx2y2           0.1       0.0       0.0       0.1       0.1       0.0
 3 C  s               1.6       9.7      11.7       2.7       0.3       0.5
 3 C  pz              1.2       1.4       0.3       5.7       1.7      14.2
 3 C  px              3.6       1.1       1.0       2.0       1.9       8.7
 3 C  py              1.3       2.3       1.5       1.0       6.5       3.8
 3 C  dx2y2           0.1       0.1       0.0       0.0       0.1       0.0
 4 N  s               4.5       3.4       2.2       0.2       0.0       0.3
 4 N  pz              0.1       0.2       0.0       1.2      26.2       8.3
 4 N  px              0.7       0.8       1.1       0.1      17.4       2.4
 4 N  py              0.5       3.2       7.6       5.1       0.1       6.8
 4 N  dz2             0.0       0.0       0.3       0.2       0.2       0.3
 4 N  dxz             0.0       0.0       0.0       0.1       0.2       0.2
 4 N  dyz             0.1       0.5       0.4       0.0       0.0       0.1
 4 N  dx2y2           0.0       0.6       0.7       0.4       0.3       0.3
 4 N  dxy             0.1       0.1       0.0       0.0       0.1       0.4
 5 H  s               1.6       3.9       3.6       2.7       0.6       0.0
 5 H  pz              0.1       0.2       0.2       0.1       0.0       0.0
 5 H  py              0.1       0.1       0.1       0.0       0.0       0.0
 6 H  s               1.5       3.7       3.6       2.0       0.0       1.1
 6 H  px              0.1       0.2       0.2       0.1       0.0       0.0
 7 H  s               1.6       4.2       4.0       1.3       0.6       1.5
 7 H  pz              0.0       0.1       0.1       0.0       0.0       0.0
 7 H  px              0.1       0.2       0.2       0.1       0.0       0.0
 8 H  s               3.6       0.9       2.4       4.5       0.0       3.5
 8 H  pz              0.1       0.0       0.0       0.2       0.0       0.1
 8 H  px              0.2       0.0       0.2       0.1       0.0       0.0
 9 H  s               3.5       0.7       1.5       6.9       0.6       0.3
 9 H  pz              0.2       0.0       0.1       0.3       0.0       0.0
 9 H  py              0.1       0.0       0.0       0.1       0.0       0.0
10 H  s               2.7       2.0       1.1       6.9       0.1       0.2
10 H  pz              0.1       0.1       0.0       0.2       0.0       0.0
10 H  py              0.1       0.1       0.1       0.2       0.1       0.0
11 H  s               2.9       2.7       1.3       3.2       4.9       1.2
11 H  py              0.2       0.2       0.1       0.2       0.2       0.0
12 H  s               0.3       2.2       4.8       4.0       1.3       0.5
12 H  pz              0.0       0.2       0.3       0.1       0.0       0.0
12 H  py              0.0       0.0       0.1       0.1       0.0       0.1
13 H  s               0.2       2.3       4.4       0.9       0.2      11.1
13 H  pz              0.0       0.0       0.1       0.1       0.0       0.1
13 H  px              0.0       0.1       0.2       0.0       0.0       0.3
14 H  s               1.4       1.5       1.4       0.0      14.3       0.1
14 H  px              0.1       0.1       0.1       0.0       0.5       0.1
15 H  s               1.1       1.3       2.1       1.9       4.9       4.5
15 H  pz              0.1       0.2       0.2       0.1       0.0       0.1
15 H  px              0.0       0.0       0.0       0.0       0.2       0.0
15 H  py              0.1       0.0       0.0       0.0       0.2       0.0

                     12        13        14        15        16        17   
                  -0.41869  -0.37410  -0.37164  -0.34035  -0.31963  -0.29617
                   2.00000   2.00000   2.00000   2.00000   2.00000   2.00000
                  --------  --------  --------  --------  --------  --------
 0 C  s               0.1       0.0       0.1       0.1       0.0       0.5
 0 C  pz             10.5      18.1       0.0       1.1      12.4       0.7
 0 C  px              1.0       4.0      10.9      17.6       1.6       6.2
 0 C  py              0.1       2.6       6.4       7.2       2.7      14.6
 0 C  dxz             0.0       0.1       0.0       0.2       0.0       0.1
 0 C  dyz             0.0       0.0       0.1       0.0       0.2       0.2
 1 C  s               0.2       0.1       0.6       0.1       0.1       0.1
 1 C  pz             13.3       7.5       5.2       0.5       1.2       0.3
 1 C  px              5.8       1.5       2.6       2.3       1.1       6.5
 1 C  py              3.0       1.7       6.6       4.1       1.0      15.4
 1 C  dz2             0.0       0.1       0.0       0.0       0.1       0.1
 1 C  dyz             0.0       0.0       0.0       0.0       0.1       0.5
 2 C  s               0.1       0.3       0.0       0.3       0.3       0.1
 2 C  pz              5.6       5.7       0.0       1.0       9.8       0.1
 2 C  px              1.8       1.9       0.6       6.3       3.9       4.7
 2 C  py             10.0       0.1      11.8       5.4       1.5      12.2
 2 C  dxz             0.0       0.0       0.1       0.2       0.0       0.1
 2 C  dyz             0.0       0.0       0.1       0.1       0.1       0.6
 2 C  dx2y2           0.0       0.1       0.0       0.0       0.1       0.0
 3 C  s               0.2       0.2       0.1       0.1       0.3       0.1
 3 C  pz              0.2       1.0       7.4       0.6      12.2       0.5
 3 C  px              5.3       0.0       3.7      13.1       2.1       1.7
 3 C  py              5.2      10.8       1.3       3.0       4.6       0.3
 3 C  dxz             0.0       0.1       0.0       0.2       0.1       0.0
 3 C  dyz             0.0       0.2       0.0       0.2       0.4       0.2
 3 C  dx2y2           0.0       0.0       0.3       0.0       0.1       0.0
 4 N  s               0.1       0.1       0.8       0.0       0.1       0.7
 4 N  pz              0.0       1.0       1.5       1.6       0.6       1.0
 4 N  px              0.1       0.0       8.0       0.2       1.9       2.2
 4 N  py             11.5      11.6       1.1       4.9       2.7       0.2
 4 N  dz2             0.0       0.1       0.0       0.0       0.1       0.0
 4 N  dxz             0.0       0.1       0.1       0.6       0.3       0.0
 4 N  dyz             0.3       0.5       0.5       0.1       1.3       0.0
 4 N  dx2y2           0.0       0.2       0.4       0.1       0.5       0.1
 4 N  dxy             0.2       0.0       0.1       1.2       0.1       0.0
 5 H  s               1.4       6.4       2.2       0.1       9.1       2.3
 5 H  px              0.0       0.1       0.1       0.1       0.0       0.0
 5 H  py              0.1       0.1       0.0       0.0       0.1       0.1
 6 H  s               2.9       0.0       0.6      10.6       3.2       0.4
 6 H  pz              0.0       0.1       0.0       0.1       0.0       0.0
 6 H  px              0.1       0.0       0.0       0.1       0.0       0.0
 6 H  py              0.0       0.0       0.1       0.0       0.1       0.2
 7 H  s               0.6       7.0       3.6       3.8       0.6       3.6
 7 H  pz              0.0       0.0       0.1       0.1       0.1       0.0
 7 H  px              0.1       0.2       0.0       0.0       0.1       0.0
 7 H  py              0.0       0.0       0.0       0.1       0.0       0.2
 8 H  s               4.7       0.1       3.3       0.0       0.7       0.8
 8 H  py              0.1       0.0       0.0       0.1       0.0       0.2
 9 H  s               4.5       2.7       0.4       0.4       1.5       6.2
 9 H  pz              0.1       0.0       0.0       0.0       0.0       0.1
 9 H  py              0.1       0.1       0.1       0.0       0.0       0.0
10 H  s               4.3       2.3       2.4       1.1       5.3       5.6
11 H  s               1.7       0.7       4.9       2.9       0.0       7.9
11 H  pz              0.1       0.0       0.1       0.0       0.1       0.0
12 H  s               0.5       4.8       1.2       2.5      11.3       0.9
12 H  pz              0.0       0.2       0.0       0.1       0.1       0.0
13 H  s               0.5       0.4       5.9       3.4       0.0       0.4
14 H  s               0.1       0.0       3.0       0.9       1.2       0.0
14 H  py              0.1       0.2       0.0       0.1       0.0       0.0
15 H  s               2.4       3.8       0.2       0.2       2.0       0.3
15 H  pz              0.2       0.1       0.0       0.0       0.0       0.0

                     18        19        20        21        22        23   
                  -0.29355  -0.28509  -0.20002   0.07576   0.10958   0.12386
                   2.00000   2.00000   2.00000   0.00000   0.00000   0.00000
                  --------  --------  --------  --------  --------  --------
 0 C  s               0.3       0.1       0.3       3.1       2.7       6.1
 0 C  pz              1.5      11.9       0.3       0.2       0.3       1.6
 0 C  px              6.6       0.3       2.1       0.3       1.1       1.1
 0 C  py              5.5       2.3       0.1       0.4       3.5       0.6
 0 C  dz2             0.0       0.0       0.0       0.0       0.1       0.1
 0 C  dxz             0.4       0.0       0.0       0.0       0.0       0.2
 0 C  dyz             0.1       0.2       0.0       0.0       0.1       0.1
 0 C  dx2y2           0.0       0.2       0.0       0.1       0.4       0.0
 0 C  dxy             0.1       0.1       0.0       0.0       0.0       0.1
 1 C  s               0.5       0.0       0.0       1.5      13.0       0.5
 1 C  pz              2.9      17.2       0.0       0.2       0.6       0.2
 1 C  px             13.8       1.2       1.3       0.4       2.0       1.4
 1 C  py              6.7       1.5       0.1       0.3       3.8       3.9
 1 C  dz2             0.0       0.0       0.0       0.1       0.0       0.4
 1 C  dxz             0.5       0.1       0.0       0.1       0.4       0.3
 1 C  dyz             0.2       0.2       0.0       0.0       0.1       0.0
 1 C  dx2y2           0.0       0.5       0.0       0.1       0.0       0.1
 1 C  dxy             0.2       0.2       0.0       0.0       0.1       0.0
 2 C  s               0.6       0.3       0.1       2.7       8.8       1.7
 2 C  pz              5.6      10.3       0.0       2.0       2.6       8.7
 2 C  px             12.1       0.4       1.9       0.8       1.7       1.7
 2 C  py              1.7       1.8       0.0       0.2       4.2       3.7
 2 C  dz2             0.0       0.1       0.0       0.0       0.0       0.2
 2 C  dxz             0.2       0.1       0.1       0.1       0.2       0.1
 2 C  dyz             0.2       0.0       0.0       0.3       0.0       0.0
 2 C  dx2y2           0.0       0.6       0.0       0.3       0.2       0.7
 2 C  dxy             0.0       0.0       0.0       0.1       0.1       0.0
 3 C  s               0.1       0.4       0.3      10.7       1.9       3.6
 3 C  pz              0.1       5.3       1.4       0.9       1.0       0.7
 3 C  px              2.9       2.8       2.5       7.0       4.0      11.5
 3 C  py              0.5       0.3       0.5       7.7      10.9      12.5
 3 C  dz2             0.2       0.0       0.0       0.1       0.3       0.3
 3 C  dxz             0.0       0.0       0.4       0.1       0.4       0.4
 3 C  dyz             0.0       0.0       0.4       0.1       0.0       0.0
 3 C  dx2y2           0.0       0.2       0.0       0.6       0.4       0.1
 3 C  dxy             0.0       0.0       0.7       0.2       0.0       0.2
 4 N  s               0.3       0.1       5.5      12.9       2.7       0.6
 4 N  pz              4.0       2.1      22.0       0.3       1.0       2.0
 4 N  px              2.1       0.1      37.6       2.3       1.8       1.9
 4 N  py              1.1       0.6       4.8       1.2       0.5       0.2
 4 N  dz2             0.0       0.0       0.0       0.9       0.0       0.6
 4 N  dxz             0.1       0.1       0.0       0.4       0.0       7.2
 4 N  dyz             0.0       0.8       0.4       2.4       0.4       0.0
 4 N  dx2y2           0.0       0.3       0.2       1.4       2.5       4.5
 4 N  dxy             0.0       0.1       0.5       0.0       0.3       1.9
 5 H  s               2.7       3.8       0.0       0.2       0.8       2.5
 5 H  pz              0.0       0.0       0.0       0.1       0.4       0.6
 5 H  px              0.1       0.0       0.0       0.0       0.0       0.2
 5 H  py              0.0       0.1       0.0       0.0       0.0       0.2
 6 H  s               3.1       5.2       0.9       0.5       0.0       0.7
 6 H  pz              0.1       0.0       0.0       0.0       0.0       0.5
 6 H  px              0.0       0.1       0.2       0.3       0.0       0.1
 6 H  py              0.0       0.0       0.0       0.0       0.2       0.0
 7 H  s               6.3       1.2       0.7       0.5       1.1       0.4
 7 H  pz              0.0       0.0       0.0       0.0       0.1       0.1
 7 H  px              0.0       0.1       0.0       0.1       0.2       0.0
 8 H  s               4.8      10.2       0.8       1.3       2.5       1.2
 8 H  pz              0.2       0.0       0.0       0.1       1.2       0.6
 8 H  px              0.0       0.1       0.0       0.2       0.6       0.0
 8 H  py              0.0       0.0       0.0       0.0       0.1       0.1
 9 H  s               5.0       5.9       0.1       0.2       3.2       0.6
 9 H  pz              0.0       0.0       0.0       0.0       1.1       0.3
 9 H  px              0.2       0.0       0.0       0.0       0.2       0.2
 9 H  py              0.0       0.1       0.0       0.0       0.6       0.2
10 H  s               3.9       1.6       0.0       0.8       1.2       0.3
10 H  pz              0.0       0.0       0.0       0.0       0.2       0.8
10 H  px              0.1       0.0       0.0       0.2       0.2       0.1
10 H  py              0.0       0.1       0.0       0.4       0.5       0.0
11 H  s               0.2       5.1       0.0       2.5       1.9       1.0
11 H  pz              0.1       0.0       0.0       0.1       0.2       0.1
11 H  px              0.1       0.0       0.0       0.0       0.0       0.1
11 H  py              0.0       0.1       0.0       0.5       1.5       0.3
12 H  s               0.6       1.6       1.5       1.5       0.8       0.2
12 H  pz              0.0       0.0       0.0       0.8       0.0       0.1
12 H  px              0.0       0.0       0.0       0.0       0.4       0.5
12 H  py              0.0       0.0       0.0       0.0       0.6       0.7
13 H  s               0.7       0.3       8.3       2.4       1.2       0.3
13 H  pz              0.0       0.0       0.0       0.3       0.2       0.1
13 H  px              0.0       0.1       0.0       1.0       0.0       0.5
13 H  py              0.0       0.0       0.0       0.1       0.3       0.4
14 H  s               0.1       0.8       0.8       8.7       0.8       1.4
14 H  pz              0.0       0.0       0.6       1.1       0.2       0.0
14 H  px              0.0       0.0       0.3       2.1       0.2       0.3
15 H  s               0.1       0.3       0.7       8.5       2.1       1.7
15 H  pz              0.0       0.0       0.2       2.0       0.3       0.2
15 H  px              0.0       0.0       0.6       0.0       0.0       0.2
15 H  py              0.1       0.0       0.2       0.9       0.7       0.4

                     24        25        26        27        28        29   
                   0.12814   0.12919   0.14612   0.15981   0.17230   0.17420
                   0.00000   0.00000   0.00000   0.00000   0.00000   0.00000
                  --------  --------  --------  --------  --------  --------
 0 C  s               9.0       0.8      14.0       3.4       0.2       0.9
 0 C  pz              1.8       4.6       1.6       2.1       4.8       0.6
 0 C  px              1.2       2.0       4.4       0.0       1.9       1.8
 0 C  py              0.2       1.2      18.5       0.9       6.4       9.4
 0 C  dz2             0.0       0.0       0.2       0.1       0.2       0.0
 0 C  dxz             0.0       0.3       0.0       0.0       1.4       0.3
 0 C  dyz             0.1       0.2       0.1       0.2       0.6       0.1
 0 C  dx2y2           0.0       0.1       0.6       0.1       0.0       0.2
 0 C  dxy             0.1       0.1       0.2       0.1       0.1       0.0
 1 C  s               5.0       1.2       5.5       0.1       0.9       4.5
 1 C  pz              1.2       2.3       2.0       7.8       1.5       4.2
 1 C  px              9.9       6.4       0.2       0.3       1.2       3.5
 1 C  py              1.0       2.1      11.9       0.3      10.3       0.6
 1 C  dz2             0.1       0.3       0.0       0.0       0.1       0.1
 1 C  dxz             0.4       0.3       0.1       0.0       0.0       0.0
 1 C  dyz             0.2       0.2       0.1       0.2       0.3       0.0
 1 C  dx2y2           0.2       0.0       1.2       0.2       0.2       0.4
 1 C  dxy             0.0       0.0       0.3       0.3       0.7       0.0
 2 C  s               8.0       0.8       0.4       0.2       0.6       7.8
 2 C  pz              5.9       7.5       0.6       7.0       0.1       3.2
 2 C  px              6.7       1.1       3.1       4.4       1.5       1.6
 2 C  py              1.1       3.3       0.4       6.1       9.9       0.2
 2 C  dz2             0.1       0.0       0.1       0.5       0.3       0.2
 2 C  dxz             0.5       0.1       0.3       0.6       0.4       0.1
 2 C  dyz             0.4       0.4       0.2       0.8       1.5       0.0
 2 C  dx2y2           0.1       1.1       0.1       0.1       0.0       0.2
 2 C  dxy             0.0       0.1       0.4       0.1       0.0       0.0
 3 C  s               2.2       2.9       2.7       3.3       1.4       3.9
 3 C  pz             12.3       7.1       2.7       5.6       1.8       6.0
 3 C  px              1.5       0.8       2.0       3.9       4.7       1.7
 3 C  py              0.6       4.4       5.8       2.3       2.5       0.9
 3 C  dz2             0.1       0.5       0.2       0.1       0.4       0.0
 3 C  dxz             0.2       0.1       0.0       0.3       0.0       0.0
 3 C  dyz             0.1       0.8       0.3       0.0       0.2       0.2
 3 C  dx2y2           0.2       0.0       0.0       0.7       0.0       0.8
 3 C  dxy             0.0       0.1       0.0       0.7       0.1       0.0
 4 N  s               0.9       0.1       1.2       0.3       0.6       0.3
 4 N  pz              2.0       2.9       0.3       0.6       2.6       2.0
 4 N  px              0.1       0.7       0.6       0.4       1.9       1.8
 4 N  py              1.5       2.2       0.6       4.1       0.8       0.5
 4 N  dz2             1.9       0.2       0.6       7.7       0.0       0.0
 4 N  dxz             0.6       1.1       0.1       0.4       0.2       8.3
 4 N  dyz             1.4       1.0       0.4       1.6       0.0       1.6
 4 N  dx2y2           0.0       0.0       0.5       0.0       2.7       0.1
 4 N  dxy             0.6       1.4       0.1       2.8       0.0       0.4
 5 H  s               1.1       0.8       1.1       0.3       3.6       0.6
 5 H  pz              0.5       0.4       0.2       0.1       1.0       0.1
 5 H  px              0.0       0.4       0.1       0.0       0.5       0.1
 5 H  py              0.1       0.1       1.3       0.1       0.0       0.2
 6 H  s               0.9       0.2       0.2       1.3       1.4       0.7
 6 H  pz              0.2       0.1       0.2       0.3       0.6       0.0
 6 H  px              0.4       0.0       0.1       0.3       0.0       0.0
 6 H  py              0.1       0.0       0.4       0.0       0.2       0.1
 7 H  s               1.1       1.9       1.0       0.7       5.0       0.6
 7 H  pz              0.3       0.1       0.3       0.1       0.3       0.2
 7 H  px              0.5       0.1       0.6       0.3       0.7       0.0
 7 H  py              0.2       0.3       0.4       0.0       0.3       0.1
 8 H  s               0.4       0.1       0.8       1.9       0.0       2.1
 8 H  pz              0.0       0.2       0.1       0.1       0.0       0.0
 8 H  px              0.7       0.3       0.1       0.3       0.0       1.2
 8 H  py              0.0       0.3       0.5       0.2       0.1       0.1
 9 H  s               1.1       2.4       0.3       1.4       0.4       0.3
 9 H  pz              0.9       0.3       0.0       0.1       0.0       0.2
 9 H  px              0.3       0.4       0.0       0.0       0.1       0.0
 9 H  py              0.1       0.0       1.2       0.7       0.3       0.0
10 H  s               2.3       7.2       0.1       1.7       3.4       1.5
10 H  pz              1.3       0.2       0.0       0.0       0.9       0.5
10 H  px              0.3       0.1       0.0       0.2       0.2       0.1
10 H  py              0.4       2.1       0.0       0.4       0.1       0.5
11 H  s               0.9       0.4       0.6       2.6       6.8       0.8
11 H  pz              0.0       0.5       0.1       1.2       0.9       0.2
11 H  px              0.2       0.0       0.7       0.3       0.0       0.0
11 H  py              0.3       0.3       0.0       0.4       1.3       0.5
12 H  s               0.3       8.5       0.4       3.8       0.7       0.1
12 H  pz              0.0       2.3       0.0       0.8       0.1       0.1
12 H  px              0.2       0.1       0.0       0.0       0.0       0.0
12 H  py              0.0       0.4       0.0       1.3       0.1       0.2
13 H  s               1.1       0.5       1.8       3.0       1.0       6.5
13 H  pz              1.2       0.5       0.1       0.0       0.0       0.6
13 H  px              0.0       0.0       0.5       0.6       0.3       1.9
13 H  py              0.2       0.1       0.7       0.0       0.2       0.1
14 H  s               1.3       0.5       0.6       1.2       1.7       8.1
14 H  pz              0.0       0.0       0.2       0.0       0.0       0.6
14 H  px              0.4       0.2       0.1       0.4       0.5       1.5
14 H  py              0.1       0.1       0.1       0.4       0.0       0.1
15 H  s               0.8       3.8       0.3       2.0       1.3       0.5
15 H  pz              0.3       0.4       0.1       0.7       0.1       0.0
15 H  px              0.0       0.0       0.0       0.0       0.0       0.3
15 H  py              0.0       0.4       0.1       0.0       0.5       0.1

                     30        31        32        33        34        35   
                   0.18671   0.20637   0.21070   0.22691   0.23753   0.24404
                   0.00000   0.00000   0.00000   0.00000   0.00000   0.00000
                  --------  --------  --------  --------  --------  --------
 0 C  s               0.2       0.5       0.0       1.4       1.1       1.2
 0 C  pz              4.1       4.2      11.2       0.2       8.4      13.6
 0 C  px              6.4      16.9      12.2       1.6       6.0       3.1
 0 C  py              0.1       6.7       1.4       6.7      17.2       6.4
 0 C  dz2             0.2       0.0       0.8       0.0       0.3       0.1
 0 C  dxz             0.0       1.3       0.9       0.0       0.1       0.0
 0 C  dyz             0.0       0.0       2.3       0.7       0.0       0.3
 0 C  dx2y2           0.2       0.8       0.9       0.0       0.4       0.7
 0 C  dxy             0.3       0.1       0.5       0.1       0.5       0.0
 1 C  s               0.3       0.2       0.0       0.4       1.3       2.2
 1 C  pz             10.1       2.3       0.4       4.2       1.0       0.5
 1 C  px             10.2       1.7       0.1       1.7       0.5       3.7
 1 C  py              0.9       1.0       0.0       7.6      10.2      12.3
 1 C  dz2             0.6       0.0       0.3       0.3       0.1       0.3
 1 C  dxz             1.1       0.2       0.0       0.6       0.1       0.2
 1 C  dyz             0.9       0.1       0.5       1.3       0.2       0.1
 1 C  dx2y2           0.1       0.3       0.0       0.1       0.2       0.0
 1 C  dxy             0.1       0.2       0.6       0.0       0.0       0.1
 2 C  s               0.1       0.5       1.0       0.1       1.2       2.2
 2 C  pz              0.5       4.5       0.7       0.4      11.2      11.9
 2 C  px              7.0       1.1       1.0       1.8       3.0       0.4
 2 C  py              0.1      10.4       1.8       0.3       1.2       5.5
 2 C  dz2             0.1       0.0       0.1       0.0       0.0       0.4
 2 C  dxz             1.9       0.1       0.0       0.0       0.2       0.0
 2 C  dyz             0.0       0.0       0.5       0.0       0.1       0.6
 2 C  dx2y2           0.1       0.7       0.1       0.0       0.2       0.0
 2 C  dxy             0.1       0.1       0.0       0.7       0.0       0.0
 3 C  s               0.7       0.6       0.2       0.2       0.2       0.3
 3 C  pz              7.1       1.6       1.9       3.3       2.2       1.4
 3 C  px              8.0       0.8       1.7       0.4       1.2       2.9
 3 C  py              1.2       2.8       1.3       6.9       0.1       0.3
 3 C  dz2             0.1       0.1       0.0       0.3       0.1       0.1
 3 C  dxz             0.7       0.0       0.3       0.6       0.3       0.0
 3 C  dyz             0.3       0.1       0.0       1.4       0.0       0.0
 3 C  dx2y2           0.1       0.2       0.0       0.0       0.4       0.2
 3 C  dxy             0.0       0.0       0.1       0.0       0.0       0.1
 4 N  s               0.2       0.3       0.7       0.0       0.1       0.8
 4 N  pz              0.2       0.6       1.0       0.2       2.0       0.7
 4 N  px              0.6       1.9       0.0       0.5       2.8       0.1
 4 N  py              2.4       1.1       1.4       4.1       0.7       0.9
 4 N  dz2             0.1       0.3       1.5       0.1       0.1       0.0
 4 N  dxz             0.1       1.6       0.9       0.3       0.3       0.2
 4 N  dyz             0.0       0.2       2.3       6.6       0.0       0.2
 4 N  dx2y2           0.2       2.1       1.4       0.3       0.1       0.3
 4 N  dxy             1.4       0.2       0.1       0.2       1.0       1.5
 5 H  s               0.0       1.0      14.7       5.7       0.8       2.2
 5 H  pz              0.0       0.0       1.0       1.0       0.0       1.3
 5 H  px              0.2       0.5       0.5       0.0       0.0       0.1
 5 H  py              0.0       0.3       1.5       0.8       0.7       0.1
 6 H  s               0.1       2.3      15.0       0.0       3.5       0.7
 6 H  pz              0.1       0.9       0.1       0.0       0.8       0.0
 6 H  px              0.0       0.0       1.7       0.2       1.0       0.0
 6 H  py              0.1       0.3       1.1       0.1       0.1       0.6
 7 H  s               0.0      12.0       0.1       1.3       0.3       0.9
 7 H  pz              0.1       1.5       1.5       0.2       0.0       0.0
 7 H  px              0.1       2.7       1.0       0.3       0.1       0.3
 7 H  py              0.0       0.0       0.1       0.4       0.4       0.1
 8 H  s               8.6       0.1       1.2       3.0       2.2       0.8
 8 H  pz              0.5       0.0       0.1       1.3       0.5       0.0
 8 H  px              1.6       0.0       0.0       0.6       0.3       0.1
 8 H  py              0.6       0.0       0.5       0.3       0.2       0.2
 9 H  s               6.2       0.5       0.8       6.5       0.8       0.9
 9 H  pz              1.7       0.0       0.0       1.0       0.1       0.0
 9 H  px              0.6       0.0       0.1       0.2       0.1       0.1
 9 H  py              0.6       0.0       0.3       0.0       0.2       0.0
10 H  s               0.1       0.6       2.0       0.5       0.7       5.1
10 H  pz              0.0       0.2       0.4       0.0       0.0       2.0
10 H  px              0.9       0.1       0.0       0.1       0.1       0.0
10 H  py              0.0       0.1       0.1       0.1       0.3       0.2
11 H  s               0.0       1.9       0.1       0.0       4.6       3.3
11 H  pz              0.0       0.0       0.1       0.0       0.5       0.3
11 H  px              0.1       0.1       0.0       0.5       0.3       0.1
11 H  py              0.0       1.3       0.1       0.0       1.1       0.7
12 H  s               1.4       0.4       0.4       6.7       0.6       0.2
12 H  pz              0.7       0.2       0.3       0.8       0.0       0.0
12 H  px              0.4       0.0       0.3       0.2       0.3       0.0
12 H  py              0.1       0.1       0.1       0.1       0.2       0.0
13 H  s               3.0       0.0       0.1       0.5       0.4       0.1
[...]
 1 C  s               0.3       1.9       0.2       0.0       0.2       0.1
 1 C  pz              0.2       2.0       5.1       0.4       0.0       0.0
 1 C  px              0.0       1.4       2.4       0.1       0.2       0.0
 1 C  py              0.2       2.4       0.1       0.1       0.0       0.0
 1 C  dz2             0.1       1.8       0.7       0.3       0.0       0.0
 1 C  dxz             1.1       3.7       3.4       0.2       0.0       0.0
 1 C  dyz             0.8       4.3       5.1       2.0       0.0       0.0
 1 C  dx2y2           0.0       0.8       3.2       0.3       0.0       0.0
 1 C  dxy             0.0       0.4       1.6       0.2       0.0       0.0
 2 C  s               0.0       0.0       0.0       0.4       0.0       0.0
 2 C  pz              0.4       0.0       0.2       0.2       0.1       0.0
 2 C  px              0.1       5.6       0.0       0.0       0.0       0.0
 2 C  py              2.8       0.1       0.2       6.2       0.0       0.0
 2 C  dz2             1.0       0.0       0.0       0.7       0.0       0.0
 2 C  dxz             0.0       5.7       0.5       0.0       0.0       0.0
 2 C  dyz             6.5       0.2       0.5      13.6       0.0       0.0
 2 C  dx2y2           0.0       0.0       0.1       0.0       0.2       0.0
 2 C  dxy             0.0       0.1       0.3       0.0       0.0       0.0
 3 C  s               0.1       1.6       0.1       0.1       1.5       0.0
 3 C  pz              0.2       1.3       3.4       3.8       0.7       0.1
 3 C  px              0.2       1.9       2.5       0.8       0.1       0.0
 3 C  py              0.1       1.6       0.0       0.1       6.6       0.0
 3 C  dz2             0.0       0.8       0.5       0.7       1.3       0.0
 3 C  dxz             0.5       3.8       2.8       1.1       0.2       0.1
 3 C  dyz             0.1       2.6       2.7       4.3       2.8       0.2
 3 C  dx2y2           0.3       0.1       1.3       1.9       5.2       0.1
 3 C  dxy             0.1       0.4       1.1       1.3       1.0       0.0
 4 N  s               0.6       3.9       1.2       0.2       1.5       0.0
 4 N  pz              0.0       0.6       0.0       0.0       0.5       9.9
 4 N  px              0.3       0.2       0.1       0.1       4.3       3.7
 4 N  py              0.1       0.3       0.2       0.2      14.6       2.5
 4 N  dz2             0.0       0.0       0.0       0.0       3.2       6.4
 4 N  dxz             1.1       2.7       1.7       0.3       2.5      12.0
 4 N  dyz             0.3       0.4       0.3       0.0      17.0      12.4
 4 N  dx2y2           0.4       0.3       0.1       0.2      14.3      13.8
 4 N  dxy             0.1       0.5       0.1       0.0       0.0       0.1
 5 H  s               0.7       1.8       0.1       0.2       0.0       0.0
 5 H  pz              0.8       3.1       0.1       0.3       0.0       0.0
 5 H  px              0.1       0.2       0.0       0.1       0.0       0.0
 5 H  py              0.8       1.8       0.3       0.3       0.0       0.0
 6 H  s               7.3       0.1       0.9       1.5       0.0       0.0
 6 H  pz              5.1       0.1       1.0       2.0       0.0       0.0
 6 H  px             12.7       0.1       0.8       1.6       0.0       0.0
 6 H  py              2.0       0.0       0.4       0.6       0.0       0.0
 7 H  s               2.0       0.7       0.1       0.5       0.0       0.0
 7 H  pz              2.6       0.6       0.0       0.5       0.0       0.0
 7 H  px              1.7       1.1       0.3       0.6       0.0       0.0
 7 H  py              0.0       0.2       0.0       0.0       0.0       0.0
 8 H  s               0.1       0.2       5.2       0.3       0.0       0.0
 8 H  pz              0.1       0.6       3.3       0.1       0.0       0.0
 8 H  px              0.1       0.4       7.4       0.4       0.0       0.0
 8 H  py              0.3       0.0       1.4       0.0       0.0       0.0
 9 H  s               0.4       3.0       3.3       0.7       0.0       0.0
 9 H  pz              0.7       5.0       2.9       1.1       0.0       0.0
 9 H  px              0.1       0.3       0.0       0.0       0.0       0.0
 9 H  py              0.5       3.4       4.6       0.6       0.0       0.0
10 H  s               2.5       0.0       0.3       4.5       0.0       0.0
10 H  pz              3.2       0.1       0.4       8.1       0.0       0.0
10 H  px              0.0       0.1       0.0       0.0       0.0       0.0
10 H  py              2.9       0.0       0.3       3.0       0.0       0.0
11 H  s               1.5       0.1       0.0       3.5       0.1       0.0
11 H  pz              1.5       0.1       0.1       1.4       0.0       0.0
11 H  px              0.0       0.5       0.1       0.0       0.0       0.0
11 H  py              2.1       0.2       0.0       5.4       0.2       0.0
12 H  s               0.0       1.7       2.1       2.6       0.2       0.1
12 H  pz              0.0       3.3       1.9       3.0       0.6       0.1
12 H  px              0.0       0.2       0.2       0.0       0.0       0.0
12 H  py              0.1       1.4       2.7       3.0       0.0       0.1
13 H  s               0.3       0.5       3.5       2.6       0.3       0.0
13 H  pz              0.3       1.4       2.0       1.2       0.1       0.0
13 H  px              0.4       0.6       5.1       4.1       0.4       0.0
13 H  py              0.2       0.1       1.2       0.4       0.1       0.0
14 H  s               0.3       0.3       0.2       0.0       3.6       7.7
14 H  pz              0.1       0.5       0.0       0.0       2.6       2.6
14 H  px              0.4       1.5       0.9       0.1       4.2       7.8
14 H  py              0.0       0.0       0.1       0.1       0.2       0.2
15 H  s               0.1       0.6       0.1       0.0       2.7       8.1
15 H  pz              0.4       1.0       0.3       0.0       4.6       6.4
15 H  px              0.1       0.0       0.1       0.0       0.1       0.1
15 H  py              0.3       0.8       0.1       0.0       1.3       5.3

                    150       151       152       153       154   
                  21.92600  21.95975  22.04552  22.08446  31.85814
                   0.00000   0.00000   0.00000   0.00000   0.00000
                  --------  --------  --------  --------  --------
 0 C  s              11.0      71.2       5.6      11.9       0.0
 1 C  s              19.1       9.0      26.7      44.9       0.0
 2 C  s               0.7      17.5      66.5      15.0       0.0
 3 C  s              68.9       1.9       1.0      27.9       0.1
 4 N  s               0.0       0.0       0.0       0.0      99.8


                      *****************************
                      * MAYER POPULATION ANALYSIS *
                      *****************************

  NA   - Mulliken gross atomic population
  ZA   - Total nuclear charge
  QA   - Mulliken gross atomic charge
  VA   - Mayer's total valence
  BVA  - Mayer's bonded valence
  FA   - Mayer's free valence

  ATOM       NA         ZA         QA         VA         BVA        FA
  0 C      6.5239     6.0000    -0.5239     3.8178     3.8178    -0.0000
  1 C      6.2105     6.0000    -0.2105     3.5980     3.5980     0.0000
  2 C      6.2254     6.0000    -0.2254     3.6023     3.6023    -0.0000
  3 C      6.2246     6.0000    -0.2246     3.8178     3.8178    -0.0000
  4 N      7.5574     7.0000    -0.5574     2.6950     2.6950    -0.0000
  5 H      0.8647     1.0000     0.1353     0.9660     0.9660    -0.0000
  6 H      0.8015     1.0000     0.1985     0.9492     0.9492    -0.0000
  7 H      0.8634     1.0000     0.1366     0.9637     0.9637    -0.0000
  8 H      0.8612     1.0000     0.1388     0.9605     0.9605     0.0000
  9 H      0.8744     1.0000     0.1256     0.9695     0.9695     0.0000
 10 H      0.8733     1.0000     0.1267     0.9729     0.9729    -0.0000
 11 H      0.8584     1.0000     0.1416     0.9636     0.9636     0.0000
 12 H      0.8588     1.0000     0.1412     0.9580     0.9580    -0.0000
 13 H      0.8780     1.0000     0.1220     0.9529     0.9529     0.0000
 14 H      0.7623     1.0000     0.2377     0.9331     0.9331     0.0000
 15 H      0.7622     1.0000     0.2378     0.9374     0.9374    -0.0000

  Mayer bond orders larger than 0.100000
B(  0-C ,  1-C ) :   0.8929 B(  0-C ,  5-H ) :   0.9850 B(  0-C ,  6-H ) :   0.9715 
B(  0-C ,  7-H ) :   0.9707 B(  1-C ,  2-C ) :   0.8979 B(  1-C ,  8-H ) :   0.9680 
B(  1-C ,  9-H ) :   0.9748 B(  2-C ,  3-C ) :   0.9454 B(  2-C , 10-H ) :   0.9787 
B(  2-C , 11-H ) :   0.9625 B(  3-C ,  4-N ) :   0.9163 B(  3-C , 12-H ) :   0.9909 
B(  3-C , 13-H ) :   0.9591 B(  4-N , 14-H ) :   0.9186 B(  4-N , 15-H ) :   0.9217 


-------
TIMINGS
-------

Total SCF time: 0 days 0 hours 0 min 15 sec 

Total time                  ....      15.281 sec
Sum of individual times     ....      14.784 sec  ( 96.7%)

SCF preparation             ....       0.208 sec  (  1.4%)
Fock matrix formation       ....      13.645 sec  ( 89.3%)
  Startup                   ....       0.056 sec  (  0.4% of F)
  Split-RI-J                ....       1.910 sec  ( 14.0% of F)
  XC integration            ....      11.141 sec  ( 81.6% of F)
    Basis function eval.    ....       2.048 sec  ( 18.4% of XC)
    Density eval.           ....       2.942 sec  ( 26.4% of XC)
    XC-Functional eval.     ....       1.708 sec  ( 15.3% of XC)
    XC-Potential eval.      ....       3.378 sec  ( 30.3% of XC)
Diagonalization             ....       0.000 sec  (  0.0%)
Density matrix formation    ....       0.270 sec  (  1.8%)
Total Energy calculation    ....       0.043 sec  (  0.3%)
Population analysis         ....       0.089 sec  (  0.6%)
Orbital Transformation      ....       0.052 sec  (  0.3%)
Orbital Orthonormalization  ....       0.000 sec  (  0.0%)
DIIS solution               ....       0.413 sec  (  2.7%)
  MO trafo                  ....       0.000 sec  (  0.0 % of DIIS)
  Orb grad                  ....       0.000 sec  (  0.0 % of DIIS)
  Energy W gradient         ....       0.000 sec  (  0.0 % of DIIS)
  DIIS error                ....       0.006 sec  (  1.4 % of DIIS)
  DIIS work                 ....       0.356 sec  ( 86.1 % of DIIS)
  Form Q                    ....       0.000 sec  (  0.0 % of DIIS)
  Form QpQm                 ....       0.000 sec  (  0.0 % of DIIS)
  Exp/Cayley                ....       0.000 sec  (  0.0 % of DIIS)
  Orb update                ....       0.000 sec  (  0.0 % of DIIS)
  Wake-sleep                ....       0.025 sec  (  6.0 % of DIIS)
SOSCF solution              ....       0.064 sec  (  0.4%)
  MO trafo                  ....       0.047 sec  ( 73.1 % of SOSCF)
  Orb grad                  ....       0.001 sec  (  1.2 % of SOSCF)
  Rot update                ....       0.000 sec  (  0.0 % of SOSCF)
  Step                      ....       0.016 sec  ( 25.5 % of SOSCF)
Finished LeanSCF after  15.5 sec

Maximum memory used throughout the entire LEANSCF-calculation: 16.5 MB


-------------------------------------------------------------------------------
                          DFT DISPERSION CORRECTION                            
                                                                               
                                DFTD4 V3.4.0                                   
-------------------------------------------------------------------------------
The R2SCAN3C composite method is recognized
Using three-body term ABC
Active option DFTDOPT                   ...         5   

-------------------------   ----------------
Dispersion correction           -0.003599689
-------------------------   ----------------

------------------   -----------------
gCP correction             0.010782781
------------------   -----------------

-------------------------   --------------------
FINAL SINGLE POINT ENERGY      -213.719632781755
-------------------------   --------------------


------------------------------------------------------------------------------
                              ORCA PROPERTY CALCULATIONS
------------------------------------------------------------------------------

GBWName                                 ... sp_gas.gbw
Number of atoms                         ...     16
Number of basis functions               ...    155
Max core memory                         ...   1024 MB

Electric properties:
Dipole moment                           ... YES
Quadrupole moment                       ...  NO
Static polarizability (Dipole/Dipole)   ...  NO
Static polarizability (Dipole/Quad.)    ...  NO
Static polarizability (Quad./Quad.)     ...  NO
Static polarizability (Velocity)        ...  NO

Atomic electric properties:
Dipole moment                           ...  NO
Quadrupole moment                       ...  NO
Static polarizability                   ...  NO

Choice of electric origin               ... Center of mass
Position of electric origin             ...    -0.000009    -0.000006    -0.000003

General magnetic properties:
Magnetizability                         ...  NO

EPR properties:
g-Tensor (aka g-matrix)                 ...  NO
Zero-Field splitting spin-orbit         ...  NO
Zero-field splitting spin-spin          ...  NO
Hyperfine couplings                     ...  NO (   0 nuclei)
Quadrupole couplings                    ...  NO (   0 nuclei)
Contact density                         ...  NO (   0 nuclei)

NMR properties:
Chemical shifts                         ...  NO (   0 nuclei)
Spin-rotation constants                 ...  NO (   0 nuclei)
Spin-spin couplings                     ...  NO (   0 nuclei,    0 pairs)

Choice of magnetic origin               ... GIAO
Position of magnetic origin             ...     0.000000     0.000000     0.000000

Properties with geometric perturbations:
SCF Hessian                             ...  NO
IR spectrum                             ...  NO
VCD spectrum                            ...  NO
X-ray spectroscopy properties:
SCF XES/XAS/RIXS spectra                ...  NO


-------------
DIPOLE MOMENT
-------------

Method             : SCF
Type of density    : Electron Density
Multiplicity       :   1
Irrep              :   0
Energy             :  -213.7268158735720931 Eh
Relativity type    : 
Basis              : AO
                                X                 Y                 Z
Electronic contribution:     -1.512988928       0.161907648      -0.069620524
Nuclear contribution   :      1.054809091      -0.058724598       0.317464333
                        -----------------------------------------
Total Dipole Moment    :     -0.458179838       0.103183050       0.247843809
                        -----------------------------------------
Magnitude (a.u.)       :      0.531038661
Magnitude (Debye)      :      1.349793006



--------------------
Rotational spectrum 
--------------------
 
Rotational constants in cm-1:             0.241912             0.117533             0.089285 
Rotational constants in MHz :          7252.326514          3523.563364          2676.700505 

Dipole components along the rotational axes: 
x,y,z [a.u.] :    -0.457958     0.216501     0.159386 
x,y,z [Debye]:    -1.164037     0.550301     0.405127 

 

Dipole moment calculation done in   0.0 sec 

Maximum memory used throughout the entire PROP-calculation: 9.0 MB

--------------------------------
SUGGESTED CITATIONS FOR THIS RUN
--------------------------------

Below you find a list of papers that are relevant to this ORCA run
We neither can nor want to force you to cite these papers, but we appreciate if you do
You receive ORCA, which is the product of decades of hard work by many enthusiastic individuals, for free
The only thing we kindly ask in return is that you cite our papers,
We deeply appreciate it, if you show your appreciation for ORCA by not just citing the generic ORCA reference.

Please note that relegating all ORCA citations to the supporting information does *not* help us.
SI sections are not indexed - citations you put there will not count into any citation statistics
But we need these citations in order to attract the funding resources that allow us to do what we are doing

Therefore, if you are a happy ORCA user, please consider citing a few of the papers listed below in the main body of your paper

In addition to the list printed below, the program has created the file sp_gas.bibtex that contains the list in bibtex format
You can import this file easily into all common literature databanks and citation aid programs


List of essential papers. We consider these as the minimum necessary citations

  1. Neese,F.
     Software update: the ORCA program system, version 5.0
     WIRES Comput. Molec. Sci., 2022 12(1)e1606
     doi.org/10.1002/wcms.1606
  2. Grimme,S.; Hansen,A.; Ehlert,S.; Mewes,J.
     r2SCAN-3c: A 'Swiss army knife' composite electronic-structure method
     J. Chem. Phys., 2021 154 064103
     doi.org/10.1063/5.0040021

List of papers to cite with high priority. The work reported in these papers was absolutely
necessary for this run to complete.
Our perspective: the developers of density functionals and basis sets usually get cited in chemistry papers
Good! But without the algorithms to do something with them, the functionals or basis sets would not do anything.
Hence, in our opinion, the algorithm design and method developments papers are equally worthy of getting cited

  1. Neese,F.
     An improvement of the resolution of the identity approximation for the formation of the Coulomb matrix
     J. Comp. Chem., 2003 24(14)1740-1747
     doi.org/10.1002/jcc.10318
  2. Neese,F.
     The SHARK Integral Generation and Digestion System
     J. Comp. Chem., 2022  1-16
     doi.org/10.1002/jcc.26942
  3. Lehtola,S.; Steigemann,C.; Oliveira,M.; Marques,M.
     Recent developments in Libxc - A comprehensive library of functionals for density functional theory
     Software X, 2018 7 
     doi.org/10.1016/j.softx.2017.11.002
  4. Caldeweyher,E.; Bannwarth,C.; Grimme,S.
     Extension of the D3 dispersion coefficient model
     J. Chem. Phys., 2017 147 034112-XXXX
     doi.org/10.1063/1.4993215
  5. Caldeweyher,E.; Ehlert,S.; Hansen,A.; Neugebauer,H.; Spicher,S.; Bannwarth,C.; Grimme,S.
     A generally applicable atomic-charge dependent London dispersion correction
     J. Chem. Phys., 2019 150 154122-XXXX
     doi.org/10.1063/1.5090222
  6. Caldeweyher,E.; Mewes,J.; Ehlert,S.; Grimme,S.
     Extension and evaluation of the D4 London-dispersion model for periodic systems
     Phys. Chem. Chem. Phys., 2020 22(16)8499-8512
     doi.org/10.1039/D0CP00502A

List of suggested additional citations. These are papers that are important in the 'surrounding' of 
of this run, or papers that preceded the highly important papers. If you like your results we are grateful for a citation.

  1. Neese,F.
     The ORCA program system
     WIRES Comput. Molec. Sci., 2012 2(1)73-78
     doi.org/10.1002/wcms.81
  2. Neese,F.
     Software update: the ORCA program system, version 4.0
     WIRES Comput. Molec. Sci., 2018 8(1)1-6
     doi.org/10.1002/wcms.1327
  3. Neese,F.; Wennmohs,F.; Becker,U.; Riplinger,C.
     The ORCA quantum chemistry program package
     J. Chem. Phys., 2020 152 Art. No. L224108
     doi.org/10.1063/5.0004608

List of optional additional citations

  1. Neese,F.
     Approximate second-order SCF convergence for spin unrestricted wavefunctions
     Chem. Phys. Lett., 2000 325(1-3)93-98
     doi.org/10.1016/s0009-2614(00)00662-x

Timings for individual modules:

Sum of individual times          ...       16.889 sec (=   0.281 min)
Startup calculation              ...        1.003 sec (=   0.017 min)   5.9 %
SCF iterations                   ...       15.759 sec (=   0.263 min)  93.3 %
Property calculations            ...        0.127 sec (=   0.002 min)   0.8 %
                             ****ORCA TERMINATED NORMALLY****
TOTAL RUN TIME: 0 days 0 hours 0 minutes 17 seconds 733 msec
