
                                 *****************
                                 * O   R   C   A *
                                 *****************

                                            #,                                       
                                            ###                                      
                                            ####                                     
                                            #####                                    
                                            ######                                   
                                           ########,                                 
                                     ,,################,,,,,                         
                               ,,#################################,,                 
                          ,,##########################################,,             
                       ,#########################################, ''#####,          
                    ,#############################################,,   '####,        
                  ,##################################################,,,,####,       
                ,###########''''           ''''###############################       
              ,#####''   ,,,,##########,,,,          '''####'''          '####       
            ,##' ,,,,###########################,,,                        '##       
           ' ,,###''''                  '''############,,,                           
         ,,##''                                '''############,,,,        ,,,,,,###''
      ,#''                                            '''#######################'''  
     '                                                          ''''####''''         
             ,#######,   #######,   ,#######,      ##                                
            ,#'     '#,  ##    ##  ,#'     '#,    #''#        ,####,   ,####,        
            ##       ##  ##   ,#'  ##            #'  '#       #'       #'  '#        
            ##       ##  #######   ##           ,######,      #####,   #    #        
            '#,     ,#'  ##    ##  '#,     ,#' ,#      #,     #,   #   #,  ,#        
             '#######'   ##     ##  '#######'  #'      '#     '####' # '####'        



                #########################################################
                #                        -***-                          #
                #          Department of theory and spectroscopy        #
                #                                                       #
                #                      Frank Neese                      #
                #                                                       #
                #     Directorship, Architecture, Infrastructure        #
                #                    SHARK, DRIVERS                     #
                #        Core code/Algorithms in most modules           #
                #                                                       #
                #        Max Planck Institute fuer Kohlenforschung      #
                #                Kaiser Wilhelm Platz 1                 #
                #                 D-45470 Muelheim/Ruhr                 #
                #                      Germany                          #
                #                                                       #
                #                  All rights reserved                  #
                #                        -***-                          #
                #########################################################


                         Program Version 6.0.0  -   RELEASE  -


 With contributions from (in alphabetic order):
   Daniel Aravena         : Magnetic Suceptibility
   Michael Atanasov       : Ab Initio Ligand Field Theory (pilot matlab implementation)
   Alexander A. Auer      : GIAO ZORA, VPT2 properties, NMR spectrum
   Ute Becker             : All parallelization in ORCA, NUMFREQ, NUMCALC
   Giovanni Bistoni       : ED, misc. LED, open-shell LED, HFLD
   Martin Brehm           : Molecular dynamics
   Dmytro Bykov           : pre 5.0 version of the SCF Hessian
   Marcos Casanova-Páez   : Triplet and SCS-CIS(D). UHF-(DLPNO)-IP/EA/STEOM-CCSD. UHF-CVS-IP/STEOM-CCSD
   Vijay G. Chilkuri      : MRCI spin determinant printing, contributions to CSF-ICE
   Pauline Colinet        : FMM embedding
   Dipayan Datta          : RHF DLPNO-CCSD density
   Achintya Kumar Dutta   : EOM-CC, STEOM-CC
   Nicolas Foglia         : Exact transition moments, OPA infrastructure, MCD improvements
   Dmitry Ganyushin       : Spin-Orbit,Spin-Spin,Magnetic field MRCI
   Miquel Garcia          : C-PCM and meta-GGA Hessian, CCSD/C-PCM, Gaussian charge scheme
   Tiago L. C. Gouveia    : GS-ROHF, GS-ROCIS
   Yang Guo               : DLPNO-NEVPT2, F12-NEVPT2, CIM, IAO-localization
   Andreas Hansen         : Spin unrestricted coupled pair/coupled cluster methods
   Ingolf Harden          : AUTO-CI MPn and infrastructure 
   Benjamin Helmich-Paris : MC-RPA, TRAH-(SCF,CASSCF), AVAS, COSX integrals, SCF dyn. polar.
   Lee Huntington         : MR-EOM, pCC
   Robert Izsak           : Overlap fitted RIJCOSX, COSX-SCS-MP3, EOM
   Riya Kayal             : Wick's Theorem for AUTO-CI, AUTO-CI UHF-CCSDT
   Emily Kempfer          : AUTO-CI, RHF CISDT and CCSDT
   Christian Kollmar      : KDIIS, OOCD, Brueckner-CCSD(T), CCSD density, CASPT2, CASPT2-K, improved NEVPT2
   Axel Koslowski         : Symmetry handling
   Simone Kossmann        : Meta GGA functionals, TD-DFT gradient, OOMP2, (MP2 Hessian; deprecated post 5.0)
   Lucas Lang             : DCDCAS
   Marvin Lechner         : AUTO-CI (C++ implementation), FIC-MRCC
   Spencer Leger          : CASSCF response
   Dagmar Lenk            : GEPOL surface, SMD, ORCA-2-JSON
   Dimitrios Liakos       : Extrapolation schemes; Compound Job, initial MDCI parallelization
   Dimitrios Manganas     : Further ROCIS development; embedding schemes. LFT, Crystal Embedding
   Dimitrios Pantazis     : SARC Basis sets
   Anastasios Papadopoulos: AUTO-CI, single reference methods and gradients
   Taras Petrenko         : pre 6.0 DFT Hessian and TD-DFT gradient, (ASA, deprecated), ECA, 1-Electron XAS/XES, NRVS
   Peter Pinski           : DLPNO-MP2, DLPNO-MP2 Gradient
   Christoph Reimann      : Effective Core Potentials
   Marius Retegan         : Local ZFS, SOC
   Christoph Riplinger    : Optimizer, TS searches, QM/MM, DLPNO-CCSD(T), (RO)-DLPNO pert. Triples
   Michael Roemelt        : Original ROCIS implementation
   Masaaki Saitow         : Open-shell DLPNO-CCSD energy and density
   Barbara Sandhoefer     : DKH picture change effects
   Kantharuban Sivalingam : CASSCF convergence/infrastructure, NEVPT2 and variants, FIC-MRCI
   Bernardo de Souza      : ESD, SOC TD-DFT
   Georgi Stoychev        : AutoAux, RI-MP2 NMR, DLPNO-MP2 response, X2C
   Van Anh Tran           : RI-MP2 g-tensors
   Willem Van den Heuvel  : Paramagnetic NMR
   Zikuan Wang            : NOTCH, Electric field optimization 
   Frank Wennmohs         : Technical directorship and infrastructure
   Hang Xu                : AUTO-CI-Response properties 


 We gratefully acknowledge several colleagues who have allowed us to
 interface, adapt or use parts of their codes:
   Stefan Grimme, W. Hujo, H. Kruse, P. Pracht,  : VdW corrections, initial TS optimization,
                  C. Bannwarth, S. Ehlert,         DFT functionals, gCP, sTDA/sTD-DF
                  L. Wittmann, M. Mueller
   Ed Valeev, F. Pavosevic, A. Kumar             : LibInt (2-el integral package), F12 methods
   Garnet Chan, S. Sharma, J. Yang, R. Olivares  : DMRG
   Ulf Ekstrom                                   : XCFun DFT Library
   Mihaly Kallay                                 : mrcc  (arbitrary order and MRCC methods)
   Frank Weinhold                                : gennbo (NPA and NBO analysis)
   Simon Mueller                                 : openCOSMO-RS
   Christopher J. Cramer and Donald G. Truhlar   : smd solvation model
   Lars Goerigk                                  : TD-DFT with DH, B97 family of functionals
   V. Asgeirsson, H. Jonsson                     : NEB implementation
   FAccTs GmbH                                   : IRC, NEB, NEB-TS, DLPNO-Multilevel, CI-OPT
                                                   MM, QMMM, 2- and 3-layer-ONIOM, Crystal-QMMM,
                                                   LR-CPCM, SF, NACMEs, symmetry and pop. for TD-DFT,
                                                   nearIR, NL-DFT gradient (VV10), updates on ESD,
                                                   ML-optimized integration grids, MBIS, APM,
                                                   GOAT, DOCKER, SOLVATOR, interface openCOSMO-RS
   S Lehtola, MJT Oliveira, MAL Marques          : LibXC Library
   Liviu Ungur et al                             : ANISO software


 Your calculation uses the libint2 library for the computation of 2-el integrals
 For citations please refer to: http://libint.valeyev.net

 Your ORCA version has been built with support for libXC version: 6.2.2
 For citations please refer to: https://libxc.gitlab.io

 This ORCA versions uses:
   CBLAS   interface :  Fast vector & matrix operations
   LAPACKE interface :  Fast linear algebra routines
   SCALAPACK package :  Parallel linear algebra routines
   Shared memory     :  Shared parallel matrices
   BLAS/LAPACK       :  OpenBLAS 0.3.27  USE64BITINT DYNAMIC_ARCH NO_AFFINITY SkylakeX SINGLE_THREADED
        Core in use  :  SkylakeX
   Copyright (c) 2011-2014, The OpenBLAS Project


Your calculation utilizes the geometrical counterpoise correction gCP
Please cite in your paper:
H.Kruse, S. Grimme J.Chem.Phys., 136, (2012), 154101 
   

Your calculation utilizes the atom-pairwise dispersion correction
based on EEQ partial charges (D4)


Your calculation utilizes the SMD solvation module
Please cite in your paper:
A.V. Marenich, C.J. Cramer, D.G. Truhlar J. Phys. Chem. B, 113, (2009), 6378 

================================================================================

----- Orbital basis set information -----
Your calculation utilizes the basis: def2-mTZVPP
   Stefan Grimme, Andreas Hansen, Sebastian Ehlert, and Jan-Michael Mewes 
   J. Chem. Phys. 154, 064103 (2021). DOI: 10.1063/5.0040021

----- AuxJ basis set information -----
Your calculation utilizes the auxiliary basis: def2/J
   F. Weigend, Phys. Chem. Chem. Phys. 8, 1057 (2006).

================================================================================
                                        WARNINGS
                       Please study these warnings very carefully!
================================================================================

Using LibXC functional ID 497 : Re-regularized SCAN exchange by Furness et al
[ 1]  J. W. Furness, A. D. Kaplan, J. Ning, J. P. Perdew, and J. Sun.,  J. Phys. Chem. Lett. 11, 8208-8215 (2020)
[ 2]  J. W. Furness, A. D. Kaplan, J. Ning, J. P. Perdew, and J. Sun.,  J. Phys. Chem. Lett. 11, 9248-9248 (2020)
Using LibXC functional ID 498 : Re-regularized SCAN correlation by Furness et al
[ 1]  J. W. Furness, A. D. Kaplan, J. Ning, J. P. Perdew, and J. Sun.,  J. Phys. Chem. Lett. 11, 8208-8215 (2020)
[ 2]  J. W. Furness, A. D. Kaplan, J. Ning, J. P. Perdew, and J. Sun.,  J. Phys. Chem. Lett. 11, 9248-9248 (2020)
Using LibXC functional ID 497 : Re-regularized SCAN exchange by Furness et al
[ 1]  J. W. Furness, A. D. Kaplan, J. Ning, J. P. Perdew, and J. Sun.,  J. Phys. Chem. Lett. 11, 8208-8215 (2020)
[ 2]  J. W. Furness, A. D. Kaplan, J. Ning, J. P. Perdew, and J. Sun.,  J. Phys. Chem. Lett. 11, 9248-9248 (2020)
Using LibXC functional ID 498 : Re-regularized SCAN correlation by Furness et al
[ 1]  J. W. Furness, A. D. Kaplan, J. Ning, J. P. Perdew, and J. Sun.,  J. Phys. Chem. Lett. 11, 8208-8215 (2020)
[ 2]  J. W. Furness, A. D. Kaplan, J. Ning, J. P. Perdew, and J. Sun.,  J. Phys. Chem. Lett. 11, 9248-9248 (2020)

================================================================================
                                       INPUT FILE
================================================================================
NAME = sp_solv.inp
|  1> ! r2scan-3c def2/J RI DEFGRID2 scfconv6 printgap
|  2> %output
|  3>     printlevel normal
|  4> end
|  5> %cpcm
|  6>     smd true
|  7>     smdsolvent "water"
|  8> end
|  9> * xyz 0 1
| 10> C 1.5919307922 -0.8460277538 -0.4438105659
| 11> C 1.3024672511 0.5697201228 0.0385326548
| 12> C 0.0162720039 0.6709133859 0.8596436395
| 13> C -1.266410194 0.551641019 0.0337622554
| 14> N -1.4915132517 -0.807257894 -0.4431143206
| 15> H 1.7394339458 -1.511572095 0.4039647965
| 16> H 0.7570791689 -1.2150992485 -1.0311353172
| 17> H 2.4925804783 -0.8615274372 -1.0530607944
| 18> H 2.1359628754 0.9159545467 0.655131378
| 19> H 1.2276656465 1.2384420703 -0.8213609274
| 20> H 0.0179304567 -0.1023414454 1.6312590709
| 21> H -0.0037859112 1.6416873378 1.3600545905
| 22> H -1.1926381367 1.1991513815 -0.8450255711
| 23> H -2.1060458552 0.9218878857 0.6499066947
| 24> H -2.363514163 -0.8483612552 -0.9581992663
| 25> H -1.5716458196 -1.4361152397 0.3494358189
| 26> *
| 27> 
| 28>                          ****END OF INPUT****
================================================================================

                       ****************************
                       * Single Point Calculation *
                       ****************************

---------------------------------
CARTESIAN COORDINATES (ANGSTROEM)
---------------------------------
  C      1.591931   -0.846028   -0.443811
  C      1.302467    0.569720    0.038533
  C      0.016272    0.670913    0.859644
  C     -1.266410    0.551641    0.033762
  N     -1.491513   -0.807258   -0.443114
  H      1.739434   -1.511572    0.403965
  H      0.757079   -1.215099   -1.031135
  H      2.492580   -0.861527   -1.053061
  H      2.135963    0.915955    0.655131
  H      1.227666    1.238442   -0.821361
  H      0.017930   -0.102341    1.631259
  H     -0.003786    1.641687    1.360055
  H     -1.192638    1.199151   -0.845026
  H     -2.106046    0.921888    0.649907
  H     -2.363514   -0.848361   -0.958199
  H     -1.571646   -1.436115    0.349436

----------------------------
CARTESIAN COORDINATES (A.U.)
----------------------------
  NO LB      ZA    FRAG     MASS         X           Y           Z
   0 C     6.0000    0    12.011    3.008313   -1.598761   -0.838680
   1 C     6.0000    0    12.011    2.461306    1.076615    0.072816
   2 C     6.0000    0    12.011    0.030750    1.267843    1.624491
   3 C     6.0000    0    12.011   -2.393168    1.042450    0.063801
   4 N     7.0000    0    14.007   -2.818552   -1.525496   -0.837365
   5 H     1.0000    0     1.008    3.287054   -2.856457    0.763383
   6 H     1.0000    0     1.008    1.430672   -2.296205   -1.948563
   7 H     1.0000    0     1.008    4.710294   -1.628051   -1.989997
   8 H     1.0000    0     1.008    4.036385    1.730903    1.238019
   9 H     1.0000    0     1.008    2.319952    2.340316   -1.552147
  10 H     1.0000    0     1.008    0.033884   -0.193397    3.082633
  11 H     1.0000    0     1.008   -0.007154    3.102339    2.570131
  12 H     1.0000    0     1.008   -2.253759    2.266068   -1.596867
  13 H     1.0000    0     1.008   -3.979850    1.742116    1.228146
  14 H     1.0000    0     1.008   -4.466394   -1.603170   -1.810734
  15 H     1.0000    0     1.008   -2.969980   -2.713864    0.660338

--------------------------------
INTERNAL COORDINATES (ANGSTROEM)
--------------------------------
 C      0   0   0     0.000000000000     0.00000000     0.00000000
 C      1   0   0     1.523412673664     0.00000000     0.00000000
 C      2   1   0     1.529300997061   113.03526291     0.00000000
 C      3   2   1     1.530222068498   114.20752333   286.93551221
 N      4   3   2     1.457631267185   112.25229519    71.86525411
 H      1   2   3     1.087855466281   110.33911558   297.61051413
 H      1   2   3     1.085422205695   109.94835419    57.29847453
 H      1   2   3     1.087472270076   110.36487932   177.83455130
 H      2   1   3     1.093063226658   109.15271501   120.85581378
 H      2   1   3     1.091879707581   109.44086477   238.38260107
 H      3   2   1     1.092390112812   109.33799695    49.49120724
 H      3   2   1     1.092344041741   108.67595080   166.90441185
 H      4   3   2     1.094065825254   109.32114609   312.77216528
 H      4   3   2     1.105307539077   108.04639735   196.06714298
 H      5   4   3     1.013601290891   109.68902723   178.18036072
 H      5   4   3     1.014898277317   109.53397124    60.19076652

---------------------------
INTERNAL COORDINATES (A.U.)
---------------------------
 C      0   0   0     0.000000000000     0.00000000     0.00000000
 C      1   0   0     2.878832742169     0.00000000     0.00000000
 C      2   1   0     2.889960060778   113.03526291     0.00000000
 C      3   2   1     2.891700633544   114.20752333   286.93551221
 N      4   3   2     2.754523899221   112.25229519    71.86525411
 H      1   2   3     2.055748904561   110.33911558   297.61051413
 H      1   2   3     2.051150708441   109.94835419    57.29847453
 H      1   2   3     2.055024768678   110.36487932   177.83455130
 H      2   1   3     2.065590145444   109.15271501   120.85581378
 H      2   1   3     2.063353618515   109.44086477   238.38260107
 H      3   2   1     2.064318144618   109.33799695    49.49120724
 H      3   2   1     2.064231082911   108.67595080   166.90441185
 H      4   3   2     2.067484782212   109.32114609   312.77216528
 H      4   3   2     2.088728542614   108.04639735   196.06714298
 H      5   4   3     1.915428848774   109.68902723   178.18036072
 H      5   4   3     1.917879797917   109.53397124    60.19076652

---------------------
BASIS SET INFORMATION
---------------------
There are 3 groups of distinct atoms

 Group   1 Type C   : 11s6p1d contracted to 5s3p1d pattern {62111/411/1}
 Group   2 Type N   : 11s6p2d contracted to 5s3p2d pattern {62111/411/11}
 Group   3 Type H   : 4s1p contracted to 2s1p pattern {31/1}

Atom   0C    basis set group =>   1
Atom   1C    basis set group =>   1
Atom   2C    basis set group =>   1
Atom   3C    basis set group =>   1
Atom   4N    basis set group =>   2
Atom   5H    basis set group =>   3
Atom   6H    basis set group =>   3
Atom   7H    basis set group =>   3
Atom   8H    basis set group =>   3
Atom   9H    basis set group =>   3
Atom  10H    basis set group =>   3
Atom  11H    basis set group =>   3
Atom  12H    basis set group =>   3
Atom  13H    basis set group =>   3
Atom  14H    basis set group =>   3
Atom  15H    basis set group =>   3
---------------------------------
AUXILIARY/J BASIS SET INFORMATION
---------------------------------
There are 3 groups of distinct atoms

 Group   1 Type C   : 12s5p4d2f1g contracted to 6s4p3d1f1g pattern {711111/2111/211/2/1}
 Group   2 Type N   : 12s5p4d2f1g contracted to 6s4p3d1f1g pattern {711111/2111/211/2/1}
 Group   3 Type H   : 5s2p1d contracted to 3s1p1d pattern {311/2/1}

Atom   0C    basis set group =>   1
Atom   1C    basis set group =>   1
Atom   2C    basis set group =>   1
Atom   3C    basis set group =>   1
Atom   4N    basis set group =>   2
Atom   5H    basis set group =>   3
Atom   6H    basis set group =>   3
Atom   7H    basis set group =>   3
Atom   8H    basis set group =>   3
Atom   9H    basis set group =>   3
Atom  10H    basis set group =>   3
Atom  11H    basis set group =>   3
Atom  12H    basis set group =>   3
Atom  13H    basis set group =>   3
Atom  14H    basis set group =>   3
Atom  15H    basis set group =>   3

Checking for AutoStart:
The File: sp_solv.gbw exists
Trying to determine its content:
     ... Fine, the file contains calculation information
     ... Fine, the calculation information was read
     ... Fine, the file contains a basis set
     ... Fine, the basis set was read
     ... Fine, the file contains a geometry
     ... Fine, the geometry was read
     ... Fine, the file contains a set of orbitals
     ... Fine, the orbitals can be read
     => possible old guess file was deleted
     => GBW file was renamed to GES file
     => GES file is set as startup file
     => Guess is set to MORead
     ... now leaving AutoStart

------------------------------------------------------------------------------
                             ORCA STARTUP CALCULATIONS
                           -- RI-GTO INTEGRALS CHOSEN --
------------------------------------------------------------------------------
------------------------------------------------------------------------------
                   ___                                                        
                  /   \      - P O W E R E D   B Y -                         
                 /     \                                                     
                 |  |  |   _    _      __       _____    __    __             
                 |  |  |  | |  | |    /  \     |  _  \  |  |  /  |          
                  \  \/   | |  | |   /    \    | | | |  |  | /  /          
                 / \  \   | |__| |  /  /\  \   | |_| |  |  |/  /          
                |  |  |   |  __  | /  /__\  \  |    /   |      \           
                |  |  |   | |  | | |   __   |  |    \   |  |\   \          
                \     /   | |  | | |  |  |  |  | |\  \  |  | \   \       
                 \___/    |_|  |_| |__|  |__|  |_| \__\ |__|  \__/        
                                                                              
                      - O R C A' S   B I G   F R I E N D -                    
                                      &                                       
                       - I N T E G R A L  F E E D E R -                       
                                                                              
 v1 FN, 2020, v2 2021, v3 2022-2024                                           
------------------------------------------------------------------------------


----------------------
SHARK INTEGRAL PACKAGE
----------------------

Number of atoms                             ...     16
Number of basis functions                   ...    155
Number of shells                            ...     79
Maximum angular momentum                    ...      2
Integral batch strategy                     ... SHARK/LIBINT Hybrid
RI-J (if used) integral strategy            ... SPLIT-RIJ (Revised 2003 algorithm where possible)
Printlevel                                  ...      1
Contraction scheme used                     ... SEGMENTED contraction
Prescreening option                         ... SCHWARTZ
   Thresh                                   ... 1.000e-10
   Tcut                                     ... 1.000e-11
   Tpresel                                  ... 1.000e-11 
Coulomb Range Separation                    ... NOT USED
Exchange Range Separation                   ... NOT USED
Multipole approximations                    ... NOT USED
Finite Nucleus Model                        ... NOT USED
CABS basis                                  ... NOT available
Auxiliary Coulomb fitting basis             ... AVAILABLE
   # of basis functions in Aux-J            ...    366
   # of shells in Aux-J                     ...    130
   Maximum angular momentum in Aux-J        ...      4
Auxiliary J/K fitting basis                 ... NOT available
Auxiliary Correlation fitting basis         ... NOT available
Auxiliary 'external' fitting basis          ... NOT available

Checking pre-screening integrals            ... done (  0.0 sec) Dimension = 79
Check shell pair data                       ... done (  0.0 sec)
Shell pair information
Shell pair cut-off parameter TPreSel        ...   1.0e-11
Total number of shell pairs                 ...      3160
Shell pairs after pre-screening             ...      3023
Total number of primitive shell pairs       ...     10874
Primitive shell pairs kept                  ...      7857
          la=0 lb=0:   1070 shell pairs
          la=1 lb=0:   1165 shell pairs
          la=1 lb=1:    334 shell pairs
          la=2 lb=0:    278 shell pairs
          la=2 lb=1:    155 shell pairs
          la=2 lb=2:     21 shell pairs

Calculating one electron integrals          ... done (  0.0 sec)
Calculating RI/J V-Matrix + Cholesky decomp.... done (  0.1 sec)
Calculating Nuclear repulsion               ... done (  0.0 sec) ENN=    193.557428663981 Eh

Diagonalization of the overlap matrix:
Smallest eigenvalue                        ... 2.829e-04
Time for diagonalization                   ...    0.002 sec
Threshold for overlap eigenvalues          ... 1.000e-07
Number of eigenvalues below threshold      ... 0
Time for construction of square roots      ...    0.014 sec
Total time needed                          ...    0.025 sec

-------------------
DFT GRID GENERATION
-------------------

General Integration Accuracy     IntAcc      ... 4.388
Radial Grid Type                 RadialGrid  ... OptM3 with GC (2021)
Angular Grid (max. ang.)         AngularGrid ... 4 (Lebedev-302)
Angular grid pruning method      GridPruning ... 4 (adaptive)
Weight generation scheme         WeightScheme... mBecke (2022)
Basis function cutoff            BFCut       ... 1.0000e-10
Integration weight cutoff        WCut        ... 1.0000e-14
Partially contracted basis set               ... off
Rotationally invariant grid construction     ... off
Angular grids for H and He will be reduced by one unit

Total number of grid points                  ...    65437
Total number of batches                      ...     1032
Average number of points per batch           ...       63
Average number of grid points per atom       ...     4090
Initializing property integral containers    ... done (  0.0 sec)

SHARK setup successfully completed in   0.9 seconds

Maximum memory used throughout the entire STARTUP-calculation: 27.3 MB
-------------------------------------------------------------------------------
                                 ORCA GUESS
                   Start orbitals & Density for SCF / CASSCF
-------------------------------------------------------------------------------

------------
SCF SETTINGS
------------
Hamiltonian:
 Density Functional     Method          .... DFT(GTOs)
  Functional kind                       .... Exchange
  Functional name                       .... Re-regularized SCAN exchange by Furness et al
  Functional family                     .... MGGA
  Functional refs                              
    [ 0] J. W. Furness, A. D. Kaplan, J. Ning, J. P. Perdew, and J. Sun.,  J. Phys. Chem. Lett. 11, 8208-8215 (2020), doi: 10.1021/acs.jpclett.0c02405
    [ 1] J. W. Furness, A. D. Kaplan, J. Ning, J. P. Perdew, and J. Sun.,  J. Phys. Chem. Lett. 11, 9248-9248 (2020), doi: 10.1021/acs.jpclett.0c03077
  Functional external parameters        .... 6
    Parameter  0 _c1        =  6.670000e-01 : c1 parameter        
    Parameter  1 _c2        =  8.000000e-01 : c2 parameter        
    Parameter  2 _d         =  1.240000e+00 : d parameter         
    Parameter  3 _k1        =  6.500000e-02 : k1 parameter        
    Parameter  4 _eta       =  1.000000e-03 : eta parameter       
    Parameter  5 _dp2       =  3.610000e-01 : dp2 parameter       
  Functional kind                       .... Correlation
  Functional name                       .... Re-regularized SCAN correlation by Furness et al
  Functional family                     .... MGGA
  Functional refs                              
    [ 0] J. W. Furness, A. D. Kaplan, J. Ning, J. P. Perdew, and J. Sun.,  J. Phys. Chem. Lett. 11, 8208-8215 (2020), doi: 10.1021/acs.jpclett.0c02405
    [ 1] J. W. Furness, A. D. Kaplan, J. Ning, J. P. Perdew, and J. Sun.,  J. Phys. Chem. Lett. 11, 9248-9248 (2020), doi: 10.1021/acs.jpclett.0c03077
  Functional external parameters        .... 1
    Parameter  0 _eta       =  1.000000e-03 : Regularization parameter
 Gradients option       PostSCFGGA      .... off
 RI-approximation to the Coulomb term is turned on
   Number of AuxJ basis functions       .... 366


General Settings:
 Integral files         IntName         .... sp_solv
 Hartree-Fock type      HFTyp           .... RHF
 Total Charge           Charge          ....    0
 Multiplicity           Mult            ....    1
 Number of Electrons    NEL             ....   42
 Basis Dimension        Dim             ....  155
 Nuclear Repulsion      ENuc            ....    193.5574286640 Eh

Convergence Acceleration:
 AO-DIIS                CNVDIIS         .... on
   Start iteration      DIISMaxIt       ....    12
   Startup error        DIISStart       ....  0.200000
   # of expansion vecs  DIISMaxEq       ....     5
   Bias factor          DIISBfac        ....   1.050
   Max. coefficient     DIISMaxC        ....  10.000
 MO-DIIS                CNVKDIIS        .... off
 Trust-Rad. Augm. Hess. CNVTRAH         .... auto
   Auto Start mean grad. ratio tolernc. ....  1.125000
   Auto Start start iteration           ....     1
   Auto Start num. interpolation iter.  ....    10
   Max. Number of Micro iterations      ....    24
   Max. Number of Macro iterations      .... Maxiter - #DIIS iter
   Number of Davidson start vectors     ....     2
   Converg. threshold    (grad. norm)   ....   3.330e-04
   Grad. Scal. Fac. for Micro threshold ....   0.100
   Minimum threshold for Micro iter.    ....   1.000e-02
   NR start threshold (gradient norm)   ....   1.000e-04
   Initial trust radius                 ....   0.400
   Minimum AH scaling param. (alpha)    ....   1.000
   Maximum AH scaling param. (alpha)    .... 1000.000
   Quad. conv. algorithm                .... NR
   White noise on init. David. guess    .... on
   Maximum white noise                  ....   0.010
   Pseudo random numbers                .... off
   Inactive MOs                         .... canonical
   Orbital update algorithm             .... Taylor
   Preconditioner                       .... Diag
   Full preconditioner red. dimension   ....   250
   COSX micro iterations for RIJONX calc.... off
 SOSCF                  CNVSOSCF        .... on
   Start iteration      SOSCFMaxIt      ....   150
   Startup grad/error   SOSCFStart      ....  0.003300
   Hessian update       SOSCFHessUp     .... L-BFGS
 Level Shifting         CNVShift        .... on
   Level shift para.    LevelShift      ....    0.2500
   Turn off err/grad.   ShiftErr        ....    0.0010
 Zerner damping         CNVZerner       .... off
 Static damping         CNVDamp         .... on
   Fraction old density DampFac         ....    0.7000
   Max. Damping (<1)    DampMax         ....    0.9800
   Min. Damping (>=0)   DampMin         ....    0.0000
   Turn off err/grad.   DampErr         ....    0.1000

SCF Procedure:
 Maximum # iterations   MaxIter         ....   125
 SCF integral mode      SCFMode         .... Direct
   Integral package                     .... SHARK and LIBINT hybrid scheme
 Reset frequency        DirectResetFreq ....    20
 Integral Threshold     Thresh          ....  1.000e-10 Eh
 Primitive CutOff       TCut            ....  1.000e-11 Eh

Convergence Tolerance:
 Convergence Check Mode ConvCheckMode   .... Total+1el-Energy
 Convergence forced     ConvForced      .... 0
 Energy Change          TolE            ....  1.000e-06 Eh
 1-El. energy change                    ....  1.000e-03 Eh
 Orbital Gradient       TolG            ....  3.330e-04
 Orbital Rotation angle TolX            ....  3.330e-04
 DIIS Error             TolErr          ....  1.000e-06

---------------------
INITIAL GUESS: MOREAD
---------------------
Guess MOs are being read from file: sp_solv.ges
Input Geometry matches current geometry (good)
Atom 0: N(Shells)= 9 and 6 - projection required
Input basis set needs projection
NBasis(read)= 92
NBasis(calc)= 155
Basis set overlap was calculated
Using GuessMode=FMatrix for the initial guess
C*T matrix was formed
Effective Fockian was calculated
Effective Fockian was diagonalized
Initial density was built
                      ------------------
                      INITIAL GUESS DONE (   0.0 sec)
                      ------------------
             **** ENERGY FILE WAS UPDATED (sp_solv.en.tmp) ****
Finished Guess after   0.3 sec
Maximum memory used throughout the entire GUESS-calculation: 10.7 MB

-------------------------------------------------------------------------------------------
                                      ORCA LEAN-SCF
                              memory conserving SCF solver
-------------------------------------------------------------------------------------------

--------------------
CPCM SOLVATION MODEL
--------------------
CPCM parameters:
  Epsilon                                         ...      78.3550
  Refrac                                          ...       1.3328
  Rsolv                                           ...       1.3000
  Surface type                                    ... GAUSSIAN VDW
  Discretization scheme                           ... Constant charge density
    Threshold for H atoms                         ...       5.0000 (charges/Ang^2)
    Threshold for non-H atoms                     ...       5.0000 (charges/Ang^2)
  Epsilon function type                           ...         CPCM
Solvent:                                          ... WATER
SMD-CDS solvent descriptors:
  Soln                                            ...       1.3328
  Soln25                                          ...       1.3323
  Sola                                            ...       0.0000
  Solb                                            ...       0.0000
  Solg                                            ...       0.0000
  Solc                                            ...       0.0000
  Solh                                            ...       0.0000
Radii:
  Scheme                                          ... Element-dependent radii
  Radius for C  used is    3.4960 Bohr (=   1.8500 Ang.)
  Radius for N  used is    3.5716 Bohr (=   1.8900 Ang.)
  Radius for H  used is    2.2677 Bohr (=   1.2000 Ang.)
Calculating surface                               ...        done! (  0.0s)
Cavity surface points                             ...         1180
Cavity Volume                                     ...     666.6817
Cavity Surface-area                               ...     439.9157
Calculating surface distance matrix               ...        done! (  0.0s)
Performing Cholesky decomposition & store         ...        done! (  0.1s)
Overall time for CPCM initialization              ...                 0.1s

----------------------------------------D-I-I-S--------------------------------------------
Iteration    Energy (Eh)           Delta-E    RMSDP     MaxDP     DIISErr   Damp  Time(sec)
-------------------------------------------------------------------------------------------
               ***  Starting incremental Fock matrix formation  ***
    1    -213.6061497612035964     0.00e+00  3.88e-03  1.10e-01  4.43e-01  0.700   2.0
    2    -213.6435381078397313    -3.74e-02  3.19e-03  7.91e-02  3.11e-01  0.700   2.1
    3    -213.6701369307560299    -2.66e-02  2.37e-03  5.79e-02  2.18e-01  0.700   1.9
                               ***Turning on AO-DIIS***
    4    -213.6888523080392019    -1.87e-02  1.74e-03  4.21e-02  1.53e-01  0.700   1.9
    5    -213.7019994029579379    -1.31e-02  1.25e-03  2.98e-02  1.07e-01  0.700   1.8
    6    -213.7112318603205949    -9.23e-03  8.88e-04  2.10e-02  7.47e-02  0.700   1.8
    7    -213.7177098826965675    -6.48e-03  2.09e-03  4.93e-02  5.23e-02  0.000   1.8
                              *** Initializing SOSCF ***
---------------------------------------S-O-S-C-F--------------------------------------
Iteration    Energy (Eh)           Delta-E    RMSDP     MaxDP     MaxGrad    Time(sec)
--------------------------------------------------------------------------------------
    8    -213.7328757263033481    -1.52e-02  2.96e-05  6.04e-04  5.55e-04     1.8
               *** Restarting incremental Fock matrix formation ***
    9    -213.7328759877584616    -2.61e-07  2.32e-05  6.75e-04  1.05e-04     2.0
   10    -213.7328754290621760     5.59e-07  1.32e-05  2.46e-04  1.70e-04     1.6
                 **** Energy Check signals convergence ****

               *****************************************************
               *                     SUCCESS                       *
               *           SCF CONVERGED AFTER  10 CYCLES          *
               *****************************************************


SMD CDS free energy correction energy :                 2.44093     Kcal/mol
Total Energy after SMD CDS correction =              -213.728985563 Eh
             **** ENERGY FILE WAS UPDATED (sp_solv.en.tmp) ****

----------------
TOTAL SCF ENERGY
----------------

Total Energy       :       -213.72898556261242 Eh           -5815.86137 eV

Components:
Nuclear Repulsion  :        193.55742866398072 Eh            5266.96540 eV
Electronic Energy  :       -407.28329713073958 Eh          -11082.74195 eV
One Electron Energy:       -670.53609226012406 Eh          -18246.21469 eV
Two Electron Energy:        263.25279512938448 Eh            7163.47274 eV
CPCM Dielectric    :         -0.00700696230331 Eh              -0.19067 eV
SMD CDS (Gcds)     :          0.00388986644977 Eh               0.10585 eV

Virial components:
Potential Energy   :       -426.47385384231461 Eh          -11604.94355 eV
Kinetic Energy     :        212.74486827970219 Eh            5789.08218 eV
Virial Ratio       :          2.00462580973571

DFT components:
N(Alpha)           :       20.999948741922 electrons
N(Beta)            :       20.999948741922 electrons
N(Total)           :       41.999897483843 electrons
E(X)               :      -31.385320606487 Eh       
E(C)               :       -1.299546621803 Eh       
E(XC)              :      -32.684867228290 Eh       

CPCM Solvation Model Properties:
Surface-charge          :         -0.04045321363288
Corrected charge        :          0.00000000000000
Outlying charge corr.   :          0.00014189659824 Eh               0.00386 eV
Free-energy (cav+disp)  :          0.00388986644977 Eh               0.10585 eV

---------------
SCF CONVERGENCE
---------------

  Last Energy change         ...   -5.5870e-07  Tolerance :   1.0000e-06
  Last MAX-Density change    ...    2.4590e-04  Tolerance :   1.0000e-05
  Last RMS-Density change    ...    1.3161e-05  Tolerance :   1.0000e-06
  Last DIIS Error            ...    5.5476e-04  Tolerance :   1.0000e-06
  Last Orbital Gradient      ...    1.7011e-04  Tolerance :   3.3300e-04
  Last Orbital Rotation      ...    9.9308e-05  Tolerance :   3.3300e-04


----------------
ORBITAL ENERGIES
----------------

  NO   OCC          E(Eh)            E(eV) 
   0   2.0000     -14.124250      -384.3404 
   1   2.0000     -10.040446      -273.2144 
   2   2.0000     -10.013605      -272.4840 
   3   2.0000     -10.013233      -272.4739 
   4   2.0000      -9.998756      -272.0800 
   5   2.0000      -0.838010       -22.8034 
   6   2.0000      -0.740425       -20.1480 
   7   2.0000      -0.663285       -18.0489 
   8   2.0000      -0.580515       -15.7966 
   9   2.0000      -0.527458       -14.3529 
  10   2.0000      -0.443681       -12.0732 
  11   2.0000      -0.424610       -11.5542 
  12   2.0000      -0.414114       -11.2686 
  13   2.0000      -0.370236       -10.0746 
  14   2.0000      -0.366716        -9.9788 
  15   2.0000      -0.337994        -9.1973 
  16   2.0000      -0.314789        -8.5658 
  17   2.0000      -0.292505        -7.9595 
  18   2.0000      -0.290382        -7.9017 
  19   2.0000      -0.281392        -7.6571 
  20   2.0000      -0.195078        -5.3084 
  21   0.0000       0.088285         2.4024 
  22   0.0000       0.116393         3.1672 
  23   0.0000       0.126907         3.4533 
  24   0.0000       0.132784         3.6132 
  25   0.0000       0.139935         3.8078 
  26   0.0000       0.146663         3.9909 
  27   0.0000       0.167163         4.5487 
  28   0.0000       0.176210         4.7949 
  29   0.0000       0.183572         4.9952 
  30   0.0000       0.191979         5.2240 
  31   0.0000       0.206504         5.6193 
*Only the first 10 virtual orbitals were printed.

                    ********************************
                    * MULLIKEN POPULATION ANALYSIS *
                    ********************************

-----------------------
MULLIKEN ATOMIC CHARGES
-----------------------
   0 C :   -0.555325
   1 C :   -0.232008
   2 C :   -0.230755
   3 C :   -0.248269
   4 N :   -0.628212
   5 H :    0.151027
   6 H :    0.181525
   7 H :    0.146836
   8 H :    0.148025
   9 H :    0.137653
  10 H :    0.141657
  11 H :    0.151658
  12 H :    0.153506
  13 H :    0.128973
  14 H :    0.276962
  15 H :    0.276748
Sum of atomic charges:   -0.0000000

--------------------------------
MULLIKEN REDUCED ORBITAL CHARGES
--------------------------------
  0 C s       :     3.360183  s :     3.360183
      pz      :     1.093435  p :     3.168162
      px      :     1.117207
      py      :     0.957520
      dz2     :     0.001948  d :     0.026981
      dxz     :     0.006439
      dyz     :     0.007792
      dx2y2   :     0.006807
      dxy     :     0.003995

  1 C s       :     3.193626  s :     3.193626
      pz      :     1.038731  p :     3.001145
      px      :     1.002825
      py      :     0.959589
      dz2     :     0.003949  d :     0.037237
      dxz     :     0.008522
      dyz     :     0.009682
      dx2y2   :     0.009058
      dxy     :     0.006026

  2 C s       :     3.176157  s :     3.176157
      pz      :     0.990431  p :     3.018361
      px      :     0.914100
      py      :     1.113829
      dz2     :     0.003937  d :     0.036238
      dxz     :     0.009495
      dyz     :     0.008842
      dx2y2   :     0.010397
      dxy     :     0.003568

  3 C s       :     3.304313  s :     3.304313
      pz      :     1.031092  p :     2.894137
      px      :     1.018627
      py      :     0.844418
      dz2     :     0.005173  d :     0.049820
      dxz     :     0.009166
      dyz     :     0.013681
      dx2y2   :     0.011744
      dxy     :     0.010055

  4 N s       :     3.550645  s :     3.550645
      pz      :     1.394038  p :     4.038810
      px      :     1.491453
      py      :     1.153319
      dz2     :     0.004258  d :     0.038757
      dxz     :     0.004048
      dyz     :     0.013651
      dx2y2   :     0.013869
      dxy     :     0.002931

  5 H s       :     0.830653  s :     0.830653
      pz      :     0.007991  p :     0.018320
      px      :     0.003908
      py      :     0.006421

  6 H s       :     0.798943  s :     0.798943
      pz      :     0.005543  p :     0.019533
      px      :     0.009620
      py      :     0.004370

  7 H s       :     0.834820  s :     0.834820
      pz      :     0.006084  p :     0.018345
      px      :     0.008618
      py      :     0.003642

  8 H s       :     0.834142  s :     0.834142
      pz      :     0.005761  p :     0.017833
      px      :     0.007815
      py      :     0.004257

  9 H s       :     0.844425  s :     0.844425
      pz      :     0.008168  p :     0.017922
      px      :     0.003454
      py      :     0.006300

 10 H s       :     0.840358  s :     0.840358
      pz      :     0.007344  p :     0.017985
      px      :     0.003416
      py      :     0.007225

 11 H s       :     0.830486  s :     0.830486
      pz      :     0.005171  p :     0.017856
      px      :     0.003368
      py      :     0.009316

 12 H s       :     0.829022  s :     0.829022
      pz      :     0.008239  p :     0.017472
      px      :     0.003499
      py      :     0.005734

 13 H s       :     0.853848  s :     0.853848
      pz      :     0.005694  p :     0.017180
      px      :     0.007642
      py      :     0.003844

 14 H s       :     0.690835  s :     0.690835
      pz      :     0.010874  p :     0.032202
      px      :     0.016095
      py      :     0.005233

 15 H s       :     0.691205  s :     0.691205
      pz      :     0.013675  p :     0.032048
      px      :     0.007844
      py      :     0.010530


------------------------
MULLIKEN OVERLAP CHARGES
------------------------
B(  0-C ,  1-C ) :   0.4308 B(  0-C ,  2-C ) :  -0.2530 B(  0-C ,  5-H ) :   0.8483 
B(  0-C ,  6-H ) :   0.8820 B(  0-C ,  7-H ) :   0.7869 B(  0-C ,  8-H ) :  -0.0540 
B(  0-C ,  9-H ) :  -0.0616 B(  1-C ,  2-C ) :   0.4492 B(  1-C ,  3-C ) :  -0.2275 
B(  1-C ,  4-N ) :   0.0663 B(  1-C ,  5-H ) :  -0.0912 B(  1-C ,  6-H ) :  -0.1215 
B(  1-C ,  7-H ) :  -0.0686 B(  1-C ,  8-H ) :   0.8121 B(  1-C ,  9-H ) :   0.8509 
B(  1-C , 10-H ) :  -0.1208 B(  2-C ,  3-C ) :   0.4591 B(  2-C ,  4-N ) :  -0.2540 
B(  2-C ,  8-H ) :  -0.0846 B(  2-C ,  9-H ) :  -0.1109 B(  2-C , 10-H ) :   0.8477 
B(  2-C , 11-H ) :   0.7925 B(  2-C , 12-H ) :  -0.0632 B(  2-C , 13-H ) :  -0.1214 
B(  3-C ,  4-N ) :   0.2966 B(  3-C , 11-H ) :  -0.0787 B(  3-C , 12-H ) :   0.9087 
B(  3-C , 13-H ) :   0.8406 B(  4-N , 12-H ) :  -0.1461 B(  4-N , 13-H ) :  -0.0816 
B(  4-N , 14-H ) :   0.6637 B(  4-N , 15-H ) :   0.7036 B( 12-H , 13-H ) :  -0.0669 



                     *******************************
                     * LOEWDIN POPULATION ANALYSIS *
                     *******************************

----------------------
LOEWDIN ATOMIC CHARGES
----------------------
   0 C :   -0.443476
   1 C :   -0.318312
   2 C :   -0.292625
   3 C :   -0.077377
   4 N :   -0.764671
   5 H :    0.150243
   6 H :    0.165490
   7 H :    0.146463
   8 H :    0.151776
   9 H :    0.153686
  10 H :    0.159375
  11 H :    0.160050
  12 H :    0.171540
  13 H :    0.151302
  14 H :    0.243567
  15 H :    0.242969

-------------------------------
LOEWDIN REDUCED ORBITAL CHARGES
-------------------------------
  0 C s       :     2.976681  s :     2.976681
      pz      :     1.156321  p :     3.403702
      px      :     1.156349
      py      :     1.091031
      dz2     :     0.004307  d :     0.063093
      dxz     :     0.016225
      dyz     :     0.018054
      dx2y2   :     0.016199
      dxy     :     0.008308

  1 C s       :     2.938398  s :     2.938398
      pz      :     1.120096  p :     3.299774
      px      :     1.089185
      py      :     1.090492
      dz2     :     0.007934  d :     0.080140
      dxz     :     0.019480
      dyz     :     0.021278
      dx2y2   :     0.019946
      dxy     :     0.011502

  2 C s       :     2.937940  s :     2.937940
      pz      :     1.095052  p :     3.277047
      px      :     1.051753
      py      :     1.130242
      dz2     :     0.006948  d :     0.077638
      dxz     :     0.020279
      dyz     :     0.020647
      dx2y2   :     0.023915
      dxy     :     0.005849

  3 C s       :     2.871491  s :     2.871491
      pz      :     1.070738  p :     3.094705
      px      :     1.050903
      py      :     0.973064
      dz2     :     0.009901  d :     0.111181
      dxz     :     0.021799
      dyz     :     0.032134
      dx2y2   :     0.026214
      dxy     :     0.021133

  4 N s       :     3.245585  s :     3.245585
      pz      :     1.423144  p :     4.199942
      px      :     1.509038
      py      :     1.267760
      dz2     :     0.028397  d :     0.319145
      dxz     :     0.038462
      dyz     :     0.103546
      dx2y2   :     0.090390
      dxy     :     0.058349

  5 H s       :     0.806038  s :     0.806038
      pz      :     0.019649  p :     0.043719
      px      :     0.008783
      py      :     0.015287

  6 H s       :     0.786010  s :     0.786010
      pz      :     0.013659  p :     0.048500
      px      :     0.024431
      py      :     0.010410

  7 H s       :     0.809624  s :     0.809624
      pz      :     0.014311  p :     0.043913
      px      :     0.021356
      py      :     0.008246

  8 H s       :     0.805077  s :     0.805077
      pz      :     0.014028  p :     0.043147
      px      :     0.019143
      py      :     0.009976

  9 H s       :     0.803163  s :     0.803163
      pz      :     0.020085  p :     0.043150
      px      :     0.007938
      py      :     0.015127

 10 H s       :     0.797355  s :     0.797355
      pz      :     0.017507  p :     0.043270
      px      :     0.008027
      py      :     0.017735

 11 H s       :     0.796397  s :     0.796397
      pz      :     0.012288  p :     0.043554
      px      :     0.008205
      py      :     0.023060

 12 H s       :     0.788366  s :     0.788366
      pz      :     0.020323  p :     0.040094
      px      :     0.007848
      py      :     0.011922

 13 H s       :     0.808256  s :     0.808256
      pz      :     0.013326  p :     0.040442
      px      :     0.018348
      py      :     0.008769

 14 H s       :     0.670298  s :     0.670298
      pz      :     0.027676  p :     0.086135
      px      :     0.044782
      py      :     0.013678

 15 H s       :     0.671014  s :     0.671014
      pz      :     0.037226  p :     0.086017
      px      :     0.020584
      py      :     0.028208


---------------------------------
LOEWDIN BOND ORDERS (THRESH 0.050000)
---------------------------------
B(  0-C ,  1-C ) :   1.1420 B(  0-C ,  2-C ) :   0.0647 B(  0-C ,  4-N ) :   0.0569 
B(  0-C ,  5-H ) :   0.9302 B(  0-C ,  6-H ) :   0.9065 B(  0-C ,  7-H ) :   0.9301 
B(  1-C ,  2-C ) :   1.1102 B(  1-C ,  3-C ) :   0.0613 B(  1-C ,  8-H ) :   0.8973 
B(  1-C ,  9-H ) :   0.8948 B(  2-C ,  3-C ) :   1.0488 B(  2-C ,  4-N ) :   0.1542 
B(  2-C , 10-H ) :   0.8854 B(  2-C , 11-H ) :   0.8846 B(  3-C ,  4-N ) :   1.4067 
B(  3-C , 12-H ) :   0.8316 B(  3-C , 13-H ) :   0.8356 B(  4-N , 12-H ) :   0.0983 
B(  4-N , 13-H ) :   0.1092 B(  4-N , 14-H ) :   0.9345 B(  4-N , 15-H ) :   0.9366 


------------------------------------------
LOEWDIN REDUCED ORBITAL POPULATIONS PER MO
-------------------------------------------
THRESHOLD FOR PRINTING IS 0.1%%
                      0         1         2         3         4         5   
                 -14.12425 -10.04045 -10.01360 -10.01323  -9.99876  -0.83801
                   2.00000   2.00000   2.00000   2.00000   2.00000   2.00000
                  --------  --------  --------  --------  --------  --------
 0 C  s               0.0       0.0       0.0       0.0      99.7       0.3
 0 C  px              0.0       0.0       0.0       0.0       0.0       0.2
 1 C  s               0.0       0.0       3.3      96.4       0.0       0.8
 1 C  px              0.0       0.0       0.1       0.0       0.0       0.5
 2 C  s               0.0       0.0      96.4       3.3       0.0       3.6
 2 C  pz              0.0       0.0       0.0       0.0       0.0       0.9
 2 C  px              0.0       0.1       0.0       0.1       0.0       1.1
 2 C  py              0.0       0.0       0.0       0.0       0.0       0.2
 3 C  s               0.0      99.4       0.0       0.0       0.0      16.0
 3 C  pz              0.0       0.0       0.0       0.0       0.0       0.3
 3 C  py              0.0       0.0       0.0       0.0       0.0       5.5
 3 C  dyz             0.0       0.0       0.0       0.0       0.0       0.1
 3 C  dx2y2           0.0       0.0       0.0       0.0       0.0       0.2
 4 N  s              99.8       0.0       0.0       0.0       0.0      44.0
 4 N  pz              0.0       0.0       0.0       0.0       0.0       0.8
 4 N  px              0.0       0.0       0.0       0.0       0.0       0.4
 4 N  py              0.0       0.1       0.0       0.0       0.0       1.3
 4 N  dyz             0.0       0.1       0.0       0.0       0.0       0.1
 4 N  dx2y2           0.0       0.1       0.0       0.0       0.0       0.3
10 H  s               0.0       0.0       0.0       0.0       0.0       0.4
11 H  s               0.0       0.0       0.0       0.0       0.0       0.3
12 H  s               0.0       0.0       0.0       0.0       0.0       1.6
13 H  s               0.0       0.0       0.0       0.0       0.0       1.6
14 H  s               0.0       0.0       0.0       0.0       0.0       8.0
14 H  pz              0.0       0.0       0.0       0.0       0.0       0.4
14 H  px              0.0       0.0       0.0       0.0       0.0       0.8
15 H  s               0.0       0.0       0.0       0.0       0.0       8.0
15 H  pz              0.0       0.0       0.0       0.0       0.0       0.6
15 H  py              0.0       0.0       0.0       0.0       0.0       0.5

                      6         7         8         9        10        11   
                  -0.74042  -0.66329  -0.58052  -0.52746  -0.44368  -0.42461
                   2.00000   2.00000   2.00000   2.00000   2.00000   2.00000
                  --------  --------  --------  --------  --------  --------
 0 C  s              13.5      19.6      11.0       2.8       0.4       0.0
 0 C  pz              0.4       0.0       0.6       0.0       0.0       0.1
 0 C  px              0.2       0.1       0.2       0.0       1.5       7.9
 0 C  py              2.4       0.1       3.3       6.0       1.2       0.4
 1 C  s              25.9       2.7       7.0       8.6       0.3       0.3
 1 C  pz              0.1       2.1       1.9       2.3       1.6       0.3
 1 C  px              0.6       4.0       0.2       2.3       0.1      13.2
 1 C  py              0.6       3.6       5.0       3.6       0.2       0.8
 1 C  dxz             0.1       0.0       0.0       0.1       0.0       0.1
 1 C  dx2y2           0.0       0.2       0.1       0.0       0.0       0.0
 2 C  s              17.5      12.2       2.2       8.3       0.9       0.5
 2 C  pz              0.9       0.1       0.5       7.8       3.2       4.0
 2 C  px              2.0       3.7       8.6       0.6       0.6       2.1
 2 C  py              0.0       0.4       0.1       0.7       7.5       1.7
 2 C  dxz             0.0       0.1       0.2       0.0       0.0       0.0
 2 C  dx2y2           0.1       0.0       0.0       0.1       0.0       0.0
 3 C  s               1.2       9.2      11.8       3.5       0.2       0.5
 3 C  pz              1.1       1.5       0.1       5.5       1.5      14.1
 3 C  px              3.4       1.4       0.7       2.2       2.4       8.8
 3 C  py              1.3       2.3       1.6       1.0       7.0       1.8
 3 C  dxz             0.0       0.0       0.0       0.1       0.0       0.1
 3 C  dx2y2           0.1       0.1       0.0       0.0       0.1       0.0
 4 N  s               4.5       3.6       2.4       0.3       0.0       0.3
 4 N  pz              0.0       0.2       0.1       0.9      24.4      10.0
 4 N  px              0.6       0.7       1.2       0.1      17.6       1.5
 4 N  py              0.4       3.0       7.1       5.8       0.1       4.2
 4 N  dz2             0.0       0.0       0.2       0.2       0.2       0.3
 4 N  dxz             0.0       0.0       0.0       0.1       0.1       0.2
 4 N  dyz             0.1       0.4       0.4       0.0       0.0       0.1
 4 N  dx2y2           0.0       0.6       0.7       0.5       0.2       0.3
 4 N  dxy             0.1       0.1       0.0       0.0       0.1       0.4
 5 H  s               1.9       3.9       3.6       2.3       0.7       0.0
 5 H  pz              0.1       0.2       0.2       0.1       0.0       0.0
 5 H  py              0.1       0.1       0.1       0.0       0.0       0.0
 6 H  s               1.8       3.9       3.7       1.8       0.0       2.1
 6 H  px              0.1       0.2       0.2       0.1       0.0       0.0
 7 H  s               1.9       4.3       4.0       0.9       0.8       1.6
 7 H  pz              0.1       0.1       0.1       0.0       0.0       0.1
 7 H  px              0.1       0.3       0.2       0.0       0.0       0.0
 8 H  s               3.7       0.6       3.0       4.1       0.1       4.6
 8 H  pz              0.1       0.0       0.1       0.2       0.0       0.1
 8 H  px              0.2       0.0       0.2       0.1       0.0       0.0
 9 H  s               3.6       0.5       2.0       6.6       0.5       0.1
 9 H  pz              0.2       0.0       0.2       0.3       0.0       0.0
 9 H  py              0.1       0.0       0.0       0.1       0.0       0.0
10 H  s               2.4       2.3       0.7       7.2       0.0       0.0
10 H  pz              0.1       0.1       0.0       0.2       0.0       0.0
10 H  py              0.1       0.1       0.0       0.3       0.1       0.0
11 H  s               2.6       3.1       0.9       3.6       5.2       0.7
11 H  py              0.2       0.2       0.1       0.3       0.2       0.0
12 H  s               0.2       2.0       4.5       4.4       1.3       0.8
12 H  pz              0.0       0.1       0.2       0.1       0.0       0.0
12 H  py              0.0       0.0       0.1       0.1       0.0       0.1
13 H  s               0.1       2.1       4.3       1.2       0.4      10.3
13 H  pz              0.0       0.0       0.1       0.1       0.0       0.1
13 H  px              0.0       0.1       0.2       0.0       0.0       0.3
14 H  s               1.3       1.5       1.5       0.0      13.5       0.4
14 H  px              0.1       0.2       0.1       0.0       0.5       0.1
15 H  s               1.1       1.2       2.0       1.9       4.2       4.0
15 H  pz              0.1       0.2       0.2       0.1       0.0       0.1
15 H  px              0.0       0.0       0.0       0.0       0.2       0.0
15 H  py              0.1       0.0       0.0       0.0       0.2       0.1

                     12        13        14        15        16        17   
                  -0.41411  -0.37024  -0.36672  -0.33799  -0.31479  -0.29250
                   2.00000   2.00000   2.00000   2.00000   2.00000   2.00000
                  --------  --------  --------  --------  --------  --------
 0 C  s               0.1       0.0       0.1       0.1       0.0       0.3
 0 C  pz             13.1      17.3       0.6       2.1      11.7       2.0
 0 C  px              0.5       7.1       9.9      16.9       1.3       7.3
 0 C  py              0.0       2.1       8.1       8.0       3.7       8.8
 0 C  dxz             0.0       0.1       0.0       0.3       0.0       0.1
 0 C  dyz             0.0       0.0       0.1       0.0       0.3       0.1
 0 C  dx2y2           0.1       0.1       0.0       0.0       0.1       0.1
 1 C  s               0.1       0.2       0.5       0.1       0.0       0.0
 1 C  pz             14.1       4.2       5.9       0.9       3.2       0.3
 1 C  px              3.6       2.1       1.4       0.7       2.0      11.2
 1 C  py              4.1       1.8       6.5       5.6       2.0       8.9
 1 C  dxz             0.0       0.0       0.0       0.0       0.0       0.2
 1 C  dyz             0.0       0.0       0.0       0.0       0.2       0.3
 1 C  dx2y2           0.0       0.0       0.1       0.0       0.0       0.1
 2 C  s               0.1       0.4       0.0       0.3       0.2       0.1
 2 C  pz              3.5       5.9       0.5       2.1       6.8       0.7
 2 C  px              2.4       1.2       0.7       5.3       2.9       9.8
 2 C  py             10.8       0.1      10.6       4.5       1.1      11.2
 2 C  dxz             0.0       0.0       0.1       0.1       0.0       0.1
 2 C  dyz             0.0       0.0       0.1       0.1       0.1       0.4
 2 C  dx2y2           0.0       0.1       0.0       0.0       0.1       0.0
 3 C  s               0.2       0.3       0.1       0.0       0.2       0.1
 3 C  pz              0.7       0.1       7.7       0.4      11.0       0.6
 3 C  px              2.9       0.2       5.0      12.5       0.8       3.3
 3 C  py              5.4      11.7       0.5       3.1       5.3       0.4
 3 C  dxz             0.0       0.1       0.0       0.1       0.1       0.1
 3 C  dyz             0.0       0.2       0.0       0.1       0.4       0.2
 3 C  dx2y2           0.1       0.1       0.2       0.1       0.1       0.0
 4 N  s               0.1       0.2       0.7       0.0       0.1       0.8
 4 N  pz              0.1       0.9       1.7       1.6       0.4       2.1
 4 N  px              0.1       0.4       8.0       0.4       2.3       3.0
 4 N  py             12.3      13.1       0.2       5.2       3.7       0.2
 4 N  dz2             0.0       0.1       0.0       0.0       0.1       0.0
 4 N  dxz             0.0       0.1       0.1       0.6       0.2       0.0
 4 N  dyz             0.2       0.3       0.7       0.1       1.2       0.0
 4 N  dx2y2           0.0       0.1       0.4       0.1       0.5       0.1
 4 N  dxy             0.1       0.0       0.1       1.2       0.0       0.0
 5 H  s               2.0       5.8       3.5       0.0      10.0       0.5
 5 H  pz              0.0       0.0       0.1       0.0       0.1       0.0
 5 H  px              0.0       0.1       0.0       0.1       0.0       0.1
 6 H  s               2.8       0.0       0.8      12.1       3.0       0.7
 6 H  pz              0.0       0.1       0.0       0.1       0.0       0.0
 6 H  px              0.1       0.0       0.0       0.2       0.0       0.0
 6 H  py              0.0       0.0       0.1       0.0       0.1       0.1
 7 H  s               1.1       9.1       2.5       3.3       0.6       5.8
 7 H  pz              0.0       0.0       0.1       0.1       0.0       0.0
 7 H  px              0.1       0.2       0.0       0.0       0.1       0.0
 7 H  py              0.0       0.0       0.1       0.1       0.0       0.1
 8 H  s               3.6       0.0       2.9       0.5       1.6       1.5
 8 H  py              0.1       0.0       0.0       0.1       0.0       0.1
 9 H  s               5.3       1.5       0.5       0.4       3.6       2.7
 9 H  py              0.1       0.0       0.1       0.0       0.0       0.0
10 H  s               3.7       2.4       3.2       0.6       3.4       3.8
10 H  pz              0.1       0.0       0.1       0.1       0.0       0.1
10 H  py              0.0       0.1       0.0       0.0       0.0       0.0
11 H  s               2.1       0.8       3.3       2.7       0.0       7.7
11 H  pz              0.1       0.0       0.1       0.0       0.1       0.0
11 H  px              0.0       0.0       0.0       0.1       0.0       0.1
12 H  s               0.2       3.3       1.8       2.0      11.1       0.9
12 H  pz              0.0       0.1       0.0       0.1       0.1       0.0
13 H  s               0.0       1.3       5.9       2.9       0.1       0.9
14 H  s               0.1       0.0       2.9       1.0       1.0       0.0
14 H  py              0.1       0.2       0.0       0.1       0.1       0.0
15 H  s               2.9       3.7       0.6       0.2       2.0       0.5
15 H  pz              0.2       0.1       0.0       0.1       0.0       0.0
15 H  px              0.0       0.0       0.1       0.0       0.0       0.0

                     18        19        20        21        22        23   
                  -0.29038  -0.28139  -0.19508   0.08829   0.11639   0.12691
                   2.00000   2.00000   2.00000   0.00000   0.00000   0.00000
                  --------  --------  --------  --------  --------  --------
 0 C  s               0.5       0.1       0.3       5.6       2.3      14.3
 0 C  pz              0.5       9.0       0.3       0.2       0.3       5.9
 0 C  px              2.6       0.1       2.0       0.2       1.6       3.1
 0 C  py              8.8       1.5       0.1       0.6       5.1       1.4
 0 C  dz2             0.0       0.0       0.0       0.0       0.2       0.1
 0 C  dxz             0.2       0.0       0.0       0.0       0.0       0.4
 0 C  dyz             0.1       0.2       0.0       0.0       0.1       0.0
 0 C  dx2y2           0.0       0.2       0.0       0.2       0.5       0.1
 0 C  dxy             0.1       0.1       0.0       0.0       0.0       0.0
 1 C  s               0.6       0.0       0.1       2.9      14.1       0.7
 1 C  pz              2.2      16.8       0.0       0.2       0.7       0.1
 1 C  px             10.3       1.0       1.3       0.6       2.3       0.6
 1 C  py             10.9       0.7       0.1       0.4       3.6       8.3
 1 C  dz2             0.0       0.0       0.0       0.0       0.0       0.7
 1 C  dxz             0.4       0.1       0.0       0.2       0.3       0.1
 1 C  dyz             0.3       0.2       0.0       0.0       0.1       0.1
 1 C  dx2y2           0.0       0.5       0.0       0.1       0.0       0.3
 1 C  dxy             0.2       0.1       0.0       0.0       0.1       0.0
 2 C  s               0.4       0.4       0.1       3.2       7.2       0.6
 2 C  pz              4.2      13.7       0.0       2.2       1.9       3.8
 2 C  px              9.0       0.6       1.9       0.4       2.8       2.8
 2 C  py              6.3       1.2       0.0       0.1       3.1       2.0
 2 C  dxz             0.1       0.1       0.1       0.0       0.3       0.2
 2 C  dyz             0.4       0.0       0.0       0.3       0.0       0.1
 2 C  dx2y2           0.0       0.7       0.0       0.3       0.1       0.7
 2 C  dxy             0.0       0.0       0.0       0.1       0.1       0.0
 3 C  s               0.1       0.5       0.3      11.6       0.5       3.3
 3 C  pz              0.1       7.2       1.5       1.2       1.0       2.1
 3 C  px              2.7       3.4       2.7       5.1       5.5       7.3
 3 C  py              1.0       0.3       0.5       7.4      10.4       7.2
 3 C  dz2             0.2       0.0       0.0       0.1       0.3       0.1
 3 C  dxz             0.0       0.0       0.4       0.2       0.3       0.1
 3 C  dyz             0.1       0.0       0.4       0.2       0.1       0.0
 3 C  dx2y2           0.0       0.3       0.0       0.6       0.4       0.1
 3 C  dxy             0.0       0.0       0.7       0.2       0.0       0.1
 4 N  s               0.1       0.1       5.1      12.2       3.8       0.4
 4 N  pz              3.7       2.3      21.9       0.2       0.8       1.4
 4 N  px              1.0       0.3      37.9       1.2       2.1       1.3
 4 N  py              1.8       0.4       4.6       1.2       0.6       0.5
 4 N  dz2             0.0       0.0       0.1       0.9       0.0       0.0
 4 N  dxz             0.2       0.1       0.1       0.1       0.0       5.1
 4 N  dyz             0.0       1.0       0.5       1.9       0.5       0.5
 4 N  dx2y2           0.0       0.4       0.1       1.4       1.8       2.9
 4 N  dxy             0.0       0.2       0.5       0.0       0.4       0.7
 5 H  s               2.7       3.2       0.0       0.5       1.0       3.0
 5 H  pz              0.0       0.0       0.0       0.2       0.5       0.8
 5 H  px              0.0       0.0       0.0       0.0       0.0       0.4
 5 H  py              0.0       0.1       0.0       0.0       0.0       0.4
 6 H  s               2.2       3.6       0.8       0.8       0.0       2.0
 6 H  pz              0.0       0.0       0.0       0.0       0.0       1.2
 6 H  px              0.0       0.1       0.2       0.4       0.0       0.3
 6 H  py              0.1       0.0       0.0       0.0       0.3       0.0
 7 H  s               2.9       1.2       0.6       0.7       1.1       1.1
 7 H  pz              0.0       0.0       0.0       0.0       0.2       0.2
 7 H  px              0.0       0.0       0.0       0.3       0.2       0.2
 7 H  py              0.1       0.0       0.0       0.0       0.1       0.0
 8 H  s               4.5       8.9       0.7       2.0       2.2       0.7
 8 H  pz              0.2       0.0       0.0       0.2       1.2       0.4
 8 H  px              0.0       0.1       0.0       0.3       0.6       0.1
 8 H  py              0.0       0.0       0.0       0.0       0.1       0.4
 9 H  s               6.4       6.5       0.1       0.3       3.3       1.8
 9 H  pz              0.0       0.0       0.0       0.1       1.2       0.9
 9 H  px              0.1       0.0       0.0       0.1       0.2       0.1
 9 H  py              0.0       0.1       0.0       0.0       0.7       0.2
10 H  s               6.8       2.8       0.0       0.8       1.1       1.6
10 H  pz              0.0       0.0       0.0       0.0       0.2       0.0
10 H  px              0.1       0.0       0.0       0.1       0.3       0.1
10 H  py              0.0       0.1       0.0       0.4       0.4       0.5
11 H  s               2.0       4.8       0.0       2.8       1.2       1.1
11 H  pz              0.1       0.0       0.0       0.1       0.1       0.1
11 H  py              0.0       0.1       0.0       0.5       1.1       0.7
12 H  s               1.1       2.7       1.6       1.8       0.4       0.0
12 H  pz              0.0       0.0       0.0       0.9       0.0       0.0
12 H  px              0.0       0.0       0.0       0.0       0.3       0.2
12 H  py              0.0       0.0       0.0       0.0       0.5       0.3
13 H  s               0.5       0.3       8.4       2.7       0.7       0.4
13 H  pz              0.0       0.0       0.0       0.3       0.1       0.0
13 H  px              0.0       0.1       0.0       0.9       0.0       0.4
13 H  py              0.0       0.0       0.0       0.1       0.3       0.4
14 H  s               0.3       1.1       0.9       7.0       1.3       0.4
14 H  pz              0.0       0.0       0.6       0.8       0.3       0.0
14 H  px              0.0       0.0       0.3       1.7       0.3       0.1
15 H  s               0.1       0.5       0.7       6.9       2.2       0.0
15 H  pz              0.0       0.0       0.1       1.6       0.4       0.0
15 H  px              0.0       0.0       0.6       0.0       0.0       0.1
15 H  py              0.1       0.0       0.2       0.7       0.7       0.0

                     24        25        26        27        28        29   
                   0.13278   0.13994   0.14666   0.16716   0.17621   0.18357
                   0.00000   0.00000   0.00000   0.00000   0.00000   0.00000
                  --------  --------  --------  --------  --------  --------
 0 C  s               6.0       0.1       9.4       2.5       0.3       0.3
 0 C  pz              0.4       5.0       1.1       1.7       4.0       2.9
 0 C  px              1.6       0.6       3.3       0.2       3.4       4.5
 0 C  py              0.9       1.3      22.3       1.5       9.7       4.3
 0 C  dz2             0.0       0.0       0.3       0.2       0.1       0.1
 0 C  dxz             0.1       0.1       0.0       0.0       1.9       0.0
 0 C  dyz             0.1       0.2       0.3       0.2       0.6       0.1
 0 C  dx2y2           0.1       0.0       0.6       0.2       0.0       0.3
 0 C  dxy             0.3       0.0       0.2       0.2       0.1       0.0
 1 C  s               2.9       0.4       6.9       0.3       1.5       1.7
 1 C  pz              2.0       3.5       1.0       7.3       1.2       5.2
 1 C  px             17.9       0.2       0.1       1.0       0.1       5.3
 1 C  py              0.6       1.2       8.0       0.5       9.0       3.0
 1 C  dz2             0.1       0.1       0.0       0.0       0.0       0.3
 1 C  dxz             1.0       0.0       0.1       0.0       0.0       0.0
 1 C  dyz             0.0       0.4       0.1       0.1       0.3       0.0
 1 C  dx2y2           0.2       0.0       0.6       0.4       0.7       0.2
 1 C  dxy             0.1       0.0       0.2       0.5       0.3       0.3
 2 C  s               6.0       5.4       0.3       0.2       4.0       3.4
 2 C  pz             11.4       8.5       0.7       5.6       0.8       1.7
 2 C  px              3.5       0.1       4.4       4.0       0.1       5.8
 2 C  py              2.2       4.2       1.0       6.9       5.6       0.8
 2 C  dz2             0.1       0.2       0.0       0.5       0.4       0.0
 2 C  dxz             0.3       0.0       0.4       0.5       0.1       0.7
 2 C  dyz             0.0       0.6       0.1       1.3       0.9       0.2
 2 C  dx2y2           1.1       0.0       0.1       0.1       0.0       0.1
 2 C  dxy             0.0       0.0       0.4       0.1       0.0       0.0
 3 C  s               2.5       2.4       3.7       2.4       3.9       2.2
 3 C  pz              1.8      14.8       2.6       4.3       0.9       7.6
 3 C  px              2.8       2.7       1.9       3.5       6.0       0.2
 3 C  py              1.3       5.5      10.0       2.7       1.7       2.7
 3 C  dz2             0.5       0.0       0.1       0.0       0.4       0.2
 3 C  dxz             0.6       0.1       0.0       0.2       0.0       0.0
 3 C  dyz             0.1       0.7       0.2       0.0       0.4       0.1
 3 C  dx2y2           0.1       0.0       0.1       0.8       0.0       0.5
 3 C  dxy             0.0       0.2       0.0       0.8       0.0       0.0
 4 N  s               0.3       0.0       1.9       0.2       1.0       0.1
 4 N  pz              0.3       4.2       0.4       0.4       0.8       3.6
 4 N  px              0.4       0.7       0.5       0.3       0.3       3.0
 4 N  py              0.6       1.8       0.9       5.0       1.4       0.3
 4 N  dz2             2.2       0.1       0.3       7.8       0.0       0.1
 4 N  dxz             3.0       0.3       0.1       0.3       2.2       5.9
 4 N  dyz             0.1       1.5       0.4       1.5       0.4       1.9
 4 N  dx2y2           0.2       1.1       1.0       0.0       2.1       0.9
 4 N  dxy             3.1       0.0       0.2       2.8       0.0       0.3
 5 H  s               0.9       1.0       0.6       0.3       2.9       2.3
 5 H  pz              0.5       0.3       0.0       0.2       0.6       0.6
 5 H  px              0.2       0.1       0.0       0.0       0.7       0.0
 5 H  py              0.2       0.2       1.0       0.1       0.0       0.3
 6 H  s               0.1       0.4       0.2       1.6       2.4       0.2
 6 H  pz              0.0       0.0       0.0       0.3       0.5       0.2
 6 H  px              0.3       0.0       0.0       0.3       0.0       0.0
 6 H  py              0.1       0.1       0.4       0.0       0.3       0.0
 7 H  s               2.8       0.2       0.9       0.5       5.6       0.7
 7 H  pz              0.3       0.0       0.3       0.1       0.5       0.0
 7 H  px              0.6       0.0       0.5       0.1       0.4       0.6
 7 H  py              0.4       0.0       0.6       0.0       0.3       0.0
 8 H  s               0.5       0.1       0.6       3.2       0.7       2.0
 8 H  pz              0.3       0.0       0.1       0.2       0.0       0.0
 8 H  px              0.7       0.0       0.0       0.6       0.3       0.9
 8 H  py              0.0       0.1       0.4       0.2       0.0       0.1
 9 H  s               0.2       2.4       0.2       0.9       0.8       0.3
 9 H  pz              0.0       0.6       0.1       0.0       0.0       0.1
 9 H  px              0.9       0.0       0.0       0.1       0.0       0.0
 9 H  py              0.0       0.3       0.8       0.7       0.4       0.1
10 H  s               0.3       6.7       0.0       3.8       1.4       2.0
10 H  pz              0.8       1.7       0.0       0.2       0.2       0.6
10 H  px              0.3       0.0       0.0       0.2       0.1       0.4
10 H  py              0.1       1.6       0.0       0.8       0.0       0.4
11 H  s               1.3       0.2       1.0       2.9       5.3       0.2
11 H  pz              0.5       0.0       0.1       1.4       0.9       0.0
11 H  px              0.1       0.0       0.8       0.2       0.0       0.1
11 H  py              0.0       0.2       0.2       0.2       1.4       0.1
12 H  s               4.1       4.8       0.1       2.6       0.8       0.1
12 H  pz              0.8       1.6       0.0       0.4       0.0       0.1
12 H  px              0.6       0.1       0.0       0.0       0.0       0.0
12 H  py              0.1       0.7       0.1       1.1       0.0       0.2
13 H  s               1.3       0.1       1.5       3.0       3.7       2.3
13 H  pz              1.6       0.0       0.2       0.0       0.1       0.5
13 H  px              0.0       0.1       0.3       0.6       1.2       0.6
13 H  py              0.0       0.0       0.8       0.0       0.4       0.0
14 H  s               0.2       1.3       0.4       0.7       0.1       9.0
14 H  pz              0.0       0.0       0.1       0.0       0.0       0.6
14 H  px              0.1       0.4       0.1       0.3       0.0       1.8
14 H  py              0.0       0.0       0.1       0.4       0.1       0.0
15 H  s               0.1       4.9       0.4       2.1       0.7       1.1
15 H  pz              0.0       0.7       0.0       0.7       0.0       0.1
15 H  px              0.0       0.0       0.0       0.0       0.0       0.3
15 H  py              0.0       0.6       0.2       0.0       0.2       0.2

                     30        31        32        33        34        35   
                   0.19198   0.20650   0.21232   0.23440   0.23819   0.24775
                   0.00000   0.00000   0.00000   0.00000   0.00000   0.00000
                  --------  --------  --------  --------  --------  --------
 0 C  s               0.1       0.2       0.4       1.0       1.8       1.1
 0 C  pz              5.5       6.1       8.8       2.2       9.6      25.6
 0 C  px              8.7      11.8      15.1       4.5       4.5       1.5
 0 C  py              0.4       5.7       1.5       8.4      14.9       3.8
 0 C  dz2             0.2       0.5       0.2       0.0       0.3       0.0
 0 C  dxz             0.0       2.1       0.0       0.0       0.1       0.0
 0 C  dyz             0.0       1.1       1.2       0.6       0.2       0.1
 0 C  dx2y2           0.2       0.0       1.7       0.0       0.4       0.4
 0 C  dxy             0.2       0.5       0.2       0.0       0.4       0.0
 1 C  s               0.6       0.3       0.1       0.3       2.2       1.8
 1 C  pz             10.4       1.6       0.7       4.0       0.2       0.7
 1 C  px              9.3       1.0       0.0       1.6       0.4       1.9
 1 C  py              0.7       1.4       2.0       7.9      10.4      11.2
 1 C  dz2             0.5       0.2       0.0       0.2       0.2       0.5
 1 C  dxz             1.1       0.1       0.0       0.5       0.0       0.0
 1 C  dyz             0.6       0.1       0.7       1.4       0.0       0.4
 1 C  dx2y2           0.0       0.1       0.3       0.2       0.1       0.0
 1 C  dxy             0.1       0.7       0.1       0.0       0.0       0.2
 2 C  s               0.0       0.1       2.0       0.1       1.0       1.3
 2 C  pz              0.1       3.2       1.5       1.2       5.9       5.3
 2 C  px              6.2       0.7       0.4       1.9       3.5       0.4
 2 C  py              0.1       9.3       3.1       0.1       2.9       4.6
 2 C  dz2             0.1       0.0       0.1       0.0       0.0       0.5
 2 C  dxz             1.7       0.1       0.0       0.0       0.4       0.0
 2 C  dyz             0.0       0.2       0.1       0.0       0.1       1.1
 2 C  dx2y2           0.0       0.6       0.2       0.0       0.3       0.0
 2 C  dxy             0.1       0.0       0.0       0.7       0.0       0.0
 3 C  s               0.3       0.3       0.9       0.2       0.3       0.3
 3 C  pz              8.7       0.2       2.1       4.0       1.2       0.7
 3 C  px              8.8       1.5       1.1       0.8       1.2       3.0
 3 C  py              0.8       0.6       2.1       5.7       0.2       0.7
 3 C  dz2             0.1       0.1       0.0       0.4       0.0       0.1
 3 C  dxz             0.6       0.1       0.3       0.7       0.1       0.0
 3 C  dyz             0.4       0.0       0.0       1.3       0.1       0.0
 3 C  dx2y2           0.0       0.1       0.1       0.0       0.2       0.1
[...]
 1 C  dz2             0.1       1.5       0.8       0.2       0.0       0.0
 1 C  dxz             2.0       2.9       3.3       0.0       0.0       0.0
 1 C  dyz             0.7       3.9       5.7       1.4       0.0       0.0
 1 C  dx2y2           0.1       0.9       3.2       0.1       0.0       0.0
 1 C  dxy             0.0       0.3       1.7       0.1       0.0       0.0
 2 C  s               0.0       0.0       0.1       0.4       0.0       0.0
 2 C  pz              0.3       0.0       0.2       0.2       0.1       0.0
 2 C  px              0.3       5.7       0.0       0.0       0.0       0.0
 2 C  py              2.5       0.1       0.5       6.3       0.0       0.0
 2 C  dz2             1.0       0.1       0.0       0.7       0.0       0.0
 2 C  dxz             0.2       5.6       0.5       0.0       0.0       0.0
 2 C  dyz             5.7       0.2       1.3      13.6       0.0       0.0
 2 C  dx2y2           0.0       0.0       0.1       0.0       0.2       0.0
 2 C  dxy             0.0       0.1       0.2       0.0       0.0       0.0
 3 C  s               0.1       2.0       0.1       0.1       1.5       0.0
 3 C  pz              0.4       1.4       2.8       4.5       0.7       0.1
 3 C  px              0.1       2.1       2.4       1.0       0.1       0.0
 3 C  py              0.1       2.2       0.0       0.1       6.5       0.0
 3 C  dz2             0.0       1.1       0.4       0.9       1.3       0.0
 3 C  dxz             0.3       4.4       2.6       1.3       0.2       0.1
 3 C  dyz             0.0       3.4       2.0       5.0       2.8       0.2
 3 C  dx2y2           0.5       0.0       1.1       2.2       5.2       0.1
 3 C  dxy             0.1       0.5       0.9       1.5       1.0       0.0
 4 N  s               0.6       5.2       1.3       0.3       1.5       0.0
 4 N  pz              0.0       0.8       0.0       0.0       0.5       9.8
 4 N  px              0.3       0.3       0.1       0.1       4.3       3.7
 4 N  py              0.1       0.5       0.2       0.2      14.5       2.5
 4 N  dz2             0.0       0.0       0.0       0.0       3.2       6.4
 4 N  dxz             1.0       3.5       1.7       0.4       2.5      11.9
 4 N  dyz             0.3       0.5       0.3       0.0      17.0      12.4
 4 N  dx2y2           0.5       0.6       0.1       0.2      14.2      13.7
 4 N  dxy             0.1       0.7       0.1       0.0       0.0       0.1
 5 H  s               0.5       1.3       0.1       0.1       0.0       0.0
 5 H  pz              0.5       2.3       0.1       0.2       0.0       0.0
 5 H  px              0.1       0.1       0.0       0.1       0.0       0.0
 5 H  py              0.6       1.3       0.3       0.2       0.0       0.0
 6 H  s               7.4       0.0       0.9       1.0       0.0       0.0
 6 H  pz              5.2       0.0       1.1       1.4       0.0       0.0
 6 H  px             12.6       0.0       0.7       1.1       0.0       0.0
 6 H  py              2.0       0.0       0.4       0.4       0.0       0.0
 7 H  s               2.2       0.3       0.1       0.4       0.0       0.0
 7 H  pz              2.7       0.3       0.0       0.4       0.0       0.0
 7 H  px              2.1       0.5       0.3       0.4       0.0       0.0
 7 H  py              0.0       0.1       0.0       0.0       0.0       0.0
 8 H  s               0.2       0.1       5.3       0.1       0.0       0.0
 8 H  pz              0.4       0.4       3.3       0.0       0.0       0.0
 8 H  px              0.3       0.2       7.5       0.1       0.0       0.0
 8 H  py              0.4       0.0       1.3       0.0       0.0       0.0
 9 H  s               0.3       2.7       3.5       0.4       0.0       0.0
 9 H  pz              0.8       4.4       3.3       0.8       0.0       0.0
 9 H  px              0.1       0.3       0.0       0.0       0.0       0.0
 9 H  py              0.4       3.1       4.9       0.3       0.0       0.0
10 H  s               2.2       0.1       0.6       4.5       0.0       0.0
10 H  pz              2.6       0.1       1.0       8.1       0.0       0.0
10 H  px              0.0       0.1       0.0       0.0       0.0       0.0
10 H  py              2.5       0.1       0.7       3.1       0.0       0.0
11 H  s               1.3       0.1       0.2       3.5       0.1       0.0
11 H  pz              1.4       0.1       0.2       1.4       0.0       0.0
11 H  px              0.1       0.6       0.1       0.0       0.0       0.0
11 H  py              2.0       0.1       0.2       5.5       0.2       0.0
12 H  s               0.1       2.1       1.7       3.1       0.2       0.1
12 H  pz              0.0       4.3       1.5       3.5       0.6       0.1
12 H  px              0.0       0.2       0.1       0.0       0.0       0.0
12 H  py              0.2       1.7       2.2       3.6       0.0       0.1
13 H  s               0.3       0.6       3.1       3.1       0.3       0.0
13 H  pz              0.2       1.7       1.8       1.4       0.1       0.0
13 H  px              0.4       0.7       4.5       5.0       0.4       0.0
13 H  py              0.2       0.1       1.1       0.5       0.1       0.0
14 H  s               0.3       0.5       0.2       0.1       3.6       7.7
14 H  pz              0.1       0.7       0.0       0.0       2.7       2.7
14 H  px              0.4       1.9       1.0       0.1       4.3       7.9
14 H  py              0.0       0.0       0.1       0.1       0.2       0.2
15 H  s               0.1       0.8       0.2       0.0       2.7       8.1
15 H  pz              0.4       1.4       0.3       0.1       4.7       6.4
15 H  px              0.1       0.1       0.2       0.0       0.1       0.1
15 H  py              0.2       1.0       0.1       0.0       1.3       5.3

                    150       151       152       153       154   
                  21.93193  21.96006  22.05134  22.08904  31.86850
                   0.00000   0.00000   0.00000   0.00000   0.00000
                  --------  --------  --------  --------  --------
 0 C  s              16.2      68.2       4.2      11.1       0.0
 1 C  s              18.2      11.6      27.1      42.8       0.0
 2 C  s               0.3      15.6      67.0      16.8       0.0
 3 C  s              65.0       4.2       1.4      29.0       0.1
 4 N  s               0.0       0.0       0.0       0.0      99.8


                      *****************************
                      * MAYER POPULATION ANALYSIS *
                      *****************************

  NA   - Mulliken gross atomic population
  ZA   - Total nuclear charge
  QA   - Mulliken gross atomic charge
  VA   - Mayer's total valence
  BVA  - Mayer's bonded valence
  FA   - Mayer's free valence

  ATOM       NA         ZA         QA         VA         BVA        FA
  0 C      6.5553     6.0000    -0.5553     3.8122     3.8122    -0.0000
  1 C      6.2320     6.0000    -0.2320     3.5837     3.5837    -0.0000
  2 C      6.2308     6.0000    -0.2308     3.5570     3.5570    -0.0000
  3 C      6.2483     6.0000    -0.2483     3.8192     3.8192    -0.0000
  4 N      7.6282     7.0000    -0.6282     2.6777     2.6777    -0.0000
  5 H      0.8490     1.0000     0.1510     0.9618     0.9618    -0.0000
  6 H      0.8185     1.0000     0.1815     0.9539     0.9539    -0.0000
  7 H      0.8532     1.0000     0.1468     0.9607     0.9607    -0.0000
  8 H      0.8520     1.0000     0.1480     0.9587     0.9587     0.0000
  9 H      0.8623     1.0000     0.1377     0.9665     0.9665    -0.0000
 10 H      0.8583     1.0000     0.1417     0.9691     0.9691    -0.0000
 11 H      0.8483     1.0000     0.1517     0.9608     0.9608    -0.0000
 12 H      0.8465     1.0000     0.1535     0.9539     0.9539    -0.0000
 13 H      0.8710     1.0000     0.1290     0.9535     0.9535     0.0000
 14 H      0.7230     1.0000     0.2770     0.9154     0.9154     0.0000
 15 H      0.7233     1.0000     0.2767     0.9200     0.9200    -0.0000

  Mayer bond orders larger than 0.100000
B(  0-C ,  1-C ) :   0.8865 B(  0-C ,  5-H ) :   0.9812 B(  0-C ,  6-H ) :   0.9768 
B(  0-C ,  7-H ) :   0.9700 B(  1-C ,  2-C ) :   0.8914 B(  1-C ,  8-H ) :   0.9673 
B(  1-C ,  9-H ) :   0.9777 B(  2-C ,  3-C ) :   0.9283 B(  2-C , 10-H ) :   0.9765 
B(  2-C , 11-H ) :   0.9616 B(  3-C ,  4-N ) :   0.9302 B(  3-C , 12-H ) :   0.9921 
B(  3-C , 13-H ) :   0.9621 B(  4-N , 14-H ) :   0.9025 B(  4-N , 15-H ) :   0.9068 


-------
TIMINGS
-------

Total SCF time: 0 days 0 hours 0 min 19 sec 

Total time                  ....      19.256 sec
Sum of individual times     ....      18.768 sec  ( 97.5%)

SCF preparation             ....       0.339 sec  (  1.8%)
Fock matrix formation       ....      17.263 sec  ( 89.7%)
  Startup                   ....       0.066 sec  (  0.4% of F)
  Split-RI-J                ....       2.127 sec  ( 12.3% of F)
  XC integration            ....      11.876 sec  ( 68.8% of F)
    Basis function eval.    ....       2.275 sec  ( 19.2% of XC)
    Density eval.           ....       3.161 sec  ( 26.6% of XC)
    XC-Functional eval.     ....       1.875 sec  ( 15.8% of XC)
    XC-Potential eval.      ....       3.630 sec  ( 30.6% of XC)
  CPCM terms                ....       2.600 sec  ( 15.1% of F)
Diagonalization             ....       0.000 sec  (  0.0%)
Density matrix formation    ....       0.281 sec  (  1.5%)
Total Energy calculation    ....       0.046 sec  (  0.2%)
Population analysis         ....       0.084 sec  (  0.4%)
Orbital Transformation      ....       0.048 sec  (  0.3%)
Orbital Orthonormalization  ....       0.000 sec  (  0.0%)
DIIS solution               ....       0.629 sec  (  3.3%)
  MO trafo                  ....       0.000 sec  (  0.0 % of DIIS)
  Orb grad                  ....       0.000 sec  (  0.0 % of DIIS)
  Energy W gradient         ....       0.000 sec  (  0.0 % of DIIS)
  DIIS error                ....       0.005 sec  (  0.8 % of DIIS)
  DIIS work                 ....       0.579 sec  ( 92.0 % of DIIS)
  Form Q                    ....       0.000 sec  (  0.0 % of DIIS)
  Form QpQm                 ....       0.000 sec  (  0.0 % of DIIS)
  Exp/Cayley                ....       0.000 sec  (  0.0 % of DIIS)
  Orb update                ....       0.000 sec  (  0.0 % of DIIS)
  Wake-sleep                ....       0.021 sec  (  3.3 % of DIIS)
SOSCF solution              ....       0.077 sec  (  0.4%)
  MO trafo                  ....       0.046 sec  ( 59.4 % of SOSCF)
  Orb grad                  ....       0.001 sec  (  1.7 % of SOSCF)
  Rot update                ....       0.011 sec  ( 14.6 % of SOSCF)
  Step                      ....       0.019 sec  ( 24.2 % of SOSCF)
Finished LeanSCF after  19.4 sec

Maximum memory used throughout the entire LEANSCF-calculation: 19.5 MB


-------------------------------------------------------------------------------
                          DFT DISPERSION CORRECTION                            
                                                                               
                                DFTD4 V3.4.0                                   
-------------------------------------------------------------------------------
The R2SCAN3C composite method is recognized
Using three-body term ABC
Active option DFTDOPT                   ...         5   

-------------------------   ----------------
Dispersion correction           -0.003599689
-------------------------   ----------------

------------------   -----------------
gCP correction             0.010782781
------------------   -----------------

-------------------------   --------------------
FINAL SINGLE POINT ENERGY      -213.721802470795
-------------------------   --------------------


------------------------------------------------------------------------------
                              ORCA PROPERTY CALCULATIONS
------------------------------------------------------------------------------

GBWName                                 ... sp_solv.gbw
Number of atoms                         ...     16
Number of basis functions               ...    155
Max core memory                         ...   1024 MB

Electric properties:
Dipole moment                           ... YES
Quadrupole moment                       ...  NO
Static polarizability (Dipole/Dipole)   ...  NO
Static polarizability (Dipole/Quad.)    ...  NO
Static polarizability (Quad./Quad.)     ...  NO
Static polarizability (Velocity)        ...  NO

Atomic electric properties:
Dipole moment                           ...  NO
Quadrupole moment                       ...  NO
Static polarizability                   ...  NO

Choice of electric origin               ... Center of mass
Position of electric origin             ...    -0.000009    -0.000006    -0.000003

General magnetic properties:
Magnetizability                         ...  NO

EPR properties:
g-Tensor (aka g-matrix)                 ...  NO
Zero-Field splitting spin-orbit         ...  NO
Zero-field splitting spin-spin          ...  NO
Hyperfine couplings                     ...  NO (   0 nuclei)
Quadrupole couplings                    ...  NO (   0 nuclei)
Contact density                         ...  NO (   0 nuclei)

NMR properties:
Chemical shifts                         ...  NO (   0 nuclei)
Spin-rotation constants                 ...  NO (   0 nuclei)
Spin-spin couplings                     ...  NO (   0 nuclei,    0 pairs)

Choice of magnetic origin               ... GIAO
Position of magnetic origin             ...     0.000000     0.000000     0.000000

Properties with geometric perturbations:
SCF Hessian                             ...  NO
IR spectrum                             ...  NO
VCD spectrum                            ...  NO
X-ray spectroscopy properties:
SCF XES/XAS/RIXS spectra                ...  NO


-------------
DIPOLE MOMENT
-------------

Method             : SCF
Type of density    : Electron Density
Multiplicity       :   1
Irrep              :   0
Energy             :  -213.7289855626124222 Eh
Relativity type    : 
Basis              : AO
                                X                 Y                 Z
Electronic contribution:     -1.631880332       0.222969745       0.068208019
Nuclear contribution   :      1.054809091      -0.058724598       0.317464333
                        -----------------------------------------
Total Dipole Moment    :     -0.577071241       0.164245147       0.385672352
                        -----------------------------------------
Magnitude (a.u.)       :      0.713253706
Magnitude (Debye)      :      1.812946843



--------------------
Rotational spectrum 
--------------------
 
Rotational constants in cm-1:             0.241912             0.117533             0.089285 
Rotational constants in MHz :          7252.326514          3523.563364          2676.700505 

Dipole components along the rotational axes: 
x,y,z [a.u.] :    -0.576726     0.339979     0.246033 
x,y,z [Debye]:    -1.465921     0.864158     0.625366 

 

Dipole moment calculation done in   0.0 sec 

Maximum memory used throughout the entire PROP-calculation: 9.0 MB

--------------------------------
SUGGESTED CITATIONS FOR THIS RUN
--------------------------------

Below you find a list of papers that are relevant to this ORCA run
We neither can nor want to force you to cite these papers, but we appreciate if you do
You receive ORCA, which is the product of decades of hard work by many enthusiastic individuals, for free
The only thing we kindly ask in return is that you cite our papers,
We deeply appreciate it, if you show your appreciation for ORCA by not just citing the generic ORCA reference.

Please note that relegating all ORCA citations to the supporting information does *not* help us.
SI sections are not indexed - citations you put there will not count into any citation statistics
But we need these citations in order to attract the funding resources that allow us to do what we are doing

Therefore, if you are a happy ORCA user, please consider citing a few of the papers listed below in the main body of your paper

In addition to the list printed below, the program has created the file sp_solv.bibtex that contains the list in bibtex format
You can import this file easily into all common literature databanks and citation aid programs


List of essential papers. We consider these as the minimum necessary citations

  1. Neese,F.
     Software update: the ORCA program system, version 5.0
     WIRES Comput. Molec. Sci., 2022 12(1)e1606
     doi.org/10.1002/wcms.1606
  2. Grimme,S.; Hansen,A.; Ehlert,S.; Mewes,J.
     r2SCAN-3c: A 'Swiss army knife' composite electronic-structure method
     J. Chem. Phys., 2021 154 064103
     doi.org/10.1063/5.0040021

List of papers to cite with high priority. The work reported in these papers was absolutely
necessary for this run to complete.
Our perspective: the developers of density functionals and basis sets usually get cited in chemistry papers
Good! But without the algorithms to do something with them, the functionals or basis sets would not do anything.
Hence, in our opinion, the algorithm design and method developments papers are equally worthy of getting cited

  1. Neese,F.
     An improvement of the resolution of the identity approximation for the formation of the Coulomb matrix
     J. Comp. Chem., 2003 24(14)1740-1747
     doi.org/10.1002/jcc.10318
  2. Garcia-Rates,M.; Neese,F.
     Effect of the Solute Cavity on the Solvation Energy and its Derivatives within the Framework of the Gaussian Charge Scheme
     J. Comput. Chem., 2020 41 922-939
     doi.org/10.1002/jcc.26139
  3. Neese,F.
     The SHARK Integral Generation and Digestion System
     J. Comp. Chem., 2022  1-16
     doi.org/10.1002/jcc.26942
  4. Lehtola,S.; Steigemann,C.; Oliveira,M.; Marques,M.
     Recent developments in Libxc - A comprehensive library of functionals for density functional theory
     Software X, 2018 7 
     doi.org/10.1016/j.softx.2017.11.002
  5. Caldeweyher,E.; Bannwarth,C.; Grimme,S.
     Extension of the D3 dispersion coefficient model
     J. Chem. Phys., 2017 147 034112-XXXX
     doi.org/10.1063/1.4993215
  6. Caldeweyher,E.; Ehlert,S.; Hansen,A.; Neugebauer,H.; Spicher,S.; Bannwarth,C.; Grimme,S.
     A generally applicable atomic-charge dependent London dispersion correction
     J. Chem. Phys., 2019 150 154122-XXXX
     doi.org/10.1063/1.5090222
  7. Caldeweyher,E.; Mewes,J.; Ehlert,S.; Grimme,S.
     Extension and evaluation of the D4 London-dispersion model for periodic systems
     Phys. Chem. Chem. Phys., 2020 22(16)8499-8512
     doi.org/10.1039/D0CP00502A

List of suggested additional citations. These are papers that are important in the 'surrounding' of 
of this run, or papers that preceded the highly important papers. If you like your results we are grateful for a citation.

  1. Neese,F.
     The ORCA program system
     WIRES Comput. Molec. Sci., 2012 2(1)73-78
     doi.org/10.1002/wcms.81
  2. Neese,F.
     Software update: the ORCA program system, version 4.0
     WIRES Comput. Molec. Sci., 2018 8(1)1-6
     doi.org/10.1002/wcms.1327
  3. Neese,F.; Wennmohs,F.; Becker,U.; Riplinger,C.
     The ORCA quantum chemistry program package
     J. Chem. Phys., 2020 152 Art. No. L224108
     doi.org/10.1063/5.0004608

List of optional additional citations

  1. Neese,F.
     Approximate second-order SCF convergence for spin unrestricted wavefunctions
     Chem. Phys. Lett., 2000 325(1-3)93-98
     doi.org/10.1016/s0009-2614(00)00662-x

Timings for individual modules:

Sum of individual times          ...       20.822 sec (=   0.347 min)
Startup calculation              ...        0.971 sec (=   0.016 min)   4.7 %
SCF iterations                   ...       19.750 sec (=   0.329 min)  94.9 %
Property calculations            ...        0.101 sec (=   0.002 min)   0.5 %
                             ****ORCA TERMINATED NORMALLY****
TOTAL RUN TIME: 0 days 0 hours 0 minutes 21 seconds 622 msec
