 Entering Gaussian System
 *********************************************
 Gaussian 98:
 frequency output generated by the xtb code
 *********************************************
                         Standard orientation:
 --------------------------------------------------------------------
  Center     Atomic     Atomic              Coordinates (Angstroms)
  Number     Number      Type              X           Y           Z
 --------------------------------------------------------------------
    1          6             0       -4.677509   -1.022159   -0.288453
    2          6             0       -3.969757   -2.207543   -0.144730
    3          6             0       -2.596883   -2.179202    0.016139
    4          6             0       -1.906617   -0.968920    0.034589
    5          6             0       -2.621856    0.224989   -0.111220
    6          6             0       -4.005925    0.185580   -0.271085
    7          6             0       -1.930869    1.520057   -0.098582
    8          8             0       -2.545808    2.577824   -0.218521
    9          6             0       -0.465926    1.491196    0.059615
   10          6             0        0.187989    2.710894    0.038277
   11          6             0        1.572456    2.769191    0.171869
   12          6             0        2.297188    1.618661    0.329595
   13          6             0        1.673390    0.347997    0.368899
   14          6             0        0.252760    0.283064    0.221964
   15          6             0       -0.441509   -0.987204    0.215474
   16          8             0        0.132173   -2.082689    0.347729
   17          7             0        2.387583   -0.768861    0.569417
   18          6             0        3.821669   -0.876157    0.599906
   19          6             0        4.429383   -0.879124   -0.818826
   20          8             0        5.804387   -1.173598   -0.810557
   21          1             0       -5.748640   -1.041474   -0.413448
   22          1             0       -4.489176   -3.152852   -0.157684
   23          1             0       -2.028707   -3.090391    0.131011
   24          1             0       -4.530441    1.123293   -0.380472
   25          1             0       -0.401197    3.606142   -0.087326
   26          1             0        2.071588    3.725105    0.148692
   27          1             0        3.367019    1.681966    0.429649
   28          1             0        1.852299   -1.633564    0.518113
   29          1             0        4.076556   -1.820854    1.083040
   30          1             0        4.251874   -0.063838    1.191086
   31          1             0        4.235660    0.081092   -1.313975
   32          1             0        3.961068   -1.669467   -1.410314
   33          1             0        6.284346   -0.474938   -0.343885
 --------------------------------------------------------------------
     1 basis functions        1 primitive gaussians
     1 alpha electrons        1 beta electrons
 
 Harmonic frequencies (cm**-1), IR intensities (km*mol⁻¹),
 Raman scattering activities (A**4/amu), Raman depolarization ratios,
 reduced masses (AMU), force constants (mDyne/A) and normal coordinates:
                      1                      2                      3
                        a                      a                      a 
 Frequencies --    23.4376                33.7244                47.1995
 Red. masses --    12.8663                13.1756                13.3295
 Frc consts  --     0.0000                 0.0000                 0.0000
 IR Inten    --     6.6837                 4.2948                 3.4509
 Raman Activ --     0.0000                 0.0000                 0.0000
 Depolar     --     0.0000                 0.0000                 0.0000
 Atom AN      X      Y      Z        X      Y      Z        X      Y      Z
   1   6     0.08  -0.06  -0.31    -0.01  -0.03   0.01     0.05  -0.09   0.12
   2   6     0.09  -0.04  -0.26     0.03  -0.03  -0.13     0.10  -0.07   0.07
   3   6     0.07  -0.01  -0.08     0.03  -0.01  -0.15     0.11  -0.02  -0.03
   4   6     0.04   0.00   0.04    -0.00   0.01  -0.04     0.06   0.00  -0.06
   5   6     0.03  -0.01  -0.02    -0.03   0.00   0.09     0.01  -0.02  -0.02
   6   6     0.05  -0.04  -0.19    -0.04  -0.01   0.13     0.01  -0.07   0.07
   7   6    -0.00   0.00   0.10    -0.06   0.02   0.20    -0.03   0.00  -0.07
   8   8    -0.03   0.00   0.23    -0.12   0.03   0.51    -0.06  -0.03  -0.20
   9   6     0.00   0.02   0.07    -0.04   0.03  -0.01    -0.03   0.06   0.02
  10   6    -0.00   0.02  -0.04    -0.05   0.03  -0.10    -0.08   0.09   0.12
  11   6     0.00   0.04  -0.11    -0.03   0.04  -0.27    -0.09   0.14   0.18
  12   6     0.01   0.05  -0.05    -0.01   0.05  -0.28    -0.05   0.16   0.14
  13   6     0.01   0.05   0.09    -0.01   0.05  -0.15     0.00   0.14   0.06
  14   6     0.01   0.04   0.14    -0.02   0.04  -0.08     0.01   0.09  -0.01
  15   6     0.02   0.03   0.22     0.00   0.03  -0.06     0.07   0.05  -0.13
  16   8     0.02   0.06   0.45     0.02   0.04  -0.09     0.14   0.07  -0.30
  17   7     0.02   0.08   0.21     0.00   0.07  -0.12     0.02   0.16   0.09
  18   6     0.02   0.05  -0.00    -0.00   0.08   0.04     0.02   0.13   0.04
  19   6    -0.19  -0.11  -0.09     0.15  -0.15   0.11    -0.07  -0.12   0.00
  20   8    -0.23  -0.16  -0.32     0.16  -0.25   0.36    -0.18  -0.60  -0.08
  21   1     0.03  -0.02  -0.13    -0.00  -0.01   0.01     0.01  -0.04   0.06
  22   1     0.03  -0.02  -0.10     0.02  -0.01  -0.07     0.04  -0.03   0.03
  23   1     0.02  -0.00  -0.01     0.02  -0.00  -0.07     0.04  -0.00  -0.02
  24   1     0.01  -0.01  -0.06    -0.02  -0.00   0.07    -0.01  -0.03   0.03
  25   1    -0.00   0.00  -0.02    -0.02   0.01  -0.01    -0.03   0.02   0.04
  26   1     0.00   0.01  -0.06    -0.01   0.01  -0.11    -0.04   0.05   0.07
  27   1     0.00   0.02  -0.03    -0.00   0.02  -0.12    -0.01   0.06   0.05
  28   1     0.00   0.02   0.09     0.00   0.02  -0.02     0.01   0.04  -0.00
  29   1     0.02   0.03   0.02    -0.01   0.04   0.06     0.00   0.05   0.05
  30   1     0.04   0.03  -0.04    -0.02   0.05  -0.01     0.02   0.06  -0.03
  31   1    -0.07  -0.04  -0.05     0.07  -0.06  -0.02     0.05  -0.03  -0.01
  32   1    -0.09  -0.05   0.02     0.05  -0.06   0.05    -0.10  -0.01   0.02
  33   1    -0.03  -0.03  -0.12     0.03  -0.05   0.08     0.02  -0.18  -0.04
                      4                      5                      6
                        a                      a                      a 
 Frequencies --    71.5622                86.8447               105.8192
 Red. masses --    11.0591                 8.1977                12.0948
 Frc consts  --     0.0000                 0.0000                 0.0000
 IR Inten    --     2.2432                 5.8296                 0.0113
 Raman Activ --     0.0000                 0.0000                 0.0000
 Depolar     --     0.0000                 0.0000                 0.0000
 Atom AN      X      Y      Z        X      Y      Z        X      Y      Z
   1   6    -0.00  -0.02  -0.19     0.01  -0.02  -0.09    -0.03   0.01   0.20
   2   6    -0.02  -0.01   0.05     0.01  -0.01   0.06     0.03  -0.02  -0.30
   3   6    -0.04   0.01   0.20     0.00   0.01   0.12     0.04  -0.02  -0.38
   4   6    -0.04   0.01   0.13    -0.00   0.02   0.06    -0.00  -0.00  -0.07
   5   6    -0.03  -0.00  -0.04    -0.01   0.01  -0.03    -0.03   0.01   0.18
   6   6    -0.00  -0.02  -0.22     0.00  -0.01  -0.13    -0.06   0.02   0.39
   7   6    -0.04   0.00  -0.00    -0.02   0.01  -0.01    -0.01   0.00  -0.02
   8   8    -0.04  -0.00  -0.04    -0.03   0.00  -0.10     0.03  -0.02  -0.41
   9   6    -0.04   0.01   0.07    -0.03   0.03   0.09    -0.01   0.01   0.02
  10   6    -0.06   0.02   0.17    -0.06   0.05   0.23    -0.02   0.01   0.07
  11   6    -0.06   0.03   0.17    -0.06   0.06   0.17    -0.02   0.01   0.06
  12   6    -0.03   0.02  -0.01    -0.02   0.06  -0.02    -0.01   0.01  -0.02
  13   6    -0.01   0.01  -0.12     0.00   0.04  -0.06    -0.01   0.00  -0.02
  14   6    -0.03   0.01  -0.00    -0.01   0.04   0.01    -0.01   0.01   0.02
  15   6    -0.04   0.02   0.14    -0.00   0.03   0.02    -0.02   0.01   0.09
  16   8    -0.06   0.03   0.30     0.01   0.04  -0.00    -0.06   0.03   0.42
  17   7     0.02  -0.01  -0.39     0.01   0.04  -0.16     0.01  -0.00  -0.11
  18   6     0.02   0.01  -0.20     0.01  -0.00  -0.10     0.01  -0.00  -0.08
  19   6     0.25   0.21  -0.10     0.00  -0.56  -0.10     0.07  -0.04  -0.05
  20   8     0.17  -0.31   0.08     0.18   0.18   0.09     0.09  -0.02   0.04
  21   1     0.00  -0.01  -0.10     0.01  -0.01  -0.05    -0.02   0.00   0.11
  22   1    -0.01  -0.00   0.03     0.00  -0.00   0.03     0.02  -0.01  -0.16
  23   1    -0.02   0.01   0.10     0.00   0.01   0.06     0.02  -0.01  -0.19
  24   1     0.00  -0.01  -0.11     0.00  -0.01  -0.06    -0.03   0.01   0.19
  25   1    -0.02   0.01   0.07    -0.02   0.02   0.10    -0.01   0.00   0.03
  26   1    -0.02   0.01   0.08    -0.02   0.02   0.07    -0.01   0.00   0.03
  27   1    -0.01   0.01  -0.02    -0.00   0.02  -0.04    -0.00   0.00  -0.02
  28   1     0.00  -0.00  -0.09     0.00   0.01  -0.04    -0.00   0.00  -0.00
  29   1    -0.01  -0.02  -0.09    -0.00   0.06   0.09    -0.00   0.00  -0.01
  30   1    -0.02  -0.02  -0.00     0.01   0.07  -0.13    -0.00   0.00  -0.03
  31   1     0.20   0.12   0.03    -0.14  -0.27  -0.19     0.02  -0.02  -0.03
  32   1     0.03   0.15  -0.11     0.12  -0.33   0.11     0.03  -0.02  -0.01
  33   1     0.09  -0.16   0.10    -0.06   0.20  -0.10     0.01   0.00   0.01
                      7                      8                      9
                        a                      a                      a 
 Frequencies --   148.4060               174.1098               178.9189
 Red. masses --    12.0276                10.3321                10.3324
 Frc consts  --     0.0000                 0.0000                 0.0000
 IR Inten    --     5.0719                 4.5366                 1.9609
 Raman Activ --     0.0000                 0.0000                 0.0000
 Depolar     --     0.0000                 0.0000                 0.0000
 Atom AN      X      Y      Z        X      Y      Z        X      Y      Z
   1   6    -0.00  -0.03   0.21     0.15  -0.19  -0.10    -0.08   0.10  -0.13
   2   6     0.02  -0.02   0.16     0.23  -0.14  -0.09    -0.12   0.07  -0.15
   3   6     0.05  -0.01  -0.12     0.19   0.01   0.11    -0.14   0.01   0.07
   4   6     0.04   0.00  -0.27     0.03   0.10   0.19    -0.07  -0.03   0.19
   5   6     0.03  -0.01  -0.27    -0.02   0.06   0.19    -0.05  -0.02   0.19
   6   6     0.00  -0.03  -0.05    -0.01  -0.10   0.09    -0.04   0.07   0.10
   7   6     0.01   0.00  -0.14    -0.04   0.09   0.04    -0.01  -0.05   0.03
   8   8    -0.06   0.03   0.36    -0.07   0.08  -0.05     0.01  -0.05   0.02
   9   6     0.03   0.01  -0.31    -0.01   0.12  -0.05     0.00  -0.07  -0.13
  10   6     0.02   0.02  -0.18     0.08   0.07  -0.22    -0.03  -0.07  -0.41
  11   6    -0.02   0.04   0.21     0.08   0.01  -0.03    -0.08   0.02   0.00
  12   6    -0.03   0.05   0.30     0.04   0.01   0.17    -0.09   0.07   0.42
  13   6     0.00   0.02  -0.02    -0.02   0.04   0.02    -0.00   0.02   0.17
  14   6     0.02   0.02  -0.24    -0.02   0.13   0.03    -0.00  -0.05   0.09
  15   6     0.02   0.03  -0.10     0.01   0.13   0.06    -0.03  -0.05   0.08
  16   8    -0.04   0.06   0.37     0.02   0.12  -0.13     0.01  -0.06  -0.14
  17   7    -0.02  -0.00  -0.09    -0.19  -0.09  -0.18     0.14   0.06  -0.04
  18   6    -0.03  -0.08  -0.03    -0.21  -0.35  -0.09     0.15   0.15  -0.07
  19   6    -0.01  -0.09  -0.02    -0.10  -0.06  -0.03     0.16  -0.07  -0.08
  20   8     0.01   0.00   0.01    -0.08   0.06   0.11     0.19  -0.07  -0.06
  21   1    -0.01  -0.01   0.14     0.05  -0.09  -0.08    -0.02   0.04  -0.09
  22   1     0.00  -0.01   0.11     0.10  -0.06  -0.07    -0.04   0.02  -0.10
  23   1     0.02   0.00  -0.03     0.09   0.03   0.04    -0.06  -0.01   0.02
  24   1    -0.01  -0.01  -0.01    -0.04  -0.05   0.02     0.01   0.03   0.03
  25   1     0.01   0.00  -0.07     0.05   0.03  -0.11    -0.01  -0.04  -0.22
  26   1    -0.01   0.02   0.13     0.03  -0.00  -0.01    -0.03   0.01   0.01
  27   1    -0.02   0.02   0.19     0.01  -0.01   0.11    -0.04   0.04   0.22
  28   1    -0.02   0.01  -0.03    -0.09   0.00  -0.07     0.06   0.00  -0.05
  29   1    -0.03  -0.03  -0.01    -0.12  -0.15  -0.09     0.06   0.07   0.02
  30   1     0.00  -0.03  -0.01    -0.03  -0.17   0.04     0.04   0.08  -0.06
  31   1    -0.02  -0.03  -0.01    -0.03   0.01   0.04     0.04  -0.04  -0.07
  32   1     0.01  -0.04  -0.00     0.01   0.00  -0.07     0.05  -0.05   0.01
  33   1    -0.01   0.01  -0.00    -0.06  -0.01   0.11     0.05   0.02  -0.08
                     10                     11                     12
                        a                      a                      a 
 Frequencies --   228.0681               262.8422               290.5815
 Red. masses --    10.9082                11.2310                11.0279
 Frc consts  --     0.0000                 0.0000                 0.0000
 IR Inten    --     0.4612                 4.2146                 6.3798
 Raman Activ --     0.0000                 0.0000                 0.0000
 Depolar     --     0.0000                 0.0000                 0.0000
 Atom AN      X      Y      Z        X      Y      Z        X      Y      Z
   1   6    -0.04  -0.04   0.18    -0.03  -0.27  -0.00     0.11  -0.05   0.03
   2   6     0.00  -0.02   0.15     0.11  -0.18   0.01     0.09  -0.05   0.01
   3   6     0.04   0.01  -0.20     0.09   0.09   0.03     0.08  -0.02  -0.01
   4   6     0.00   0.03  -0.23    -0.13   0.21  -0.01     0.02   0.01   0.00
   5   6    -0.02   0.01  -0.25    -0.23   0.15  -0.02     0.06   0.04  -0.01
   6   6    -0.03  -0.03  -0.18    -0.24  -0.13  -0.00     0.07  -0.02  -0.00
   7   6    -0.04   0.03   0.02    -0.10   0.13  -0.03     0.08   0.05  -0.00
   8   8    -0.04   0.03  -0.03     0.07   0.26   0.01     0.21   0.13   0.02
   9   6    -0.06   0.04   0.32    -0.03   0.01  -0.05     0.05  -0.02   0.01
  10   6    -0.01   0.00  -0.08     0.06  -0.04   0.02     0.11  -0.06  -0.04
  11   6     0.01  -0.03  -0.22     0.07  -0.15   0.04     0.10  -0.10   0.05
  12   6    -0.02  -0.00   0.09     0.04  -0.16   0.01    -0.01  -0.14   0.07
  13   6    -0.03   0.01   0.31     0.02  -0.14   0.00    -0.11  -0.08   0.01
  14   6    -0.06   0.05   0.47    -0.00   0.01  -0.05    -0.07  -0.07   0.05
  15   6    -0.04   0.05   0.08    -0.13   0.12  -0.03    -0.02  -0.07   0.03
  16   8    -0.03   0.04  -0.07    -0.26   0.09  -0.03    -0.06  -0.12  -0.01
  17   7     0.02  -0.02   0.04     0.12  -0.10   0.08    -0.12  -0.07  -0.13
  18   6     0.02  -0.09  -0.19     0.17   0.12   0.14    -0.13   0.46  -0.20
  19   6     0.12  -0.03  -0.17     0.14   0.02   0.10    -0.18   0.11  -0.19
  20   8     0.16  -0.02   0.06     0.16  -0.05  -0.19    -0.26  -0.03   0.34
  21   1    -0.02  -0.02   0.13    -0.01  -0.12  -0.00     0.03  -0.02   0.02
  22   1     0.00  -0.01   0.11     0.08  -0.08   0.00     0.03  -0.02   0.01
  23   1     0.02   0.01  -0.07     0.08   0.06   0.01     0.04   0.01  -0.00
  24   1    -0.02  -0.02  -0.07    -0.13  -0.07  -0.00     0.00  -0.01  -0.00
  25   1     0.01  -0.00  -0.10     0.05   0.01   0.02     0.04  -0.01  -0.04
  26   1     0.01  -0.02  -0.17     0.03  -0.05   0.02     0.04  -0.04   0.02
  27   1    -0.00  -0.01  -0.01     0.01  -0.05  -0.00    -0.00  -0.05   0.01
  28   1    -0.01   0.00   0.01     0.06  -0.04   0.02     0.01  -0.04  -0.05
  29   1     0.00  -0.04  -0.08     0.08   0.07   0.08     0.09   0.21   0.03
  30   1     0.04  -0.05  -0.05     0.00   0.07   0.02    -0.10   0.23  -0.15
  31   1     0.06  -0.00  -0.05     0.03  -0.00   0.02    -0.01  -0.01  -0.15
  32   1     0.06  -0.00  -0.08     0.01   0.00   0.06    -0.04  -0.01  -0.00
  33   1     0.01  -0.02   0.06     0.10   0.05  -0.20    -0.09   0.04   0.03
                     13                     14                     15
                        a                      a                      a 
 Frequencies --   306.8321               327.2929               342.2820
 Red. masses --     9.0959                12.7957                 5.0269
 Frc consts  --     0.0000                 0.0000                 0.0000
 IR Inten    --    29.7165                13.1192               188.5570
 Raman Activ --     0.0000                 0.0000                 0.0000
 Depolar     --     0.0000                 0.0000                 0.0000
 Atom AN      X      Y      Z        X      Y      Z        X      Y      Z
   1   6     0.05   0.07   0.07     0.06  -0.04   0.03     0.03   0.01  -0.03
   2   6     0.01   0.04   0.04     0.10  -0.01   0.04     0.03   0.01  -0.01
   3   6     0.03  -0.03  -0.10     0.10   0.06  -0.04     0.02   0.01   0.06
   4   6     0.05  -0.05   0.00     0.03   0.09   0.00     0.02   0.01  -0.02
   5   6     0.09  -0.03  -0.02    -0.02   0.08  -0.00     0.01   0.01  -0.00
   6   6     0.11   0.03  -0.09    -0.01   0.01  -0.05     0.01   0.01   0.05
   7   6     0.01   0.01   0.06     0.07   0.00   0.04     0.02  -0.01  -0.02
   8   8    -0.10  -0.06  -0.04     0.52   0.26   0.02     0.10   0.04   0.02
   9   6    -0.02   0.06   0.15    -0.00  -0.21   0.07    -0.00  -0.05  -0.03
  10   6     0.04   0.02  -0.07    -0.24  -0.11  -0.03    -0.07  -0.01   0.04
  11   6     0.05  -0.03  -0.06    -0.28   0.13  -0.07    -0.08   0.05  -0.02
  12   6    -0.02  -0.04   0.07    -0.15   0.21  -0.01    -0.04   0.07  -0.05
  13   6    -0.06  -0.02  -0.02     0.03   0.10  -0.03     0.00   0.04   0.02
  14   6    -0.07   0.02   0.14     0.05  -0.15   0.04     0.02  -0.03  -0.04
  15   6     0.02  -0.01   0.08     0.03  -0.13   0.03     0.02  -0.04  -0.04
  16   8     0.08  -0.00   0.00    -0.17  -0.26   0.00    -0.04  -0.07   0.01
  17   7    -0.09  -0.09  -0.51    -0.00   0.08  -0.16    -0.05   0.05   0.20
  18   6    -0.09   0.07   0.28    -0.03  -0.10   0.09    -0.06  -0.16  -0.15
  19   6    -0.01   0.04   0.31    -0.03  -0.04   0.11     0.04   0.12  -0.14
  20   8    -0.05  -0.05  -0.16    -0.02   0.04  -0.10    -0.00  -0.14   0.31
  21   1     0.01   0.03   0.05     0.02  -0.03   0.02     0.01  -0.00  -0.02
  22   1    -0.01   0.02   0.03     0.04  -0.01   0.02     0.01   0.00  -0.01
  23   1     0.00  -0.02  -0.05     0.05   0.03  -0.02     0.00   0.01   0.03
  24   1     0.05   0.01  -0.05    -0.02  -0.01  -0.03    -0.00   0.00   0.03
  25   1     0.02   0.01  -0.06    -0.13  -0.07  -0.02    -0.04  -0.01   0.03
  26   1     0.03  -0.02  -0.05    -0.12   0.06  -0.04    -0.03   0.02  -0.00
  27   1    -0.00  -0.02   0.02    -0.04   0.09   0.00    -0.01   0.02  -0.00
  28   1    -0.02  -0.03  -0.15    -0.02   0.03  -0.05    -0.04   0.02   0.07
  29   1    -0.05   0.04   0.12    -0.06  -0.04   0.02    -0.03  -0.10  -0.15
  30   1    -0.12   0.05   0.11    -0.01  -0.04   0.04     0.05  -0.13   0.02
  31   1    -0.04   0.01   0.10    -0.03  -0.00   0.06     0.07   0.05  -0.01
  32   1    -0.06   0.02   0.12    -0.01  -0.00   0.02     0.01   0.07  -0.09
  33   1     0.10   0.16  -0.42    -0.02  -0.07   0.11     0.11   0.38  -0.67
                     16                     17                     18
                        a                      a                      a 
 Frequencies --   362.0800               380.0506               385.3259
 Red. masses --    12.0686                 9.7356                10.8675
 Frc consts  --     0.0000                 0.0000                 0.0000
 IR Inten    --     5.4599                 0.8487                 0.2941
 Raman Activ --     0.0000                 0.0000                 0.0000
 Depolar     --     0.0000                 0.0000                 0.0000
 Atom AN      X      Y      Z        X      Y      Z        X      Y      Z
   1   6     0.22   0.17  -0.01    -0.01   0.02   0.11     0.04  -0.02  -0.28
   2   6     0.26   0.20  -0.00    -0.00   0.04   0.23    -0.03   0.01   0.25
   3   6     0.23   0.15   0.08     0.07   0.01  -0.41    -0.00  -0.00   0.00
   4   6     0.17   0.14  -0.02    -0.02   0.04   0.27     0.03  -0.02  -0.31
   5   6     0.11   0.10  -0.02    -0.06   0.03   0.39    -0.03   0.02   0.25
   6   6     0.13   0.18   0.06     0.04  -0.00  -0.40    -0.01   0.00   0.07
   7   6    -0.14   0.12  -0.05    -0.05   0.02   0.19    -0.04   0.02   0.30
   8   8    -0.35   0.05  -0.03    -0.06  -0.01  -0.08    -0.01  -0.01  -0.15
   9   6    -0.17  -0.07  -0.05    -0.02  -0.02  -0.08    -0.02   0.02   0.22
  10   6    -0.22  -0.08  -0.01    -0.01  -0.03  -0.07     0.01   0.01   0.07
  11   6    -0.23  -0.18  -0.00    -0.03  -0.03   0.08     0.04  -0.03  -0.28
  12   6    -0.20  -0.16  -0.02     0.00  -0.02  -0.02    -0.01   0.01   0.26
  13   6    -0.09  -0.19   0.03     0.03  -0.03  -0.13    -0.00   0.00   0.05
  14   6    -0.07  -0.06  -0.02     0.03  -0.01  -0.14     0.03  -0.02  -0.28
  15   6     0.10  -0.07  -0.01     0.01   0.01   0.10     0.04  -0.02  -0.35
  16   8     0.07  -0.11   0.02     0.02  -0.00  -0.04    -0.04   0.01   0.18
  17   7    -0.01  -0.16   0.11     0.03  -0.00   0.13     0.01  -0.01  -0.02
  18   6     0.03   0.01  -0.01     0.03  -0.02  -0.03     0.01   0.03  -0.01
  19   6     0.06  -0.01  -0.02    -0.01   0.01  -0.05    -0.01  -0.00  -0.01
  20   8     0.08  -0.00  -0.06    -0.02  -0.01   0.06    -0.01  -0.00   0.01
  21   1     0.06   0.02  -0.01    -0.00   0.00   0.04     0.02  -0.01  -0.18
  22   1     0.07   0.06  -0.01    -0.00   0.01   0.12    -0.02   0.01   0.17
  23   1     0.07   0.05   0.04     0.04  -0.01  -0.30    -0.00   0.00   0.01
  24   1     0.05   0.06   0.04     0.03  -0.01  -0.30    -0.01   0.00   0.05
  25   1    -0.06  -0.02   0.01    -0.00  -0.01  -0.00     0.00   0.01   0.06
  26   1    -0.06  -0.06   0.00    -0.02  -0.00   0.08     0.02  -0.02  -0.18
  27   1    -0.06  -0.02  -0.01    -0.00   0.00   0.04    -0.01   0.01   0.14
  28   1     0.02  -0.06   0.03     0.01  -0.00   0.03     0.01  -0.00  -0.03
  29   1     0.04   0.02   0.01     0.02  -0.01  -0.03     0.01   0.01   0.00
  30   1    -0.01   0.03  -0.02     0.03  -0.01  -0.01    -0.00   0.01  -0.01
  31   1     0.02  -0.00  -0.01     0.01   0.01  -0.01    -0.00  -0.00  -0.01
  32   1     0.02  -0.00  -0.01     0.00   0.01  -0.02     0.00  -0.01   0.00
  33   1     0.01  -0.03   0.04    -0.01   0.02  -0.02    -0.01  -0.01   0.02
                     19                     20                     21
                        a                      a                      a 
 Frequencies --   412.7259               426.3773               448.4743
 Red. masses --    14.9009                12.0540                 9.9461
 Frc consts  --     0.0000                 0.0000                 0.0000
 IR Inten    --    41.6161                 8.9032                 1.2182
 Raman Activ --     0.0000                 0.0000                 0.0000
 Depolar     --     0.0000                 0.0000                 0.0000
 Atom AN      X      Y      Z        X      Y      Z        X      Y      Z
   1   6    -0.14  -0.03  -0.03     0.20  -0.01  -0.01     0.01  -0.01  -0.29
   2   6    -0.11  -0.00   0.00    -0.07  -0.16   0.05    -0.02   0.03   0.25
   3   6    -0.08  -0.00  -0.01    -0.07  -0.24  -0.03     0.02   0.02  -0.06
   4   6     0.01  -0.04  -0.02    -0.08  -0.19  -0.00     0.05  -0.00  -0.36
   5   6    -0.07  -0.02   0.00     0.20  -0.00   0.10    -0.04   0.01   0.17
   6   6    -0.08  -0.04   0.00     0.25  -0.03   0.02    -0.04   0.01   0.15
   7   6    -0.04  -0.00   0.01     0.12   0.13   0.01    -0.02  -0.02   0.08
   8   8     0.32   0.21   0.02     0.17   0.17   0.01    -0.01  -0.02  -0.03
   9   6    -0.08  -0.04  -0.00     0.05   0.20  -0.08     0.01  -0.03  -0.07
  10   6    -0.15  -0.04  -0.02     0.01   0.25  -0.02     0.04  -0.05  -0.27
  11   6    -0.16  -0.15   0.00    -0.01   0.10   0.03    -0.03   0.03   0.38
  12   6    -0.13  -0.14  -0.01    -0.27  -0.08  -0.06     0.06  -0.00  -0.29
  13   6    -0.03  -0.15  -0.00    -0.27  -0.07   0.03     0.03   0.01  -0.10
  14   6    -0.03   0.04  -0.00    -0.24   0.03  -0.03    -0.02   0.02   0.37
  15   6     0.08   0.09  -0.01    -0.16  -0.06  -0.03     0.01   0.00   0.01
  16   8     0.65   0.41   0.06    -0.05   0.01  -0.01    -0.01  -0.02  -0.00
  17   7     0.02  -0.13  -0.03    -0.15   0.01   0.18    -0.00   0.02  -0.02
  18   6     0.01  -0.03  -0.00    -0.08  -0.00  -0.00    -0.01  -0.01   0.02
  19   6    -0.03   0.01  -0.01     0.15  -0.04   0.01    -0.00   0.00   0.03
  20   8    -0.05  -0.00   0.05     0.23  -0.01  -0.18    -0.01   0.00  -0.01
  21   1    -0.04  -0.00  -0.01     0.06   0.05  -0.02     0.01  -0.01  -0.17
  22   1    -0.02  -0.00   0.01    -0.07  -0.02   0.02    -0.01   0.01   0.19
  23   1    -0.04  -0.01  -0.00    -0.01  -0.06  -0.02    -0.00   0.01   0.01
  24   1    -0.02  -0.01   0.00     0.06  -0.02  -0.01    -0.02   0.01   0.10
  25   1    -0.03  -0.01  -0.01     0.00   0.07   0.00     0.02  -0.02  -0.17
  26   1    -0.03  -0.05   0.01     0.06  -0.00   0.03    -0.03   0.02   0.25
  27   1    -0.04  -0.01  -0.00    -0.07  -0.07  -0.02     0.02  -0.00  -0.12
  28   1     0.01  -0.04  -0.00    -0.02  -0.01   0.07    -0.02   0.01   0.07
  29   1     0.02  -0.01  -0.01    -0.04   0.00   0.01    -0.01  -0.00   0.01
  30   1    -0.00  -0.01   0.00    -0.02  -0.00   0.00    -0.01   0.00   0.01
  31   1    -0.01   0.00   0.00     0.05  -0.01   0.00    -0.00   0.00   0.01
  32   1    -0.01   0.00  -0.01     0.05  -0.01  -0.01    -0.00   0.00   0.01
  33   1    -0.01   0.02  -0.01     0.07  -0.04   0.01     0.00   0.00  -0.01
                     22                     23                     24
                        a                      a                      a 
 Frequencies --   465.0148               501.1164               533.5401
 Red. masses --    13.3826                10.8261                11.9890
 Frc consts  --     0.0000                 0.0000                 0.0000
 IR Inten    --     1.8737                 1.7930                14.5242
 Raman Activ --     0.0000                 0.0000                 0.0000
 Depolar     --     0.0000                 0.0000                 0.0000
 Atom AN      X      Y      Z        X      Y      Z        X      Y      Z
   1   6    -0.12  -0.08  -0.00    -0.03   0.00  -0.11     0.03  -0.06  -0.04
   2   6    -0.14  -0.07  -0.02     0.01   0.06   0.14    -0.15  -0.14   0.04
   3   6    -0.12   0.07  -0.01     0.04   0.04  -0.11    -0.13  -0.02  -0.05
   4   6     0.07  -0.01   0.01     0.03   0.03   0.04    -0.02  -0.03  -0.01
   5   6     0.04   0.07  -0.01    -0.07  -0.01   0.22     0.12   0.07   0.05
   6   6     0.02  -0.14   0.01    -0.06   0.01   0.04     0.14  -0.10   0.06
   7   6    -0.20   0.30  -0.04     0.02  -0.07  -0.26     0.02   0.19  -0.09
   8   8    -0.20   0.40  -0.04     0.03  -0.04   0.10    -0.16   0.15   0.00
   9   6    -0.12  -0.02  -0.00     0.04  -0.07  -0.49     0.07   0.11  -0.12
  10   6     0.15  -0.16   0.02    -0.01  -0.04   0.28    -0.10   0.22   0.04
  11   6     0.17   0.00   0.02     0.03  -0.01  -0.09    -0.10   0.07  -0.04
  12   6     0.15   0.04   0.02     0.07   0.02  -0.02    -0.13   0.01  -0.03
  13   6    -0.07   0.14  -0.02    -0.06   0.09   0.52     0.14  -0.14   0.12
  14   6    -0.10  -0.10  -0.01    -0.00   0.01   0.10     0.08   0.01   0.08
  15   6     0.15  -0.30   0.03     0.05   0.00  -0.03    -0.01  -0.03   0.02
  16   8     0.30  -0.33   0.05     0.04  -0.01   0.01    -0.10  -0.07  -0.01
  17   7    -0.03   0.22  -0.00    -0.11  -0.02  -0.13     0.38  -0.13  -0.20
  18   6    -0.04  -0.00   0.00    -0.11   0.03  -0.01     0.35  -0.12   0.05
  19   6     0.02  -0.02   0.01     0.04  -0.00   0.01    -0.15   0.02  -0.02
  20   8     0.04   0.00  -0.04     0.06  -0.00  -0.06    -0.26   0.02   0.19
  21   1    -0.04   0.01   0.00    -0.00  -0.02  -0.10     0.01   0.04  -0.04
  22   1    -0.02  -0.03  -0.01     0.01   0.01   0.06    -0.05  -0.04   0.02
  23   1    -0.04   0.01  -0.00     0.01   0.00  -0.09    -0.03  -0.00  -0.02
  24   1    -0.00  -0.04   0.00    -0.00   0.00  -0.04     0.02  -0.04   0.01
  25   1     0.06  -0.03   0.01    -0.01  -0.01   0.14    -0.04   0.06   0.02
  26   1     0.02   0.02   0.00     0.01  -0.00  -0.15     0.01  -0.00  -0.04
  27   1     0.04  -0.04   0.02     0.04  -0.01  -0.19    -0.03   0.04  -0.06
  28   1    -0.01   0.06   0.04    -0.04   0.00  -0.06     0.13  -0.05  -0.08
  29   1    -0.07  -0.03  -0.02    -0.03   0.02   0.01     0.12  -0.05  -0.03
  30   1     0.04  -0.04   0.03    -0.06   0.02  -0.00     0.11  -0.05   0.02
  31   1     0.00  -0.01   0.00     0.01  -0.00  -0.01    -0.06   0.01   0.02
  32   1     0.01  -0.01   0.00     0.01  -0.00   0.00    -0.06   0.01   0.00
  33   1     0.01  -0.01   0.00     0.02  -0.01  -0.00    -0.09   0.04   0.01
                     25                     26                     27
                        a                      a                      a 
 Frequencies --   571.2757               603.2393               617.3051
 Red. masses --    11.3984                11.0214                 9.7145
 Frc consts  --     0.0000                 0.0000                 0.0000
 IR Inten    --    12.9030                 6.0812                12.0462
 Raman Activ --     0.0000                 0.0000                 0.0000
 Depolar     --     0.0000                 0.0000                 0.0000
 Atom AN      X      Y      Z        X      Y      Z        X      Y      Z
   1   6    -0.30  -0.12  -0.01    -0.11  -0.03  -0.04     0.04  -0.01  -0.26
   2   6    -0.11   0.03  -0.03     0.15   0.13   0.04    -0.02   0.02   0.24
   3   6    -0.09   0.31  -0.01     0.13   0.14  -0.02     0.04  -0.03  -0.24
   4   6     0.21   0.13   0.01     0.00   0.12   0.00    -0.02  -0.01   0.07
   5   6     0.04  -0.01  -0.00    -0.18   0.03  -0.03     0.01  -0.01  -0.20
   6   6    -0.01  -0.25  -0.00    -0.26   0.08  -0.01    -0.04   0.03   0.24
   7   6     0.08  -0.01   0.05     0.12  -0.12  -0.01     0.01  -0.01  -0.17
   8   8     0.01  -0.08  -0.01     0.05  -0.20   0.02    -0.01   0.01   0.04
   9   6     0.12   0.15   0.04     0.14   0.12  -0.01    -0.00  -0.01  -0.04
  10   6    -0.05   0.29  -0.06     0.13   0.21   0.03    -0.01  -0.00   0.15
  11   6    -0.05   0.13   0.01     0.16   0.17  -0.04     0.02  -0.01  -0.19
  12   6    -0.09   0.04  -0.03    -0.32  -0.10   0.00    -0.00   0.02   0.15
  13   6     0.10  -0.10  -0.00    -0.26  -0.09  -0.05     0.03  -0.01  -0.35
  14   6     0.15   0.07  -0.02    -0.18  -0.12   0.01    -0.00   0.00   0.04
  15   6     0.24  -0.05   0.02    -0.01  -0.19   0.04    -0.06   0.02   0.44
  16   8     0.02  -0.22   0.03     0.19  -0.16   0.01     0.02   0.00  -0.10
  17   7    -0.20  -0.33   0.15     0.13   0.17  -0.11    -0.03   0.00   0.18
  18   6    -0.17   0.03  -0.03     0.13  -0.03   0.02    -0.02   0.01  -0.00
  19   6     0.05   0.01  -0.01    -0.03  -0.01   0.00     0.01  -0.00  -0.00
  20   8     0.10  -0.01  -0.06    -0.06   0.01   0.04     0.02  -0.00  -0.01
  21   1    -0.09  -0.00   0.00    -0.03  -0.09  -0.01     0.01  -0.01  -0.09
  22   1     0.06  -0.04   0.00     0.08   0.02   0.02    -0.02   0.01   0.16
  23   1    -0.05   0.07   0.00     0.05   0.05  -0.01     0.01  -0.01  -0.05
  24   1     0.01  -0.06   0.00    -0.09   0.02  -0.00    -0.02   0.01   0.15
  25   1    -0.03   0.07  -0.03     0.02   0.05   0.02    -0.01   0.00   0.10
  26   1     0.03   0.01   0.02     0.13   0.00   0.01     0.00   0.00  -0.02
  27   1    -0.03   0.07  -0.02    -0.09  -0.14   0.04    -0.01   0.01   0.17
  28   1    -0.05  -0.08  -0.10     0.06   0.02   0.17     0.04  -0.01  -0.34
  29   1     0.06   0.07   0.06    -0.04  -0.06  -0.05    -0.01   0.00   0.01
  30   1    -0.15   0.10  -0.06     0.12  -0.08   0.05    -0.01   0.00  -0.00
  31   1     0.03   0.01   0.00    -0.02  -0.01   0.00     0.00   0.00   0.00
  32   1     0.03   0.01  -0.02    -0.02  -0.01   0.02     0.01  -0.00  -0.01
  33   1     0.04  -0.01  -0.01    -0.02   0.01   0.01     0.01  -0.00  -0.00
                     28                     29                     30
                        a                      a                      a 
 Frequencies --   633.3902               659.7048               669.9291
 Red. masses --     4.3574                10.9946                10.4012
 Frc consts  --     0.0000                 0.0000                 0.0000
 IR Inten    --   113.2281                 9.2428                18.4952
 Raman Activ --     0.0000                 0.0000                 0.0000
 Depolar     --     0.0000                 0.0000                 0.0000
 Atom AN      X      Y      Z        X      Y      Z        X      Y      Z
   1   6    -0.03  -0.04  -0.09    -0.02   0.09  -0.04    -0.05   0.02   0.14
   2   6    -0.08  -0.03   0.08     0.12   0.14   0.05     0.04   0.03  -0.21
   3   6    -0.05   0.12  -0.10     0.15  -0.41   0.00     0.00  -0.03   0.17
   4   6     0.06   0.05   0.08    -0.02  -0.24   0.07     0.08  -0.06  -0.38
   5   6     0.12  -0.01  -0.06    -0.19  -0.16  -0.06    -0.03  -0.04   0.20
   6   6     0.12  -0.13   0.11    -0.27   0.21  -0.00     0.01  -0.02  -0.21
   7   6     0.04  -0.02  -0.09    -0.19   0.03  -0.06    -0.07   0.00   0.28
   8   8     0.01  -0.03   0.03     0.04   0.23   0.00     0.04   0.03  -0.08
   9   6    -0.01  -0.02  -0.02    -0.07   0.17   0.03     0.01   0.01  -0.42
  10   6    -0.06  -0.03   0.07    -0.03   0.23  -0.03    -0.03   0.05   0.15
  11   6    -0.05  -0.11  -0.11     0.01   0.06  -0.00     0.01  -0.05  -0.19
  12   6     0.03  -0.02   0.11     0.11   0.07   0.01     0.01  -0.01   0.10
  13   6     0.03  -0.02  -0.10     0.16  -0.03   0.02     0.03  -0.01  -0.19
  14   6     0.03   0.04   0.01     0.08   0.11  -0.03    -0.02   0.06   0.23
  15   6     0.01   0.10   0.11     0.12  -0.08   0.02     0.01   0.02   0.23
  16   8    -0.09   0.04  -0.09     0.02  -0.22   0.00    -0.03  -0.04  -0.08
  17   7    -0.02   0.01  -0.20    -0.02  -0.23  -0.03     0.00   0.01   0.01
  18   6    -0.04   0.03  -0.01     0.00  -0.02  -0.00     0.01   0.01  -0.00
  19   6     0.01   0.00   0.01     0.00   0.01  -0.01    -0.00  -0.00   0.00
  20   8     0.02  -0.00  -0.01     0.00  -0.00   0.00    -0.00  -0.00   0.00
  21   1    -0.01   0.04  -0.05    -0.00  -0.08  -0.02    -0.03   0.00   0.16
  22   1     0.00  -0.02   0.04    -0.04   0.08  -0.00    -0.00   0.01   0.04
  23   1    -0.02   0.03  -0.05    -0.01  -0.15  -0.02    -0.03  -0.01   0.20
  24   1     0.04  -0.03   0.05    -0.05   0.07  -0.00     0.01   0.01   0.01
  25   1    -0.01   0.00   0.06     0.03   0.09  -0.02    -0.01   0.04   0.21
  26   1    -0.03  -0.02   0.02     0.02   0.01   0.00    -0.00  -0.01   0.07
  27   1    -0.00   0.03   0.14     0.03   0.08   0.01    -0.01   0.01   0.17
  28   1    -0.12   0.03   0.81    -0.05  -0.05   0.22     0.00  -0.00   0.01
  29   1    -0.01   0.02   0.01     0.09   0.04   0.05     0.00   0.00   0.00
  30   1    -0.00   0.02  -0.02    -0.06   0.07  -0.05     0.01   0.00  -0.00
  31   1     0.00   0.00   0.00     0.00   0.01   0.02    -0.00   0.00   0.00
  32   1    -0.00   0.00   0.01    -0.00   0.02  -0.02    -0.00  -0.00   0.00
  33   1     0.01  -0.01   0.01     0.00   0.00  -0.00    -0.00  -0.00   0.00
                     31                     32                     33
                        a                      a                      a 
 Frequencies --   676.4573               693.0984               761.6891
 Red. masses --    11.2036                10.3401                10.5534
 Frc consts  --     0.0000                 0.0000                 0.0000
 IR Inten    --     6.9966                68.7498                 0.1129
 Raman Activ --     0.0000                 0.0000                 0.0000
 Depolar     --     0.0000                 0.0000                 0.0000
 Atom AN      X      Y      Z        X      Y      Z        X      Y      Z
   1   6     0.22  -0.02   0.04     0.01  -0.01  -0.12     0.01   0.00   0.06
   2   6    -0.05  -0.21  -0.02     0.00   0.00  -0.01     0.01  -0.02  -0.10
   3   6    -0.08  -0.04   0.00     0.01   0.00  -0.11    -0.01   0.01   0.05
   4   6    -0.23   0.08  -0.07     0.00   0.00   0.03     0.04  -0.01  -0.36
   5   6    -0.08   0.25  -0.01     0.03  -0.02  -0.26    -0.05   0.03   0.38
   6   6    -0.09   0.19  -0.04     0.00  -0.01   0.01     0.00   0.01  -0.08
   7   6     0.13   0.13   0.06    -0.05   0.02   0.43     0.05  -0.02  -0.40
   8   8    -0.21  -0.06  -0.03     0.02  -0.01  -0.12    -0.01  -0.00   0.10
   9   6     0.21  -0.17  -0.03     0.00  -0.00  -0.08    -0.03   0.03   0.27
  10   6     0.07  -0.10   0.03     0.01  -0.01  -0.11    -0.01   0.01   0.03
  11   6     0.04   0.30  -0.05    -0.01  -0.00   0.12    -0.02  -0.01   0.10
  12   6    -0.06   0.19  -0.00     0.01  -0.02  -0.14     0.01   0.00   0.06
  13   6     0.13  -0.07  -0.01    -0.05   0.04   0.41     0.00   0.00   0.01
  14   6     0.10  -0.22   0.04     0.03  -0.02  -0.40     0.04  -0.02  -0.32
  15   6    -0.14  -0.10   0.04    -0.04   0.02   0.36    -0.05   0.02   0.42
  16   8     0.26   0.08   0.00     0.01  -0.01  -0.11     0.02  -0.02  -0.10
  17   7    -0.08  -0.26   0.01     0.01   0.01  -0.08    -0.00   0.01  -0.00
  18   6    -0.10  -0.03  -0.02     0.01  -0.00   0.00    -0.00   0.00   0.00
  19   6     0.01   0.00  -0.00    -0.00   0.00  -0.01     0.00   0.00  -0.00
  20   8     0.03  -0.00  -0.02    -0.00   0.00   0.00     0.00  -0.00  -0.00
  21   1     0.06  -0.01   0.03    -0.02   0.01   0.18     0.00   0.00   0.03
  22   1    -0.06  -0.03   0.01    -0.02   0.01   0.20    -0.01   0.00   0.08
  23   1     0.05   0.04   0.03    -0.02   0.01   0.15    -0.01   0.01   0.13
  24   1    -0.11   0.00  -0.00    -0.02   0.01   0.23    -0.00  -0.00  -0.05
  25   1    -0.08  -0.09   0.04    -0.00   0.01   0.05     0.02  -0.01  -0.22
  26   1    -0.02   0.10   0.01    -0.00  -0.00   0.03     0.02  -0.02  -0.18
  27   1    -0.02   0.08   0.03     0.01  -0.01  -0.09     0.02  -0.01  -0.16
  28   1    -0.08  -0.04   0.14    -0.00   0.00   0.02    -0.01   0.00   0.05
  29   1     0.07   0.06   0.07     0.00  -0.01  -0.01    -0.00  -0.00  -0.01
  30   1    -0.11   0.09  -0.07     0.01  -0.01   0.01     0.00  -0.00   0.01
  31   1     0.02   0.02   0.03    -0.00  -0.00  -0.01     0.00  -0.00  -0.01
  32   1     0.01   0.02  -0.04    -0.00  -0.00   0.00    -0.00  -0.00   0.00
  33   1     0.01   0.00  -0.01    -0.00  -0.00   0.00     0.00  -0.00  -0.00
                     34                     35                     36
                        a                      a                      a 
 Frequencies --   765.3505               779.7067               802.1868
 Red. masses --    11.3818                 4.8424                 5.4130
 Frc consts  --     0.0000                 0.0000                 0.0000
 IR Inten    --     0.3637                 1.1805                18.5862
 Raman Activ --     0.0000                 0.0000                 0.0000
 Depolar     --     0.0000                 0.0000                 0.0000
 Atom AN      X      Y      Z        X      Y      Z        X      Y      Z
   1   6     0.27  -0.02   0.03     0.01  -0.01  -0.15    -0.02   0.01   0.11
   2   6    -0.12  -0.27   0.00     0.02   0.00  -0.12    -0.01   0.01   0.13
   3   6    -0.13   0.06  -0.02     0.02  -0.01  -0.12    -0.01  -0.00   0.09
   4   6    -0.13   0.11  -0.00    -0.02   0.01   0.22     0.02  -0.01  -0.12
   5   6    -0.09   0.18  -0.04    -0.00  -0.00   0.04     0.03  -0.01  -0.21
   6   6    -0.10   0.22  -0.02     0.02  -0.01  -0.10    -0.01   0.00   0.10
   7   6     0.13  -0.05   0.04    -0.01   0.01   0.02    -0.03   0.02   0.31
   8   8     0.04  -0.16   0.01    -0.00   0.01  -0.00     0.00   0.00  -0.08
   9   6     0.02   0.16  -0.03     0.01  -0.01  -0.10     0.03  -0.02  -0.19
  10   6    -0.20   0.27  -0.04    -0.01  -0.00   0.12    -0.01   0.01   0.10
  11   6    -0.18  -0.40   0.01    -0.00   0.03   0.08    -0.01   0.02   0.11
  12   6     0.23  -0.11   0.04    -0.03   0.02   0.24    -0.03   0.03   0.25
  13   6     0.07   0.09  -0.01     0.02  -0.03  -0.24     0.02  -0.02  -0.15
  14   6     0.04   0.10   0.02    -0.01   0.00   0.14     0.02  -0.01  -0.04
  15   6     0.10  -0.13  -0.01     0.02  -0.01  -0.24    -0.02   0.01   0.16
  16   8     0.13  -0.22   0.04    -0.01   0.01   0.06     0.00   0.00  -0.04
  17   7    -0.02   0.15  -0.00    -0.00  -0.00   0.04    -0.01  -0.01   0.02
  18   6    -0.07   0.06  -0.01    -0.00  -0.00   0.00    -0.00   0.02   0.00
  19   6     0.01   0.01   0.01     0.00   0.01  -0.00     0.01   0.03  -0.00
  20   8     0.01  -0.00  -0.01    -0.00  -0.00   0.00    -0.00  -0.01  -0.00
  21   1     0.07   0.01   0.02    -0.05   0.02   0.36     0.03  -0.02  -0.30
  22   1    -0.07  -0.05   0.00    -0.04   0.02   0.34     0.04  -0.01  -0.32
  23   1     0.03   0.06   0.00    -0.03   0.01   0.21     0.02  -0.01  -0.20
  24   1    -0.12   0.01  -0.00    -0.03   0.01   0.27     0.02  -0.01  -0.17
  25   1     0.02   0.13  -0.01     0.03  -0.03  -0.27     0.02  -0.02  -0.24
  26   1    -0.02  -0.12   0.01     0.03  -0.01  -0.27     0.03  -0.02  -0.28
  27   1     0.06   0.04  -0.01     0.03  -0.03  -0.36     0.04  -0.03  -0.42
  28   1     0.00   0.04  -0.02    -0.01  -0.00   0.06    -0.01  -0.00   0.06
  29   1    -0.08  -0.03  -0.06    -0.00  -0.01  -0.02    -0.01  -0.03  -0.06
  30   1     0.01  -0.05   0.06    -0.00  -0.01   0.02    -0.01  -0.03   0.06
  31   1    -0.00  -0.03  -0.05     0.00  -0.01  -0.02    -0.00  -0.03  -0.06
  32   1     0.01  -0.03   0.05     0.00  -0.00   0.01     0.00  -0.03   0.05
  33   1     0.01  -0.01   0.00     0.00  -0.00  -0.00     0.01  -0.01   0.00
                     37                     38                     39
                        a                      a                      a 
 Frequencies --   815.3475               867.5942               879.6984
 Red. masses --     2.9964                11.4751                 3.9811
 Frc consts  --     0.0000                 0.0000                 0.0000
 IR Inten    --    12.0165                 4.4165                 0.0397
 Raman Activ --     0.0000                 0.0000                 0.0000
 Depolar     --     0.0000                 0.0000                 0.0000
 Atom AN      X      Y      Z        X      Y      Z        X      Y      Z
   1   6     0.05  -0.00   0.02     0.32   0.03   0.04    -0.01   0.00   0.02
   2   6    -0.01  -0.03   0.01    -0.12  -0.20  -0.00     0.01   0.01  -0.03
   3   6    -0.02   0.07   0.00    -0.14   0.25  -0.03     0.01  -0.00  -0.03
   4   6    -0.01   0.03  -0.01     0.07   0.08   0.00    -0.00  -0.00  -0.01
   5   6     0.00   0.00  -0.03    -0.08  -0.10  -0.00     0.00   0.00   0.02
   6   6     0.02   0.01   0.01     0.06   0.12   0.00    -0.00  -0.00   0.04
   7   6    -0.02  -0.05   0.05    -0.32  -0.29  -0.02     0.01  -0.00  -0.08
   8   8     0.05  -0.05  -0.00     0.19  -0.06   0.02    -0.00  -0.00   0.02
   9   6    -0.07   0.04  -0.04    -0.35   0.07  -0.04    -0.01   0.01   0.11
  10   6     0.00   0.02   0.03     0.09  -0.08   0.01     0.03  -0.02  -0.38
  11   6     0.00  -0.08   0.04     0.17   0.26  -0.01     0.00  -0.01  -0.05
  12   6     0.03  -0.02   0.03     0.02   0.10   0.00    -0.02   0.02   0.31
  13   6    -0.05   0.06  -0.02    -0.07  -0.03  -0.02     0.00  -0.00  -0.06
  14   6    -0.09   0.03  -0.02    -0.17   0.16  -0.03    -0.01  -0.00   0.02
  15   6    -0.02  -0.03   0.02     0.11   0.01   0.01    -0.01  -0.01   0.01
  16   8     0.02  -0.03   0.00     0.00  -0.07   0.00     0.00   0.00  -0.00
  17   7     0.06   0.12  -0.01    -0.02  -0.22   0.01     0.01   0.01   0.01
  18   6     0.03  -0.22   0.00     0.16  -0.03   0.03     0.01  -0.02   0.01
  19   6    -0.04  -0.20  -0.02     0.00   0.04  -0.02    -0.00  -0.01  -0.01
  20   8     0.00   0.05   0.02    -0.02  -0.01   0.02    -0.00   0.00   0.00
  21   1     0.02   0.01  -0.03     0.09   0.08   0.01     0.00  -0.00  -0.03
  22   1     0.01  -0.01  -0.03    -0.04  -0.05  -0.00    -0.00   0.00   0.05
  23   1     0.01   0.03  -0.02     0.01   0.10  -0.00    -0.01   0.00   0.07
  24   1     0.00  -0.00  -0.01     0.01   0.03  -0.00     0.01  -0.00  -0.07
  25   1     0.04   0.02  -0.07     0.06   0.00   0.01    -0.06   0.05   0.64
  26   1     0.01  -0.03  -0.07    -0.00   0.10   0.00    -0.02   0.01   0.15
  27   1     0.01   0.01  -0.06     0.01  -0.03  -0.00     0.05  -0.04  -0.52
  28   1     0.02   0.03  -0.02     0.02  -0.07   0.02    -0.00   0.00   0.02
  29   1     0.05   0.16   0.40     0.12  -0.01  -0.04     0.00   0.00   0.02
  30   1     0.02   0.21  -0.37    -0.00  -0.00   0.03    -0.01   0.01  -0.01
  31   1     0.07   0.18   0.41    -0.02  -0.02  -0.06     0.01   0.01   0.01
  32   1    -0.02   0.25  -0.38    -0.00  -0.03   0.06    -0.00   0.02  -0.02
  33   1    -0.08   0.09  -0.03     0.00  -0.01   0.01    -0.00   0.01  -0.00
                     40                     41                     42
                        a                      a                      a 
 Frequencies --   894.2285               904.2823               921.3397
 Red. masses --     3.5968                11.1087                 3.5794
 Frc consts  --     0.0000                 0.0000                 0.0000
 IR Inten    --     0.0123                 6.6780                 0.0709
 Raman Activ --     0.0000                 0.0000                 0.0000
 Depolar     --     0.0000                 0.0000                 0.0000
 Atom AN      X      Y      Z        X      Y      Z        X      Y      Z
   1   6    -0.02   0.01   0.16     0.11   0.01   0.01     0.00  -0.00  -0.01
   2   6     0.02  -0.01  -0.15    -0.16  -0.21  -0.01     0.00   0.00   0.00
   3   6     0.03  -0.02  -0.29    -0.07  -0.10  -0.00     0.00   0.00  -0.00
   4   6    -0.01   0.00   0.07     0.18  -0.02   0.02    -0.00   0.00   0.00
   5   6     0.01  -0.00  -0.07    -0.06  -0.04  -0.01     0.00  -0.00  -0.00
   6   6    -0.03   0.01   0.28    -0.14   0.18  -0.02     0.00  -0.00   0.01
   7   6    -0.01   0.00   0.06    -0.05   0.03  -0.01    -0.00  -0.00  -0.00
   8   8     0.00   0.00  -0.01    -0.07   0.07  -0.01     0.00  -0.00   0.00
   9   6     0.00  -0.00  -0.03     0.10  -0.09   0.02    -0.00   0.00  -0.03
  10   6    -0.00   0.00   0.05     0.11  -0.15   0.01     0.02  -0.01  -0.20
  11   6     0.00   0.00   0.00     0.05   0.02   0.02    -0.04   0.03   0.40
  12   6     0.00  -0.00  -0.03    -0.41  -0.17  -0.03     0.03  -0.00  -0.14
  13   6    -0.00   0.00   0.01    -0.00  -0.04   0.01     0.01  -0.01  -0.07
  14   6    -0.00   0.00   0.01     0.32   0.11   0.02    -0.02   0.00   0.07
  15   6     0.01  -0.00  -0.05     0.43   0.25   0.04    -0.01  -0.01  -0.01
  16   8    -0.00   0.00   0.01    -0.14  -0.02  -0.02     0.00   0.00  -0.00
  17   7    -0.00  -0.00  -0.00     0.03   0.17  -0.01    -0.01  -0.01   0.00
  18   6    -0.00   0.00  -0.00    -0.13   0.05  -0.03     0.00   0.01  -0.01
  19   6    -0.00   0.00   0.00    -0.01  -0.05   0.02    -0.00   0.00   0.00
  20   8     0.00  -0.00  -0.00     0.01   0.01  -0.01     0.00  -0.00  -0.00
  21   1     0.03  -0.01  -0.26     0.03   0.01   0.00    -0.00   0.00   0.01
  22   1    -0.03   0.01   0.26    -0.11  -0.02  -0.01     0.00   0.00  -0.01
  23   1    -0.07   0.03   0.56    -0.05  -0.05  -0.00     0.00   0.00   0.01
  24   1     0.06  -0.03  -0.54    -0.07   0.03  -0.01     0.00  -0.00  -0.01
  25   1     0.01  -0.01  -0.09    -0.01  -0.06   0.03    -0.04   0.03   0.37
  26   1     0.00  -0.00  -0.01     0.11  -0.05  -0.01     0.07  -0.05  -0.73
  27   1    -0.01   0.00   0.06    -0.11  -0.13  -0.01    -0.02   0.03   0.28
  28   1     0.00  -0.00  -0.00     0.02   0.04  -0.01    -0.00  -0.00   0.02
  29   1    -0.00  -0.00  -0.00    -0.12   0.00   0.02     0.00   0.00  -0.01
  30   1     0.00  -0.00   0.00     0.02  -0.01  -0.02     0.01  -0.00   0.00
  31   1    -0.00  -0.00  -0.00     0.02   0.02   0.05    -0.01  -0.00  -0.00
  32   1     0.00  -0.00   0.00    -0.00   0.03  -0.05     0.00  -0.01   0.01
  33   1     0.00  -0.00   0.00    -0.01   0.01  -0.00     0.00  -0.00   0.00
                     43                     44                     45
                        a                      a                      a 
 Frequencies --   928.3443               930.5269               991.0429
 Red. masses --     4.1034                 3.5296                 9.4822
 Frc consts  --     0.0000                 0.0000                 0.0000
 IR Inten    --     0.0525                 0.0228                20.5539
 Raman Activ --     0.0000                 0.0000                 0.0000
 Depolar     --     0.0000                 0.0000                 0.0000
 Atom AN      X      Y      Z        X      Y      Z        X      Y      Z
   1   6    -0.03   0.01   0.28    -0.03   0.01   0.25     0.02   0.00   0.00
   2   6    -0.02   0.01   0.15     0.04  -0.02  -0.34     0.01   0.01   0.00
   3   6     0.03  -0.01  -0.26    -0.02   0.01   0.19    -0.00   0.02  -0.00
   4   6    -0.01   0.00   0.07    -0.01   0.00   0.04    -0.01   0.00   0.00
   5   6    -0.01   0.00   0.05     0.01  -0.00  -0.07    -0.01  -0.02   0.00
   6   6     0.04  -0.02  -0.32     0.01  -0.00  -0.06     0.02  -0.01   0.00
   7   6     0.00  -0.00  -0.03    -0.00   0.00   0.01    -0.05  -0.02  -0.00
   8   8    -0.00   0.00   0.01     0.00  -0.00  -0.00     0.01   0.01   0.00
   9   6    -0.00   0.00   0.01     0.00  -0.00  -0.01    -0.00  -0.00  -0.00
  10   6     0.00  -0.00  -0.00    -0.00   0.00  -0.00     0.01   0.02  -0.00
  11   6    -0.00   0.00   0.00    -0.00   0.00   0.01     0.01  -0.01  -0.00
  12   6    -0.00  -0.00  -0.00     0.00   0.00  -0.00    -0.02  -0.01   0.01
  13   6     0.00  -0.00  -0.00     0.00  -0.00  -0.00     0.02   0.00   0.01
  14   6    -0.00   0.00   0.01    -0.00   0.00   0.00     0.01  -0.02  -0.01
  15   6     0.00  -0.00  -0.03    -0.00  -0.00   0.00    -0.03  -0.02  -0.00
  16   8    -0.00   0.00   0.00     0.00  -0.00   0.00     0.00   0.01  -0.00
  17   7    -0.00  -0.00   0.00    -0.00  -0.00   0.00     0.07   0.04   0.06
  18   6    -0.00   0.00   0.00     0.00   0.00  -0.00    -0.00  -0.08  -0.57
  19   6    -0.00  -0.00  -0.00     0.00   0.00  -0.00     0.12   0.04   0.55
  20   8     0.00  -0.00  -0.00     0.00  -0.00   0.00    -0.25   0.07  -0.02
  21   1     0.05  -0.02  -0.46     0.05  -0.02  -0.46     0.01   0.01   0.00
  22   1     0.03  -0.01  -0.23    -0.07   0.03   0.61     0.01   0.00   0.00
  23   1    -0.05   0.02   0.40     0.04  -0.02  -0.38     0.00   0.01   0.00
  24   1    -0.06   0.03   0.53    -0.02   0.01   0.18     0.01   0.00   0.00
  25   1    -0.00   0.00   0.01    -0.00   0.00   0.00     0.02   0.01   0.00
  26   1     0.00  -0.00  -0.00     0.00  -0.00  -0.01     0.03  -0.01   0.01
  27   1    -0.00   0.00   0.00    -0.00   0.00   0.01    -0.01   0.02  -0.02
  28   1    -0.00  -0.00   0.00     0.00  -0.00  -0.00     0.01   0.02   0.01
  29   1    -0.00   0.00  -0.00     0.00   0.00  -0.00     0.03   0.04  -0.05
  30   1     0.00  -0.00   0.00     0.00  -0.00   0.00     0.00   0.04  -0.24
  31   1     0.00   0.00   0.00    -0.00  -0.00  -0.00    -0.13  -0.04   0.10
  32   1    -0.00   0.00  -0.00     0.00  -0.00   0.00     0.16  -0.08   0.15
  33   1    -0.00   0.00   0.00     0.00  -0.00   0.00     0.27  -0.16  -0.07
                     46                     47                     48
                        a                      a                      a 
 Frequencies --  1015.9830              1046.7213              1081.9326
 Red. masses --    10.7268                 7.2146                10.6405
 Frc consts  --     0.0000                 0.0000                 0.0000
 IR Inten    --    84.6168               108.5486               136.5936
 Raman Activ --     0.0000                 0.0000                 0.0000
 Depolar     --     0.0000                 0.0000                 0.0000
 Atom AN      X      Y      Z        X      Y      Z        X      Y      Z
   1   6     0.18   0.03   0.02     0.03   0.00   0.00    -0.07   0.01  -0.01
   2   6     0.04   0.07   0.00     0.00   0.01   0.00    -0.02  -0.06   0.00
   3   6    -0.06   0.18  -0.02    -0.01   0.02  -0.00     0.04  -0.03   0.01
   4   6    -0.08  -0.01  -0.01    -0.00  -0.00  -0.00     0.01   0.01   0.00
   5   6    -0.10  -0.21  -0.00    -0.02  -0.03  -0.00     0.02   0.01   0.00
   6   6     0.12  -0.09   0.02     0.01  -0.01   0.00    -0.01   0.04  -0.00
   7   6    -0.40  -0.17  -0.04    -0.05  -0.02  -0.00     0.02   0.00   0.00
   8   8     0.01   0.14  -0.01    -0.00   0.02  -0.00     0.00  -0.01   0.00
   9   6     0.09  -0.09   0.02     0.03  -0.02   0.00    -0.03   0.01  -0.00
  10   6    -0.06   0.27  -0.03     0.01   0.03  -0.00    -0.04   0.00  -0.00
  11   6     0.09   0.03   0.01     0.01  -0.05   0.01     0.02   0.06  -0.00
  12   6    -0.03  -0.07   0.00    -0.07  -0.03  -0.01     0.09   0.02   0.00
  13   6     0.22  -0.08   0.04     0.03   0.06  -0.00    -0.02  -0.09   0.01
  14   6     0.21  -0.27   0.04     0.03  -0.05   0.01    -0.03   0.01  -0.01
  15   6    -0.23  -0.09  -0.02    -0.02   0.00  -0.00     0.02   0.01   0.00
  16   8     0.03   0.08  -0.00     0.01   0.01  -0.00    -0.01  -0.00  -0.00
  17   7     0.16   0.11   0.00     0.03   0.12  -0.01     0.01  -0.08   0.03
  18   6    -0.29   0.12  -0.00    -0.07  -0.26   0.31    -0.06   0.18   0.02
  19   6    -0.04  -0.06  -0.01     0.28   0.23  -0.33     0.61  -0.25  -0.02
  20   8     0.07  -0.00  -0.02    -0.28   0.02   0.05    -0.49   0.11  -0.06
  21   1     0.05   0.05   0.00     0.01   0.01   0.00    -0.02   0.02  -0.00
  22   1     0.02   0.02   0.00     0.00   0.00   0.00     0.01  -0.03   0.00
  23   1     0.01   0.07  -0.00    -0.00   0.01  -0.00     0.06   0.02   0.01
  24   1     0.10   0.01   0.01     0.01   0.00   0.00     0.05   0.04   0.00
  25   1    -0.02   0.08  -0.01     0.02   0.02   0.00    -0.05  -0.02  -0.00
  26   1     0.21  -0.08   0.03     0.07  -0.05   0.01    -0.06   0.05  -0.01
  27   1    -0.01  -0.01   0.00    -0.02  -0.02   0.01     0.03  -0.02   0.01
  28   1     0.02   0.04  -0.00    -0.08   0.08  -0.02     0.08  -0.07   0.02
  29   1    -0.18  -0.01  -0.02     0.06   0.05   0.26    -0.19  -0.02  -0.03
  30   1    -0.03  -0.03   0.05    -0.12   0.10  -0.07     0.04  -0.07   0.14
  31   1     0.06   0.01   0.03    -0.20  -0.05  -0.20     0.23   0.00   0.06
  32   1    -0.04   0.04  -0.05     0.34  -0.17  -0.01     0.06   0.05  -0.10
  33   1    -0.05   0.04   0.01     0.28  -0.19  -0.05    -0.22   0.09   0.00
                     49                     50                     51
                        a                      a                      a 
 Frequencies --  1085.2899              1092.3774              1112.3990
 Red. masses --     6.1717                 9.0686                 6.1159
 Frc consts  --     0.0000                 0.0000                 0.0000
 IR Inten    --     3.4953                 6.8154                20.1958
 Raman Activ --     0.0000                 0.0000                 0.0000
 Depolar     --     0.0000                 0.0000                 0.0000
 Atom AN      X      Y      Z        X      Y      Z        X      Y      Z
   1   6    -0.35   0.09  -0.05    -0.14   0.09  -0.02    -0.01   0.06  -0.00
   2   6    -0.09  -0.40   0.01    -0.02   0.07  -0.01    -0.06   0.02  -0.01
   3   6     0.19  -0.05   0.03     0.18  -0.23   0.03     0.11  -0.15   0.02
   4   6     0.05   0.04   0.00    -0.32   0.16  -0.05    -0.02   0.10  -0.01
   5   6     0.05  -0.09   0.01    -0.02   0.29  -0.02    -0.04   0.13  -0.01
   6   6    -0.01   0.28  -0.01     0.17  -0.24   0.03     0.04  -0.14   0.01
   7   6    -0.03  -0.01  -0.00    -0.07  -0.10  -0.00    -0.08  -0.06  -0.01
   8   8    -0.01   0.04  -0.00     0.08  -0.12   0.01     0.00  -0.00   0.00
   9   6     0.02  -0.02   0.00    -0.22   0.06  -0.03     0.05  -0.10   0.01
  10   6    -0.04   0.05  -0.01     0.13  -0.11   0.02    -0.31   0.17  -0.04
  11   6     0.02   0.00   0.00    -0.00   0.01  -0.00     0.17   0.13   0.01
  12   6     0.04  -0.00   0.00    -0.21  -0.01  -0.02     0.26  -0.07   0.03
  13   6    -0.01  -0.00  -0.00     0.15  -0.01   0.02    -0.15  -0.01  -0.02
  14   6    -0.02  -0.08   0.00     0.10   0.19  -0.00     0.02  -0.09   0.01
  15   6    -0.04  -0.00  -0.01     0.04  -0.03   0.01     0.15   0.09   0.01
  16   8    -0.01   0.02  -0.00     0.08  -0.14   0.02    -0.01   0.01  -0.00
  17   7     0.01   0.02  -0.00     0.12   0.01   0.01    -0.14  -0.02  -0.02
  18   6    -0.00  -0.02  -0.00    -0.14   0.01   0.00     0.11   0.02   0.01
  19   6    -0.10   0.04   0.00    -0.01   0.00  -0.01    -0.06   0.01  -0.01
  20   8     0.08  -0.02   0.01     0.02  -0.00  -0.01     0.01   0.01   0.02
  21   1    -0.11   0.15  -0.02    -0.04   0.29  -0.02    -0.00   0.22  -0.01
  22   1     0.13  -0.21   0.03    -0.17   0.10  -0.02    -0.20   0.10  -0.03
  23   1     0.39   0.19   0.04     0.28   0.08   0.03     0.10   0.00   0.01
  24   1     0.39   0.31   0.03    -0.03  -0.11   0.00    -0.12  -0.12  -0.01
  25   1    -0.03   0.00  -0.00     0.21   0.08   0.02    -0.42  -0.17  -0.03
  26   1     0.03  -0.01   0.00     0.01  -0.01   0.00     0.15  -0.01   0.02
  27   1     0.01  -0.01   0.00    -0.06   0.07  -0.01     0.09  -0.33   0.03
  28   1    -0.01   0.01  -0.00     0.02   0.01   0.01     0.02  -0.04  -0.00
  29   1     0.02   0.00   0.01    -0.05  -0.01  -0.01    -0.00   0.02   0.04
  30   1    -0.00   0.01  -0.02    -0.05   0.00   0.02     0.15  -0.02  -0.05
  31   1    -0.04   0.00  -0.01     0.01  -0.00  -0.01    -0.06   0.01   0.02
  32   1    -0.00  -0.01   0.01     0.00  -0.00  -0.00     0.05  -0.01  -0.04
  33   1     0.04  -0.02  -0.00    -0.00   0.00   0.00     0.10  -0.05  -0.01
                     52                     53                     54
                        a                      a                      a 
 Frequencies --  1120.4289              1167.0175              1169.9973
 Red. masses --     5.6631                 6.7629                 2.4540
 Frc consts  --     0.0000                 0.0000                 0.0000
 IR Inten    --    94.5376                 7.8732                 0.8255
 Raman Activ --     0.0000                 0.0000                 0.0000
 Depolar     --     0.0000                 0.0000                 0.0000
 Atom AN      X      Y      Z        X      Y      Z        X      Y      Z
   1   6     0.02   0.02   0.00    -0.08  -0.03  -0.01    -0.01   0.10  -0.01
   2   6    -0.01   0.00  -0.00     0.05  -0.00   0.01     0.00  -0.10   0.01
   3   6     0.03  -0.01   0.00    -0.05  -0.04  -0.00     0.10  -0.03   0.01
   4   6    -0.03   0.02  -0.00    -0.06  -0.03  -0.01     0.19  -0.04   0.02
   5   6    -0.05  -0.02  -0.00     0.12   0.17   0.01    -0.06  -0.01  -0.01
   6   6     0.03  -0.05   0.01     0.03   0.10  -0.00    -0.06   0.03  -0.01
   7   6    -0.09  -0.03  -0.01     0.07   0.01   0.01    -0.03  -0.01  -0.00
   8   8    -0.01   0.03  -0.00     0.04  -0.07   0.01    -0.01   0.02  -0.00
   9   6     0.10  -0.08   0.02    -0.25   0.02  -0.03     0.07   0.00   0.01
  10   6     0.01   0.05  -0.00    -0.14  -0.02  -0.01     0.04   0.03   0.00
  11   6    -0.01  -0.11   0.01     0.13   0.11   0.00    -0.03  -0.03  -0.00
  12   6    -0.13  -0.04  -0.01     0.06  -0.09   0.01     0.03   0.04  -0.00
  13   6     0.02   0.26  -0.02     0.08  -0.04   0.01    -0.04  -0.05  -0.00
  14   6     0.07  -0.06   0.01    -0.07   0.14  -0.02    -0.09  -0.13  -0.00
  15   6    -0.02   0.01  -0.00     0.01   0.00   0.00    -0.02   0.01  -0.00
  16   8     0.03  -0.00   0.00     0.00  -0.04   0.00    -0.03   0.05  -0.01
  17   7    -0.26   0.07   0.01     0.35   0.10   0.04     0.05   0.02   0.01
  18   6     0.33  -0.16  -0.07    -0.27  -0.17  -0.07    -0.03  -0.02  -0.01
  19   6     0.19  -0.00   0.06     0.03   0.08   0.03     0.01   0.01   0.00
  20   8    -0.08  -0.01  -0.03     0.04  -0.03  -0.03     0.01  -0.01  -0.00
  21   1     0.00   0.08  -0.00    -0.02  -0.11   0.00    -0.01   0.68  -0.04
  22   1    -0.04   0.02  -0.01     0.24  -0.13   0.04     0.33  -0.21   0.05
  23   1     0.05   0.03   0.00    -0.16  -0.10  -0.01    -0.18  -0.14  -0.01
  24   1     0.02  -0.01   0.00    -0.01   0.02  -0.00    -0.35  -0.19  -0.03
  25   1     0.01   0.02  -0.00    -0.28  -0.16  -0.02     0.09   0.06   0.00
  26   1     0.22  -0.15   0.03     0.17  -0.03   0.02    -0.07   0.02  -0.01
  27   1    -0.04  -0.04   0.01     0.02  -0.16   0.03     0.00   0.12  -0.01
  28   1    -0.31   0.16  -0.04     0.07   0.05   0.01     0.02   0.00   0.00
  29   1     0.33   0.02  -0.04     0.10   0.03   0.04     0.01  -0.00  -0.00
  30   1    -0.21   0.07   0.04    -0.35   0.08   0.02    -0.05   0.01   0.01
  31   1     0.17  -0.02  -0.07     0.07  -0.03  -0.10     0.00  -0.00  -0.01
  32   1    -0.21   0.03   0.17    -0.12  -0.00   0.13    -0.01  -0.00   0.02
  33   1    -0.30   0.15   0.05    -0.15   0.08   0.03    -0.02   0.01   0.00
                     55                     56                     57
                        a                      a                      a 
 Frequencies --  1174.6844              1187.5668              1212.3321
 Red. masses --     5.9269                 2.2428                 7.2087
 Frc consts  --     0.0000                 0.0000                 0.0000
 IR Inten    --    13.2333                31.6555                28.4403
 Raman Activ --     0.0000                 0.0000                 0.0000
 Depolar     --     0.0000                 0.0000                 0.0000
 Atom AN      X      Y      Z        X      Y      Z        X      Y      Z
   1   6    -0.04  -0.01  -0.00     0.02  -0.00   0.00    -0.12  -0.04  -0.01
   2   6     0.12   0.04   0.01     0.04   0.03   0.00    -0.06  -0.10  -0.00
   3   6    -0.10  -0.01  -0.01    -0.04   0.01  -0.00     0.08  -0.13   0.02
   4   6    -0.27  -0.05  -0.03    -0.12  -0.01  -0.01     0.24   0.14   0.02
   5   6     0.02   0.13  -0.00    -0.05  -0.01  -0.01     0.17   0.27   0.01
   6   6     0.10   0.06   0.01     0.04  -0.02   0.01    -0.00   0.10  -0.01
   7   6    -0.03  -0.02  -0.00    -0.03  -0.01  -0.00    -0.00  -0.04   0.00
   8   8     0.02  -0.03   0.00    -0.01   0.02  -0.00     0.04  -0.08   0.01
   9   6    -0.12  -0.05  -0.01     0.06   0.01   0.01    -0.29  -0.17  -0.02
  10   6    -0.02  -0.04   0.00    -0.05   0.05  -0.01    -0.17   0.11  -0.02
  11   6     0.02   0.02   0.00    -0.05   0.05  -0.01     0.07   0.08   0.00
  12   6    -0.11  -0.03  -0.01     0.02  -0.07   0.01     0.02   0.10  -0.01
  13   6     0.12   0.12  -0.00    -0.03   0.03  -0.01     0.03  -0.03   0.00
  14   6     0.18   0.19   0.01     0.23  -0.02   0.03     0.01  -0.33   0.02
  15   6    -0.04  -0.04  -0.00    -0.01  -0.02   0.00    -0.01   0.04  -0.00
  16   8     0.06  -0.08   0.01     0.02  -0.01   0.00    -0.04   0.10  -0.01
  17   7    -0.25  -0.10  -0.03     0.01   0.01  -0.00    -0.01  -0.02   0.00
  18   6     0.19   0.16   0.05    -0.03  -0.06  -0.03     0.01   0.04   0.00
  19   6    -0.03  -0.07  -0.02     0.01   0.03   0.02    -0.02  -0.03   0.00
  20   8    -0.03   0.03   0.02     0.00  -0.00  -0.01    -0.00   0.01   0.00
  21   1    -0.01   0.02  -0.00     0.01   0.03  -0.00    -0.03  -0.17   0.00
  22   1     0.47  -0.23   0.07     0.12  -0.05   0.02    -0.13   0.03  -0.02
  23   1    -0.20  -0.11  -0.02    -0.04  -0.01  -0.00    -0.22  -0.19  -0.02
  24   1     0.08   0.05   0.01     0.08   0.03   0.01    -0.03   0.02  -0.00
  25   1    -0.03  -0.03  -0.00     0.23   0.17   0.01     0.39   0.32   0.02
  26   1     0.22  -0.11   0.03    -0.51   0.27  -0.07     0.18  -0.06   0.02
  27   1    -0.03  -0.09  -0.00     0.03  -0.64   0.05     0.01  -0.09   0.01
  28   1    -0.11  -0.00  -0.01    -0.02   0.02  -0.00    -0.08   0.03  -0.02
  29   1    -0.08  -0.01  -0.03     0.07   0.04   0.07     0.00  -0.00  -0.02
  30   1     0.29  -0.07  -0.02    -0.03   0.01  -0.02     0.02  -0.01   0.01
  31   1    -0.05   0.02   0.08     0.04  -0.01  -0.05     0.01   0.01   0.02
  32   1     0.09   0.01  -0.11    -0.05   0.01   0.05     0.01   0.01  -0.03
  33   1     0.13  -0.07  -0.02    -0.04   0.02   0.01     0.04  -0.02  -0.01
                     58                     59                     60
                        a                      a                      a 
 Frequencies --  1232.7107              1241.1641              1260.9415
 Red. masses --     4.3499                 3.2652                 7.1389
 Frc consts  --     0.0000                 0.0000                 0.0000
 IR Inten    --     4.0532                 9.4562               134.8270
 Raman Activ --     0.0000                 0.0000                 0.0000
 Depolar     --     0.0000                 0.0000                 0.0000
 Atom AN      X      Y      Z        X      Y      Z        X      Y      Z
   1   6     0.06  -0.08   0.01     0.03  -0.03   0.00     0.01   0.06  -0.00
   2   6     0.07  -0.06   0.01     0.02  -0.03   0.00     0.01   0.10  -0.00
   3   6     0.06  -0.08   0.01     0.03   0.00   0.00    -0.13  -0.06  -0.01
   4   6    -0.08   0.27  -0.02     0.03   0.07  -0.00    -0.30  -0.07  -0.03
   5   6    -0.27   0.13  -0.04    -0.10  -0.01  -0.01     0.03   0.04   0.00
   6   6     0.04  -0.14   0.01    -0.02  -0.04   0.00     0.09  -0.03   0.01
   7   6    -0.06  -0.03  -0.00     0.03   0.02   0.00    -0.10  -0.05  -0.01
   8   8     0.00  -0.02   0.00    -0.00  -0.00  -0.00    -0.01   0.02  -0.00
   9   6     0.13   0.03   0.01     0.04   0.02   0.00     0.11  -0.08   0.02
  10   6     0.05   0.02   0.00     0.03  -0.00   0.00    -0.09   0.04  -0.01
  11   6     0.01  -0.03   0.00    -0.02  -0.03   0.00     0.04  -0.04   0.01
  12   6     0.04   0.01   0.00    -0.02  -0.03  -0.00     0.08   0.14  -0.00
  13   6    -0.13  -0.07  -0.01     0.02   0.08  -0.01    -0.34  -0.01  -0.03
  14   6    -0.03  -0.03  -0.00    -0.05   0.04  -0.01     0.08  -0.19   0.02
  15   6     0.10   0.04   0.01    -0.03  -0.02  -0.00     0.37   0.12   0.04
  16   8     0.02  -0.03   0.00     0.01  -0.01   0.00    -0.05   0.06  -0.01
  17   7    -0.02   0.03   0.00     0.10   0.05  -0.00    -0.06   0.07  -0.01
  18   6     0.01  -0.07  -0.02    -0.05   0.13   0.07    -0.04  -0.09   0.03
  19   6     0.04   0.08  -0.00    -0.12  -0.30  -0.00     0.00  -0.02   0.02
  20   8     0.02  -0.04  -0.01    -0.05   0.11   0.03    -0.01  -0.01  -0.01
  21   1     0.02   0.14  -0.01     0.01   0.09  -0.00     0.01  -0.14   0.01
  22   1    -0.08   0.04  -0.01    -0.07   0.03  -0.01     0.24  -0.10   0.03
  23   1    -0.42  -0.29  -0.03    -0.11  -0.07  -0.01     0.12   0.09   0.01
  24   1     0.50   0.24   0.05     0.13   0.06   0.01    -0.01  -0.03  -0.00
  25   1    -0.05  -0.04  -0.00    -0.06  -0.05  -0.00     0.16   0.13   0.01
  26   1    -0.07   0.03  -0.01    -0.04   0.01  -0.01     0.07  -0.04   0.01
  27   1     0.00   0.20  -0.02    -0.00  -0.09   0.02     0.01   0.18  -0.01
  28   1     0.08  -0.05   0.01    -0.03   0.05   0.00     0.37  -0.20   0.05
  29   1    -0.08   0.00   0.07     0.43  -0.04  -0.35     0.22  -0.02  -0.10
  30   1     0.02   0.01  -0.06    -0.32   0.02   0.26    -0.11   0.02   0.02
  31   1    -0.03  -0.01  -0.04     0.06   0.03   0.16     0.01  -0.01   0.00
  32   1    -0.04  -0.01   0.09     0.17   0.04  -0.31     0.05  -0.01  -0.04
  33   1    -0.09   0.05   0.01     0.28  -0.14  -0.05    -0.02   0.01   0.00
                     61                     62                     63
                        a                      a                      a 
 Frequencies --  1265.9563              1273.8683              1282.3480
 Red. masses --     5.1313                 5.1611                 7.8798
 Frc consts  --     0.0000                 0.0000                 0.0000
 IR Inten    --     5.7878                79.8433              1034.5525
 Raman Activ --     0.0000                 0.0000                 0.0000
 Depolar     --     0.0000                 0.0000                 0.0000
 Atom AN      X      Y      Z        X      Y      Z        X      Y      Z
   1   6     0.06  -0.04   0.01     0.09  -0.03   0.01     0.11  -0.00   0.01
   2   6     0.03  -0.01   0.00     0.04   0.03   0.00     0.05   0.08   0.00
   3   6     0.03   0.08  -0.00    -0.02   0.08  -0.01    -0.10   0.04  -0.01
   4   6     0.07  -0.01   0.01    -0.04  -0.05  -0.00    -0.19  -0.07  -0.02
   5   6    -0.13  -0.16  -0.01    -0.16  -0.20  -0.01    -0.16  -0.18  -0.01
   6   6    -0.08  -0.04  -0.01    -0.08  -0.07  -0.01    -0.04  -0.10   0.00
   7   6     0.22   0.14   0.02     0.30   0.18   0.02     0.29   0.16   0.02
   8   8    -0.03   0.01  -0.00    -0.04   0.01  -0.00    -0.02  -0.00  -0.00
   9   6    -0.10  -0.11  -0.00    -0.16  -0.10  -0.01    -0.21   0.05  -0.03
  10   6    -0.03  -0.05   0.00    -0.11  -0.04  -0.01    -0.15  -0.03  -0.01
  11   6    -0.09   0.03  -0.01    -0.02   0.06  -0.01     0.13   0.05   0.01
  12   6    -0.01   0.07  -0.01     0.03   0.07  -0.00     0.04   0.04  -0.00
  13   6    -0.01   0.20  -0.02    -0.02   0.07  -0.00     0.05  -0.26   0.02
  14   6     0.05   0.14   0.00     0.04   0.05  -0.00    -0.11  -0.21  -0.00
  15   6    -0.10  -0.14  -0.00     0.02  -0.04   0.00     0.23   0.23   0.02
  16   8    -0.01   0.05  -0.00    -0.01   0.02  -0.00    -0.00  -0.06   0.00
  17   7     0.01  -0.08  -0.04     0.01  -0.05   0.04     0.05   0.06   0.01
  18   6    -0.23  -0.10   0.13     0.10   0.06  -0.14     0.05  -0.00   0.00
  19   6    -0.03   0.02   0.09     0.07   0.05  -0.07    -0.06  -0.08  -0.02
  20   8    -0.04   0.06  -0.03     0.06  -0.13   0.01    -0.03   0.12   0.03
  21   1     0.01   0.17  -0.01     0.02   0.18  -0.01     0.03   0.11  -0.00
  22   1    -0.10   0.06  -0.01    -0.04   0.04  -0.01     0.07  -0.01   0.01
  23   1    -0.02   0.01  -0.00     0.03   0.05   0.00     0.08   0.08   0.01
  24   1     0.07   0.04   0.01     0.10   0.04   0.01     0.11   0.04   0.01
  25   1     0.10   0.06   0.01     0.13   0.09   0.01     0.06   0.06   0.00
  26   1     0.25  -0.13   0.03     0.20  -0.09   0.03     0.02   0.02  -0.00
  27   1     0.00  -0.15   0.01     0.02  -0.15   0.01     0.01   0.07   0.00
  28   1     0.30  -0.19   0.04     0.12  -0.07   0.04    -0.32   0.19  -0.06
  29   1     0.19   0.00  -0.05    -0.14   0.03   0.08    -0.10  -0.01   0.05
  30   1     0.27  -0.01  -0.22    -0.25  -0.02   0.22     0.01   0.02  -0.03
  31   1     0.34  -0.06  -0.23    -0.46   0.06   0.25     0.25  -0.02  -0.10
  32   1    -0.03   0.02   0.02     0.09  -0.03  -0.01    -0.18   0.04   0.04
  33   1     0.03  -0.01  -0.01    -0.17   0.08   0.03     0.21  -0.10  -0.03
                     64                     65                     66
                        a                      a                      a 
 Frequencies --  1302.8040              1338.1239              1338.7372
 Red. masses --     3.8482                 6.3260                 9.2723
 Frc consts  --     0.0000                 0.0000                 0.0000
 IR Inten    --    73.2618                64.6049                 1.2886
 Raman Activ --     0.0000                 0.0000                 0.0000
 Depolar     --     0.0000                 0.0000                 0.0000
 Atom AN      X      Y      Z        X      Y      Z        X      Y      Z
   1   6     0.02   0.00   0.00     0.01   0.24  -0.01    -0.00  -0.33   0.02
   2   6     0.01   0.02   0.00     0.21  -0.11   0.03    -0.30   0.16  -0.04
   3   6    -0.03   0.00  -0.00    -0.22  -0.11  -0.02     0.29   0.14   0.03
   4   6    -0.04  -0.01  -0.01     0.00   0.22  -0.01    -0.03  -0.30   0.01
   5   6    -0.03  -0.04  -0.00     0.19  -0.11   0.03    -0.28   0.15  -0.04
   6   6    -0.01  -0.02  -0.00    -0.20  -0.14  -0.02     0.28   0.18   0.02
   7   6     0.08   0.04   0.01    -0.00   0.00  -0.00     0.01   0.00   0.00
   8   8     0.00  -0.01   0.00     0.01   0.01   0.00    -0.01  -0.02   0.00
   9   6    -0.09   0.05  -0.01    -0.01   0.05  -0.00     0.02  -0.04   0.01
  10   6    -0.04   0.01  -0.00    -0.02  -0.02  -0.00     0.04   0.03   0.00
  11   6     0.07   0.01   0.01     0.02  -0.02   0.00    -0.04   0.01  -0.00
  12   6    -0.01  -0.04   0.00    -0.01   0.02  -0.00     0.00  -0.03   0.00
  13   6     0.08  -0.11   0.01     0.01  -0.02  -0.00     0.06   0.04  -0.00
  14   6    -0.07  -0.10   0.00     0.01  -0.02   0.00    -0.11  -0.05  -0.01
  15   6     0.06   0.10   0.00    -0.02   0.02  -0.00     0.09   0.05   0.01
  16   8     0.00  -0.04   0.00     0.02  -0.02   0.01    -0.03   0.01  -0.00
  17   7     0.03   0.04  -0.03     0.02   0.01  -0.01     0.03  -0.02  -0.01
  18   6    -0.16   0.07   0.13    -0.22   0.03   0.09    -0.17   0.03   0.06
  19   6    -0.00   0.15   0.18     0.24  -0.06  -0.15     0.17  -0.04  -0.11
  20   8     0.04  -0.19  -0.11     0.02   0.02   0.05     0.01   0.02   0.04
  21   1     0.01   0.02  -0.00     0.00   0.00   0.00    -0.00  -0.01   0.00
  22   1     0.02  -0.00   0.00    -0.00   0.00  -0.00     0.02  -0.01   0.00
  23   1     0.02   0.02   0.00    -0.00   0.01  -0.00     0.01  -0.01   0.00
  24   1     0.02   0.01   0.00     0.01  -0.00   0.00     0.00   0.01  -0.00
  25   1    -0.02  -0.01  -0.00    -0.01  -0.01  -0.00     0.00   0.00  -0.00
  26   1    -0.06   0.05  -0.01    -0.01   0.00   0.00    -0.01   0.00  -0.00
  27   1    -0.00   0.03  -0.01    -0.00  -0.01  -0.01     0.00  -0.02  -0.01
  28   1    -0.22   0.13  -0.05    -0.04   0.02  -0.02    -0.03   0.01  -0.02
  29   1     0.25  -0.03  -0.22     0.24  -0.02  -0.19     0.15  -0.01  -0.13
  30   1     0.26   0.01  -0.18     0.20  -0.00  -0.16     0.15  -0.01  -0.11
  31   1    -0.11  -0.01  -0.00    -0.33   0.04   0.22    -0.23   0.03   0.15
  32   1     0.47  -0.08  -0.16    -0.37   0.06   0.21    -0.26   0.04   0.15
  33   1    -0.40   0.19   0.05     0.08  -0.04   0.01     0.05  -0.03   0.01
                     67                     68                     69
                        a                      a                      a 
 Frequencies --  1354.6740              1381.9233              1417.3835
 Red. masses --    10.9049                10.1673                 9.6704
 Frc consts  --     0.0000                 0.0000                 0.0000
 IR Inten    --     7.8460                58.3946                37.3968
 Raman Activ --     0.0000                 0.0000                 0.0000
 Depolar     --     0.0000                 0.0000                 0.0000
 Atom AN      X      Y      Z        X      Y      Z        X      Y      Z
   1   6     0.03   0.11  -0.00     0.01   0.03  -0.00    -0.13  -0.33   0.00
   2   6     0.03   0.00   0.00     0.03   0.00   0.00     0.35  -0.06   0.04
   3   6    -0.09  -0.09  -0.01    -0.05  -0.02  -0.00    -0.04   0.26  -0.02
   4   6    -0.08   0.08  -0.01     0.00   0.02  -0.00    -0.27  -0.28  -0.02
   5   6     0.02   0.02   0.00     0.00  -0.02   0.00     0.39   0.08   0.04
   6   6    -0.02  -0.08   0.00    -0.03  -0.03  -0.00    -0.19   0.17  -0.03
   7   6    -0.08  -0.03  -0.01     0.13   0.04   0.01    -0.09  -0.09  -0.01
   8   8    -0.00   0.00  -0.00    -0.03   0.02  -0.00     0.01   0.02  -0.00
   9   6     0.19  -0.14   0.03    -0.24  -0.44   0.01    -0.04   0.07  -0.01
  10   6     0.21   0.07   0.02     0.11   0.32  -0.01     0.04   0.02   0.00
  11   6    -0.32   0.02  -0.03     0.06   0.19  -0.01     0.02  -0.04   0.00
  12   6     0.02  -0.00   0.00     0.00  -0.53   0.04    -0.04   0.00  -0.00
  13   6     0.27   0.25   0.01     0.16   0.12   0.01     0.08   0.05   0.00
  14   6    -0.55  -0.10  -0.06    -0.05   0.06  -0.01    -0.02  -0.13   0.01
  15   6     0.29   0.11   0.03     0.07  -0.09   0.01     0.16   0.02   0.02
  16   8    -0.05   0.03  -0.01    -0.04   0.08  -0.01    -0.04   0.06  -0.01
  17   7     0.14  -0.18   0.03    -0.15   0.11  -0.02    -0.05   0.01  -0.00
  18   6    -0.06   0.05  -0.04     0.06  -0.03   0.02     0.01  -0.00  -0.01
  19   6    -0.03   0.01   0.02     0.01  -0.01  -0.01     0.00   0.00  -0.00
  20   8     0.01  -0.01  -0.01    -0.01   0.01   0.01     0.00   0.00   0.00
  21   1     0.01  -0.05   0.00     0.00   0.00   0.00    -0.05   0.30  -0.02
  22   1     0.07  -0.04   0.01     0.02  -0.00   0.00    -0.25   0.18  -0.04
  23   1     0.02   0.01   0.00     0.03   0.02   0.00    -0.11   0.02  -0.01
  24   1     0.04   0.00   0.00     0.01   0.00   0.00     0.01   0.09  -0.00
  25   1     0.04   0.00   0.00    -0.04   0.05  -0.01    -0.04  -0.02  -0.00
  26   1     0.10  -0.09   0.01    -0.21   0.17  -0.03    -0.03   0.01  -0.00
  27   1     0.01  -0.24   0.02    -0.02   0.27  -0.02    -0.01  -0.01  -0.00
  28   1    -0.03  -0.01   0.01     0.12  -0.05   0.02     0.05  -0.03   0.01
  29   1    -0.10   0.03   0.07     0.02  -0.03  -0.04     0.00   0.01   0.01
  30   1     0.03  -0.04   0.03    -0.03   0.03  -0.02     0.00  -0.01   0.01
  31   1     0.01  -0.00  -0.02     0.01   0.00   0.01    -0.00   0.00   0.00
  32   1     0.03  -0.00  -0.02    -0.02  -0.00   0.01    -0.00  -0.00   0.00
  33   1    -0.01   0.01   0.00     0.02  -0.01  -0.00     0.00  -0.00   0.00
                     70                     71                     72
                        a                      a                      a 
 Frequencies --  1432.3846              1457.7902              1466.6814
 Red. masses --     9.9551                 9.6063                 2.1710
 Frc consts  --     0.0000                 0.0000                 0.0000
 IR Inten    --   248.3141                33.6648                 8.3133
 Raman Activ --     0.0000                 0.0000                 0.0000
 Depolar     --     0.0000                 0.0000                 0.0000
 Atom AN      X      Y      Z        X      Y      Z        X      Y      Z
   1   6     0.01  -0.10   0.01     0.21  -0.19   0.03     0.02  -0.01   0.00
   2   6     0.08   0.04   0.01    -0.08   0.28  -0.02    -0.02   0.03  -0.00
   3   6    -0.09   0.02  -0.01    -0.28  -0.20  -0.02    -0.02  -0.02  -0.00
   4   6     0.04  -0.13   0.01     0.35  -0.16   0.05     0.04  -0.01   0.00
   5   6     0.08   0.14   0.00     0.02   0.39  -0.02    -0.00   0.03  -0.00
   6   6    -0.09  -0.00  -0.01    -0.30  -0.15  -0.03    -0.03  -0.02  -0.00
   7   6    -0.10  -0.07  -0.01    -0.04  -0.05  -0.00    -0.00   0.00  -0.00
   8   8    -0.04   0.05  -0.01     0.03  -0.06   0.01     0.01  -0.01   0.00
   9   6     0.34  -0.34   0.06    -0.08   0.07  -0.01    -0.03   0.07  -0.01
  10   6    -0.19  -0.08  -0.01     0.04   0.04   0.00     0.02  -0.01   0.00
  11   6    -0.08   0.22  -0.02     0.06  -0.09   0.01    -0.00  -0.04   0.00
  12   6     0.18  -0.09   0.02    -0.06   0.04  -0.01    -0.02   0.05  -0.01
  13   6    -0.20  -0.21  -0.01     0.00   0.08  -0.01     0.06   0.06   0.00
  14   6    -0.09   0.45  -0.04     0.05  -0.10   0.01    -0.00  -0.06   0.00
  15   6    -0.07   0.02  -0.01    -0.05  -0.05  -0.00    -0.00  -0.01   0.00
  16   8     0.03  -0.10   0.01    -0.05   0.08  -0.01    -0.01   0.02  -0.00
  17   7     0.13   0.02   0.01     0.02  -0.05   0.00    -0.03  -0.02   0.02
  18   6    -0.01   0.01   0.05    -0.02   0.01  -0.03     0.17  -0.02   0.20
  19   6     0.00  -0.00   0.00    -0.00   0.00  -0.00     0.04  -0.01   0.05
  20   8    -0.00   0.00  -0.00     0.00  -0.00  -0.00     0.00  -0.00   0.01
  21   1     0.00   0.09  -0.00     0.06   0.14  -0.00     0.01   0.01   0.00
  22   1    -0.02   0.04  -0.00     0.16  -0.02   0.02     0.02  -0.01   0.00
  23   1     0.05   0.05   0.00     0.24   0.14   0.02     0.02   0.01   0.00
[...]
  27   1    -0.00   0.05   0.00    -0.02   0.10  -0.01     0.07  -0.10   0.02
  28   1    -0.05   0.03  -0.01    -0.29   0.15  -0.02    -0.10   0.09  -0.02
  29   1     0.06   0.07   0.10    -0.12  -0.03  -0.02     0.04  -0.00  -0.02
  30   1     0.05  -0.09   0.10     0.03   0.02  -0.03    -0.01   0.02  -0.02
  31   1    -0.36  -0.31  -0.47     0.02   0.02   0.03     0.00   0.01   0.01
  32   1    -0.21   0.45  -0.43     0.02  -0.03   0.02     0.00  -0.01   0.01
  33   1     0.01  -0.01   0.00     0.01  -0.00  -0.00    -0.00   0.00   0.00
                     76                     77                     78
                        a                      a                      a 
 Frequencies --  1556.5148              1570.6843              1573.8889
 Red. masses --    12.4642                11.7432                11.8742
 Frc consts  --     0.0000                 0.0000                 0.0000
 IR Inten    --   437.0653               379.8703                31.7621
 Raman Activ --     0.0000                 0.0000                 0.0000
 Depolar     --     0.0000                 0.0000                 0.0000
 Atom AN      X      Y      Z        X      Y      Z        X      Y      Z
   1   6     0.08   0.23  -0.00    -0.01  -0.38   0.02    -0.20   0.10  -0.03
   2   6    -0.13  -0.06  -0.01    -0.05   0.19  -0.02     0.45  -0.18   0.06
   3   6     0.20   0.11   0.02    -0.13  -0.21  -0.01    -0.36  -0.03  -0.04
   4   6    -0.07  -0.12  -0.00    -0.01   0.36  -0.02     0.21  -0.18   0.03
   5   6     0.03   0.09  -0.00     0.09  -0.25   0.02    -0.41   0.17  -0.06
   6   6    -0.16  -0.18  -0.01     0.09   0.22  -0.00     0.35   0.08   0.04
   7   6    -0.04   0.01  -0.00    -0.15   0.22  -0.03    -0.09   0.20  -0.02
   8   8     0.03  -0.03   0.00     0.10  -0.15   0.02     0.09  -0.18   0.02
   9   6     0.10   0.23  -0.01     0.06   0.25  -0.01     0.02   0.05  -0.00
  10   6    -0.18  -0.20  -0.00    -0.10  -0.19   0.00    -0.02  -0.03   0.00
  11   6     0.01   0.12  -0.01    -0.15   0.24  -0.03    -0.01   0.01  -0.00
  12   6     0.03  -0.12   0.01     0.10  -0.32   0.04     0.01  -0.00   0.00
  13   6     0.13  -0.08   0.02    -0.04   0.13  -0.02     0.04  -0.04   0.01
  14   6    -0.04   0.03  -0.01     0.07  -0.12   0.02    -0.01  -0.02   0.00
  15   6     0.25  -0.54   0.06     0.03  -0.09   0.01     0.06  -0.12   0.01
  16   8    -0.20   0.38  -0.05    -0.01   0.06  -0.00    -0.07   0.11  -0.01
  17   7    -0.07   0.08  -0.02     0.03  -0.03   0.00    -0.03   0.04  -0.01
  18   6     0.01   0.00   0.00    -0.00   0.01   0.00     0.01  -0.00   0.00
  19   6     0.01  -0.00  -0.00    -0.00  -0.00  -0.00     0.00  -0.00  -0.00
  20   8    -0.00   0.00   0.00    -0.00   0.00   0.00    -0.00   0.00   0.00
  21   1     0.02  -0.06   0.01    -0.01   0.10  -0.01    -0.05  -0.02  -0.01
  22   1     0.02  -0.05   0.00     0.04   0.02   0.00    -0.10   0.07  -0.01
  23   1    -0.04  -0.03  -0.00     0.06   0.01   0.01     0.05   0.09   0.00
  24   1     0.06   0.01   0.01    -0.06   0.01  -0.01    -0.05  -0.06  -0.00
  25   1     0.07   0.02   0.01     0.07   0.01   0.01     0.00  -0.00   0.00
  26   1     0.05   0.01   0.00     0.08   0.01   0.01     0.01  -0.00   0.00
  27   1     0.01   0.02   0.00     0.02   0.08  -0.00     0.00  -0.01   0.00
  28   1    -0.06   0.06  -0.01    -0.03   0.02   0.00    -0.00   0.01  -0.00
  29   1     0.02   0.00  -0.00    -0.01  -0.00  -0.00     0.01   0.00  -0.00
  30   1     0.01  -0.00  -0.00     0.00   0.00  -0.00     0.00   0.00  -0.00
  31   1    -0.00   0.00   0.00     0.00   0.00   0.00    -0.00   0.00   0.00
  32   1    -0.00   0.00   0.00     0.00  -0.00  -0.00    -0.00  -0.00   0.00
  33   1     0.00  -0.00  -0.00     0.00  -0.00  -0.00     0.00  -0.00  -0.00
                     79                     80                     81
                        a                      a                      a 
 Frequencies --  1587.4506              1618.2555              2892.3558
 Red. masses --    11.9562                13.0173                 1.7545
 Frc consts  --     0.0000                 0.0000                 0.0000
 IR Inten    --   551.5629               415.1351                74.1717
 Raman Activ --     0.0000                 0.0000                 0.0000
 Depolar     --     0.0000                 0.0000                 0.0000
 Atom AN      X      Y      Z        X      Y      Z        X      Y      Z
   1   6     0.03   0.27  -0.01    -0.06  -0.05  -0.00     0.00   0.00   0.00
   2   6     0.01  -0.13   0.01     0.10  -0.00   0.01     0.00   0.00  -0.00
   3   6     0.11   0.16   0.00    -0.13  -0.07  -0.01     0.00  -0.00   0.00
   4   6     0.01  -0.29   0.02     0.07   0.06   0.01    -0.00   0.00   0.00
   5   6    -0.03   0.16  -0.01    -0.12   0.05  -0.02     0.00  -0.00   0.00
   6   6    -0.12  -0.17  -0.00     0.14   0.06   0.01     0.00  -0.00  -0.00
   7   6    -0.04   0.07  -0.01     0.34  -0.61   0.07    -0.00   0.00  -0.00
   8   8     0.05  -0.08   0.01    -0.26   0.45  -0.05     0.00  -0.00   0.00
   9   6    -0.03   0.22  -0.02     0.01   0.21  -0.01     0.00  -0.00   0.00
  10   6     0.01  -0.12   0.01    -0.09  -0.14   0.00     0.00  -0.00   0.00
  11   6    -0.22   0.24  -0.04    -0.03   0.10  -0.01    -0.00  -0.00   0.00
  12   6     0.12  -0.36   0.04     0.02  -0.15   0.01     0.00  -0.00  -0.00
  13   6    -0.14   0.25  -0.04     0.02   0.12  -0.01    -0.00  -0.00   0.00
  14   6     0.15  -0.22   0.03    -0.01  -0.07   0.00    -0.00   0.00  -0.00
  15   6    -0.14   0.33  -0.04     0.01  -0.04   0.00    -0.00   0.00   0.00
  16   8     0.10  -0.20   0.02    -0.01   0.03  -0.00     0.00  -0.00  -0.00
  17   7     0.08  -0.10   0.01     0.02  -0.03   0.00    -0.00   0.00  -0.00
  18   6    -0.01   0.01   0.00    -0.00   0.00  -0.00    -0.00   0.01   0.00
  19   6    -0.01   0.00   0.00    -0.00   0.00   0.00     0.02  -0.24   0.10
  20   8    -0.00  -0.00   0.00     0.00  -0.00   0.00     0.01  -0.01   0.00
  21   1     0.01  -0.06   0.00    -0.01  -0.00  -0.00    -0.00  -0.00  -0.00
  22   1    -0.03  -0.01  -0.00    -0.01   0.02  -0.00    -0.00  -0.00   0.00
  23   1    -0.04  -0.00  -0.01     0.02   0.02   0.00    -0.00   0.00  -0.00
  24   1     0.06   0.00   0.01    -0.03  -0.02  -0.00    -0.00   0.00  -0.00
  25   1     0.04  -0.00   0.00     0.05   0.01   0.00    -0.00   0.00  -0.00
  26   1     0.07  -0.00   0.01     0.04   0.00   0.00     0.00   0.00   0.00
  27   1     0.02   0.10  -0.01     0.00   0.04  -0.00     0.00   0.00  -0.00
  28   1     0.01  -0.02   0.01     0.00  -0.01   0.00    -0.00  -0.00   0.00
  29   1    -0.02  -0.00   0.00    -0.01  -0.00   0.00     0.01  -0.05   0.03
  30   1    -0.00   0.00  -0.00     0.00  -0.00   0.00    -0.01  -0.01  -0.01
  31   1     0.00   0.00  -0.00    -0.00  -0.00  -0.00    -0.16   0.85  -0.42
  32   1     0.01  -0.00  -0.00    -0.00   0.00  -0.00     0.05   0.04   0.07
  33   1     0.00  -0.00  -0.00    -0.00   0.00  -0.00    -0.00   0.00  -0.01
                     82                     83                     84
                        a                      a                      a 
 Frequencies --  2958.3941              2979.6001              2993.2913
 Red. masses --     1.7598                 1.7023                 1.6831
 Frc consts  --     0.0000                 0.0000                 0.0000
 IR Inten    --    29.7292                58.8097                32.6327
 Raman Activ --     0.0000                 0.0000                 0.0000
 Depolar     --     0.0000                 0.0000                 0.0000
 Atom AN      X      Y      Z        X      Y      Z        X      Y      Z
   1   6     0.00   0.00  -0.00    -0.00   0.00  -0.00     0.00   0.00  -0.00
   2   6     0.00  -0.00   0.00    -0.00  -0.00  -0.00    -0.00  -0.00  -0.00
   3   6     0.00  -0.00   0.00    -0.00   0.00   0.00     0.00  -0.00   0.00
   4   6    -0.00   0.00  -0.00    -0.00  -0.00  -0.00    -0.00   0.00   0.00
   5   6     0.00  -0.00   0.00    -0.00  -0.00   0.00     0.00  -0.00   0.00
   6   6    -0.00  -0.00  -0.00    -0.00   0.00  -0.00    -0.00  -0.00  -0.00
   7   6     0.00  -0.00   0.00     0.00   0.00  -0.00     0.00  -0.00   0.00
   8   8    -0.00   0.00  -0.00     0.00  -0.00  -0.00    -0.00   0.00  -0.00
   9   6     0.00  -0.00  -0.00    -0.00   0.00   0.00    -0.00  -0.00   0.00
  10   6     0.00  -0.00   0.00    -0.00   0.00   0.00     0.00  -0.00   0.00
  11   6     0.00  -0.00  -0.00     0.00   0.00  -0.00    -0.00  -0.00  -0.00
  12   6     0.01  -0.00   0.00     0.00  -0.00   0.00     0.00  -0.00   0.00
  13   6     0.00  -0.00   0.00     0.00  -0.00  -0.00     0.00  -0.00  -0.00
  14   6    -0.00   0.00  -0.00     0.00   0.00   0.00    -0.00   0.00  -0.00
  15   6     0.00  -0.00  -0.00     0.00  -0.00  -0.00     0.00   0.00  -0.00
  16   8    -0.00   0.00   0.00    -0.00   0.00   0.00    -0.00  -0.00  -0.00
  17   7    -0.00   0.00  -0.00     0.00   0.00   0.00    -0.01   0.01  -0.00
  18   6    -0.09  -0.21  -0.12    -0.02  -0.06  -0.03    -0.07   0.20  -0.12
  19   6     0.02   0.03   0.03    -0.10  -0.17  -0.14    -0.00   0.02  -0.01
  20   8     0.00  -0.00   0.00    -0.01   0.00  -0.00     0.00  -0.00   0.00
  21   1    -0.00  -0.00   0.00     0.00  -0.00   0.00    -0.00  -0.00  -0.00
  22   1     0.00   0.00  -0.00     0.00   0.00  -0.00     0.00   0.00   0.00
  23   1    -0.00   0.00  -0.00     0.00  -0.00   0.00    -0.00   0.00  -0.00
  24   1     0.00  -0.00   0.00     0.00  -0.00   0.00     0.00  -0.00   0.00
  25   1    -0.00   0.00   0.00     0.00  -0.00   0.00    -0.00   0.00   0.00
  26   1     0.00   0.00  -0.00    -0.00  -0.00  -0.00     0.00   0.00  -0.00
  27   1    -0.01   0.00   0.00    -0.00   0.00   0.00    -0.00  -0.00   0.00
  28   1    -0.02  -0.03  -0.01    -0.00  -0.01  -0.00    -0.00  -0.00   0.00
  29   1    -0.04   0.07  -0.06    -0.01   0.03  -0.02     0.21  -0.84   0.41
  30   1     0.36   0.70   0.49     0.08   0.17   0.11     0.04   0.12   0.04
  31   1    -0.00   0.05  -0.01     0.00  -0.11   0.02     0.01  -0.05   0.02
  32   1    -0.09  -0.16  -0.12     0.40   0.69   0.50     0.00   0.01   0.00
  33   1     0.00   0.00  -0.00    -0.01  -0.01  -0.01     0.00   0.00  -0.00
                     85                     86                     87
                        a                      a                      a 
 Frequencies --  3089.2048              3090.5765              3094.9134
 Red. masses --     1.7737                 1.8010                 1.7810
 Frc consts  --     0.0000                 0.0000                 0.0000
 IR Inten    --     8.1006                 0.6531                15.0407
 Raman Activ --     0.0000                 0.0000                 0.0000
 Depolar     --     0.0000                 0.0000                 0.0000
 Atom AN      X      Y      Z        X      Y      Z        X      Y      Z
   1   6    -0.11  -0.00  -0.01     0.02   0.00   0.00    -0.00  -0.00  -0.00
   2   6     0.04   0.07   0.00     0.05   0.09   0.00     0.00   0.00   0.00
   3   6     0.05  -0.08   0.01     0.11  -0.18   0.02    -0.00   0.00  -0.00
   4   6     0.00  -0.00   0.00     0.01  -0.00   0.00    -0.00   0.00  -0.00
   5   6    -0.00  -0.01   0.00    -0.00   0.00  -0.00     0.00  -0.00   0.00
   6   6     0.10  -0.18   0.02    -0.06   0.11  -0.01     0.00  -0.00   0.00
   7   6     0.00  -0.00   0.00    -0.00   0.00  -0.00     0.00  -0.00   0.00
   8   8    -0.00   0.00  -0.00     0.00  -0.00   0.00     0.00   0.00  -0.00
   9   6     0.00  -0.00   0.00    -0.00   0.00  -0.00     0.00  -0.00   0.00
  10   6    -0.00   0.00  -0.00     0.00  -0.00   0.00     0.09  -0.13   0.02
  11   6    -0.00  -0.00   0.00     0.00   0.00  -0.00     0.10   0.19  -0.00
  12   6     0.00  -0.00   0.00    -0.00   0.00  -0.00    -0.03  -0.00  -0.00
  13   6    -0.00   0.00  -0.00     0.00  -0.00   0.00    -0.00  -0.00  -0.00
  14   6     0.00  -0.00   0.00    -0.00  -0.00   0.00    -0.00   0.00  -0.00
  15   6     0.00  -0.00   0.00     0.00  -0.00   0.00     0.00  -0.00   0.00
  16   8     0.00   0.00  -0.00    -0.00   0.00  -0.00    -0.00   0.00  -0.00
  17   7     0.00   0.00   0.00     0.00   0.00  -0.00    -0.00  -0.00  -0.00
  18   6     0.00  -0.00  -0.00     0.00  -0.00   0.00    -0.00  -0.00  -0.00
  19   6    -0.00   0.00  -0.00     0.00   0.00  -0.00     0.00   0.00   0.00
  20   8     0.00   0.00   0.00    -0.00   0.00   0.00    -0.00   0.00   0.00
  21   1     0.43   0.01   0.05    -0.07  -0.00  -0.01     0.01   0.00   0.00
  22   1    -0.15  -0.28  -0.00    -0.19  -0.34  -0.00    -0.00  -0.01  -0.00
  23   1    -0.17   0.28  -0.03    -0.39   0.64  -0.08     0.00  -0.01   0.00
  24   1    -0.36   0.63  -0.07     0.23  -0.40   0.05    -0.00   0.01  -0.00
  25   1     0.01  -0.01   0.00    -0.01   0.01  -0.00    -0.31   0.48  -0.07
  26   1     0.00   0.00  -0.00    -0.00  -0.00   0.00    -0.35  -0.68   0.02
  27   1    -0.00  -0.00  -0.00     0.00   0.00   0.00     0.12   0.01   0.01
  28   1    -0.00  -0.00  -0.00    -0.00  -0.00  -0.00     0.00   0.00   0.00
  29   1    -0.00   0.00  -0.00    -0.00   0.00  -0.00     0.00  -0.00   0.00
  30   1    -0.00  -0.00  -0.00    -0.00  -0.00  -0.00     0.00   0.00   0.00
  31   1     0.00  -0.00   0.00     0.00  -0.00   0.00     0.00   0.00  -0.00
  32   1    -0.00   0.00   0.00     0.00   0.00   0.00    -0.00  -0.00  -0.00
  33   1    -0.00  -0.00  -0.00    -0.00  -0.00  -0.00    -0.00   0.00  -0.00
                     88                     89                     90
                        a                      a                      a 
 Frequencies --  3097.9786              3103.9660              3107.1739
 Red. masses --     1.8508                 1.8674                 1.9163
 Frc consts  --     0.0000                 0.0000                 0.0000
 IR Inten    --    45.5176                46.5329                81.9761
 Raman Activ --     0.0000                 0.0000                 0.0000
 Depolar     --     0.0000                 0.0000                 0.0000
 Atom AN      X      Y      Z        X      Y      Z        X      Y      Z
   1   6    -0.15  -0.00  -0.02     0.00   0.00   0.00    -0.20  -0.00  -0.02
   2   6     0.08   0.14   0.00     0.00   0.01   0.00    -0.09  -0.16  -0.00
   3   6    -0.07   0.11  -0.01    -0.00   0.00  -0.00     0.04  -0.06   0.01
   4   6    -0.00  -0.00  -0.00     0.00  -0.00   0.00     0.00   0.00   0.00
   5   6     0.00   0.00   0.00     0.00   0.00   0.00     0.00   0.00   0.00
   6   6    -0.05   0.09  -0.01    -0.00   0.00  -0.00    -0.03   0.06  -0.01
   7   6    -0.00   0.00  -0.00    -0.00   0.00  -0.00    -0.00   0.00  -0.00
   8   8     0.00  -0.00   0.00     0.00  -0.00   0.00     0.00  -0.00   0.00
   9   6    -0.00  -0.00  -0.00    -0.01   0.00  -0.00    -0.00   0.00  -0.00
  10   6     0.00  -0.00   0.00    -0.12   0.18  -0.03    -0.00   0.01  -0.00
  11   6    -0.00  -0.00   0.00     0.08   0.15  -0.00     0.00   0.00  -0.00
  12   6     0.00   0.00   0.00    -0.04  -0.01  -0.00    -0.00   0.00  -0.00
  13   6    -0.00   0.00  -0.00    -0.00  -0.00  -0.00     0.00  -0.00   0.00
  14   6     0.00   0.00   0.00     0.00  -0.00   0.00    -0.00  -0.00  -0.00
  15   6    -0.00   0.00  -0.00    -0.00  -0.00  -0.00     0.00  -0.00   0.00
  16   8    -0.00  -0.00   0.00     0.00   0.00  -0.00    -0.00   0.00  -0.00
  17   7    -0.00  -0.00  -0.00    -0.00  -0.00  -0.00    -0.00   0.00  -0.00
  18   6    -0.00   0.00  -0.00    -0.00  -0.00  -0.00     0.00  -0.00   0.00
  19   6    -0.00  -0.00   0.00     0.00   0.00   0.00     0.00  -0.00   0.00
  20   8     0.00  -0.00  -0.00    -0.00   0.00   0.00    -0.00  -0.00   0.00
  21   1     0.54   0.01   0.06    -0.02  -0.00  -0.00     0.66   0.01   0.08
  22   1    -0.27  -0.48  -0.01    -0.01  -0.02  -0.00     0.29   0.53   0.01
  23   1     0.23  -0.38   0.05     0.00  -0.01   0.00    -0.12   0.19  -0.02
  24   1     0.17  -0.30   0.04     0.00  -0.01   0.00     0.11  -0.20   0.02
  25   1    -0.00   0.00  -0.00     0.41  -0.64   0.09     0.01  -0.02   0.00
  26   1     0.01   0.02  -0.00    -0.26  -0.49   0.01    -0.01  -0.01   0.00
  27   1    -0.00  -0.00  -0.00     0.15   0.01   0.01     0.01   0.00   0.00
  28   1     0.00   0.00   0.00     0.00   0.00   0.00     0.00   0.00   0.00
  29   1     0.00  -0.00   0.00     0.00  -0.00   0.00     0.00   0.00  -0.00
  30   1     0.00   0.00   0.00     0.00   0.00   0.00     0.00  -0.00  -0.00
  31   1    -0.00   0.00  -0.00     0.00   0.00  -0.00     0.00   0.00  -0.00
  32   1     0.00  -0.00  -0.00    -0.00  -0.00  -0.00    -0.00  -0.00  -0.00
  33   1     0.00   0.00   0.00    -0.00   0.00  -0.00     0.00   0.00   0.00
                     91                     92                     93
                        a                      a                      a 
 Frequencies --  3128.0956              3250.0622              3488.6441
 Red. masses --     1.8450                 1.8695                 1.8767
 Frc consts  --     0.0000                 0.0000                 0.0000
 IR Inten    --    27.5157               176.6803                86.0150
 Raman Activ --     0.0000                 0.0000                 0.0000
 Depolar     --     0.0000                 0.0000                 0.0000
 Atom AN      X      Y      Z        X      Y      Z        X      Y      Z
   1   6    -0.00  -0.00  -0.00    -0.00  -0.00  -0.00     0.00  -0.00   0.00
   2   6    -0.00  -0.00   0.00    -0.00   0.00  -0.00    -0.00   0.00   0.00
   3   6     0.00  -0.00   0.00     0.00   0.00  -0.00     0.00  -0.00   0.00
   4   6     0.00   0.00  -0.00    -0.00   0.00  -0.00    -0.00   0.00  -0.00
   5   6     0.00   0.00  -0.00    -0.00  -0.00   0.00    -0.00  -0.00   0.00
   6   6    -0.00   0.00  -0.00    -0.00   0.00  -0.00     0.00   0.00   0.00
   7   6    -0.00   0.00  -0.00    -0.00   0.00  -0.00    -0.00   0.00  -0.00
   8   8     0.00  -0.00   0.00     0.00  -0.00   0.00     0.00  -0.00   0.00
   9   6    -0.00   0.00  -0.00     0.00  -0.00   0.00     0.00  -0.00   0.00
  10   6    -0.01   0.01  -0.00     0.00   0.00   0.00     0.00   0.00   0.00
  11   6     0.03   0.06  -0.00    -0.00   0.00  -0.00    -0.00  -0.00  -0.00
  12   6     0.27   0.01   0.02     0.00  -0.01   0.00    -0.00  -0.00  -0.00
  13   6     0.01  -0.01   0.00    -0.00   0.02  -0.00    -0.00   0.00  -0.00
  14   6    -0.00   0.00  -0.00     0.01   0.01  -0.00     0.00   0.00   0.00
  15   6     0.00  -0.00   0.00     0.00  -0.02   0.00     0.00  -0.00   0.00
  16   8     0.00   0.00   0.00    -0.01   0.01  -0.00    -0.00   0.00  -0.00
  17   7    -0.00  -0.00  -0.00     0.13   0.22   0.01     0.00   0.00  -0.00
  18   6     0.00   0.00   0.00     0.00   0.01   0.00     0.00   0.00   0.00
  19   6    -0.00  -0.00  -0.00    -0.00   0.00   0.00    -0.01  -0.00  -0.00
  20   8    -0.00  -0.00  -0.00    -0.00   0.00   0.00    -0.12  -0.18  -0.12
  21   1     0.00   0.00   0.00     0.00  -0.00   0.00    -0.00   0.00   0.00
  22   1     0.00   0.00   0.00     0.00   0.00   0.00    -0.00  -0.00   0.00
  23   1    -0.00   0.00  -0.00     0.00  -0.00   0.00    -0.00   0.00  -0.00
  24   1     0.00  -0.00   0.00     0.00  -0.00   0.00    -0.00   0.00   0.00
  25   1     0.03  -0.04   0.01     0.00  -0.00   0.00     0.00   0.00   0.00
  26   1    -0.09  -0.16   0.00    -0.00  -0.01   0.00     0.00   0.00  -0.00
  27   1    -0.94  -0.05  -0.09    -0.01  -0.00  -0.00     0.00   0.00   0.00
  28   1     0.01   0.01   0.00    -0.47  -0.84  -0.04    -0.00  -0.00  -0.00
  29   1    -0.00   0.00   0.00     0.00  -0.00   0.00    -0.00  -0.00  -0.00
  30   1    -0.01  -0.01  -0.01    -0.02  -0.02  -0.02    -0.00   0.00   0.00
  31   1    -0.00   0.00   0.00     0.00  -0.00   0.00     0.00   0.00   0.00
  32   1     0.00   0.00   0.00    -0.00  -0.00  -0.00     0.00   0.01   0.01
  33   1     0.00   0.00   0.00    -0.00  -0.00  -0.00     0.49   0.70   0.47
