      -----------------------------------------------------------      
     |                   =====================                   |     
     |                           x T B                           |     
     |                   =====================                   |     
     |                         S. Grimme                         |     
     |          Mulliken Center for Theoretical Chemistry        |     
     |                    University of Bonn                     |     
      -----------------------------------------------------------      

   * xtb version 6.7.1 (edcfbbe) compiled by 'albert@albert-system' on 2024-07-22

   xtb is free software: you can redistribute it and/or modify it under
   the terms of the GNU Lesser General Public License as published by
   the Free Software Foundation, either version 3 of the License, or
   (at your option) any later version.
   
   xtb is distributed in the hope that it will be useful,
   but WITHOUT ANY WARRANTY; without even the implied warranty of
   MERCHANTABILITY or FITNESS FOR A PARTICULAR PURPOSE.  See the
   GNU Lesser General Public License for more details.
   
   Cite this work as:
   * C. Bannwarth, E. Caldeweyher, S. Ehlert, A. Hansen, P. Pracht,
     J. Seibert, S. Spicher, S. Grimme, WIREs Comput. Mol. Sci., 2020, 11,
     e01493. DOI: 10.1002/wcms.1493
   
   for GFN2-xTB:
   * C. Bannwarth, S. Ehlert and S. Grimme., J. Chem. Theory Comput., 2019,
     15, 1652-1671. DOI: 10.1021/acs.jctc.8b01176
   for GFN1-xTB:
   * S. Grimme, C. Bannwarth, P. Shushkov, J. Chem. Theory Comput., 2017,
     13, 1989-2009. DOI: 10.1021/acs.jctc.7b00118
   for GFN0-xTB:
   * P. Pracht, E. Caldeweyher, S. Ehlert, S. Grimme, ChemRxiv, 2019, preprint.
     DOI: 10.26434/chemrxiv.8326202.v1
   for GFN-FF:
   * S. Spicher and S. Grimme, Angew. Chem. Int. Ed., 2020, 59, 15665-15673.
     DOI: 10.1002/anie.202004239
   
   for ALPB and GBSA implicit solvation:
   * S. Ehlert, M. Stahn, S. Spicher, S. Grimme, J. Chem. Theory Comput.,
     2021, 17, 4250-4261. DOI: 10.1021/acs.jctc.1c00471
   
   for ddCOSMO and CPCM-X implicit solvation:
   * M. Stahn, S. Ehlert, S. Grimme, J. Phys. Chem. A,
     2023, XX, XXXX-XXXX. DOI: 10.1021/acs.jpca.3c04382
   
   for DFT-D4:
   * E. Caldeweyher, C. Bannwarth and S. Grimme, J. Chem. Phys., 2017,
     147, 034112. DOI: 10.1063/1.4993215
   * E. Caldeweyher, S. Ehlert, A. Hansen, H. Neugebauer, S. Spicher,
     C. Bannwarth and S. Grimme, J. Chem. Phys., 2019, 150, 154122.
     DOI: 10.1063/1.5090222
   * E. Caldeweyher, J.-M. Mewes, S. Ehlert and S. Grimme, Phys. Chem. Chem. Phys.
     2020, 22, 8499-8512. DOI: 10.1039/D0CP00502A
   
   for sTDA-xTB:
   * S. Grimme and C. Bannwarth, J. Chem. Phys., 2016, 145, 054103.
     DOI: 10.1063/1.4959605
   
   in the mass-spec context:
   * V. Asgeirsson, C. Bauer and S. Grimme, Chem. Sci., 2017, 8, 4879.
     DOI: 10.1039/c7sc00601b
   * J. Koopman and S. Grimme, ACS Omega 2019, 4, 12, 15120-15133.
     DOI: 10.1021/acsomega.9b02011
   
   for metadynamics refer to:
   * S. Grimme, J. Chem. Theory Comput., 2019, 155, 2847-2862
     DOI: 10.1021/acs.jctc.9b00143
   
   for SPH calculations refer to:
   * S. Spicher and S. Grimme, J. Chem. Theory Comput., 2021, 17, 1701-1714
     DOI: 10.1021/acs.jctc.0c01306
   
   for ONIOM refer to:
   * C. Plett, A. Katbashev, S. Ehlert, S. Grimme, M. Bursch,
     Phys. Chem. Chem. Phys., 2023, 25, 17860-17868. DOI: 10.1039/D3CP02178E
   
   for DIPRO refer to:
   * J. Kohn, N. Gildemeister, S. Grimme, D. Fazzi, A. Hansen,
     J. Chem. Phys., 2023, just accepted.
   
   for PTB refer to:
   * S. Grimme, M. Mueller, A. Hansen, J. Chem. Phys., 2023, 158, 124111.
     DOI: 10.1063/5.0137838
   
   with help from (in alphabetical order)
   P. Atkinson, C. Bannwarth, F. Bohle, G. Brandenburg, E. Caldeweyher
   M. Checinski, S. Dohm, S. Ehlert, S. Ehrlich, I. Gerasimov, C. Hölzer
   A. Katbashev, J. Kohn, J. Koopman, C. Lavigne, S. Lehtola, F. März, M. Müller,
   F. Musil, H. Neugebauer, J. Pisarek, C. Plett, P. Pracht, F. Pultar,
   J. Seibert, P. Shushkov, S. Spicher, M. Stahn, M. Steiner, T. Strunk,
   J. Stückrath, T. Rose, and J. Unsleber
   
 * started run on 2025/04/11 at 16:16:00.968     
   ID    Z sym.   atoms
    1    6 C      1, 2, 4-13, 15, 16
    2    1 H      3, 19-31
    3    8 O      14, 17, 18

           -------------------------------------------------
          |                Calculation Setup                |
           -------------------------------------------------

          program call               : /srv/scratch/z5358697/.xtb/bin/xtb xtb_rrho.coord --gfn2 --bhess vtight --chrg 0 --enso --norestart -I rrho-xcontrol-inp --parallel 1 --alpb water
          hostname                   : k061
          coordinate file            : xtb_rrho.coord
          omp threads                :                     1


           -------------------------------------------------
          |                 G F N 2 - x T B                 |
           -------------------------------------------------

        Reference                      10.1021/acs.jctc.8b01176
      * Hamiltonian:
        H0-scaling (s, p, d)           1.850000    2.230000    2.230000
        zeta-weighting                 0.500000
      * Dispersion:
        s8                             2.700000
        a1                             0.520000
        a2                             5.000000
        s9                             5.000000
      * Repulsion:
        kExp                           1.500000    1.000000
        rExp                           1.000000
      * Coulomb:
        alpha                          2.000000
        third order                    shell-resolved
        anisotropic                    true
        a3                             3.000000
        a5                             4.000000
        cn-shift                       1.200000
        cn-exp                         4.000000
        max-rad                        5.000000

      * Solvation model:               ALPB
        Solvent                        water
        Parameter file                 internal GFN2-xTB/ALPB
        Dielectric constant                8.0200E+01
        Reference state                gsolv [1 M gas/solution]
        Free energy shift                  1.0808E-03 Eh       6.7819E-01 kcal/mol
        Temperature                        2.9815E+02 K
        Density                            1.0000E+00 kg/L
        Solvent mass                       1.8000E+01 g/mol
        Interaction kernel             P16
        Born radius scaling (c1)           1.4744E+00
        Born radii integrator          GBOBC
        Born offset                        0.0000E+00 a0       0.0000E+00 AA
        H-bond correction              true
        Ion screening                  false
        Surface tension                    1.0000E-05 Eh       1.5569E+01 dyn/cm
        Grid points                               974 per atom

          ...................................................
          :                      SETUP                      :
          :.................................................:
          :  # basis functions                  82          :
          :  # atomic orbitals                  82          :
          :  # shells                           48          :
          :  # electrons                        88          :
          :  max. iterations                   250          :
          :  Hamiltonian                  GFN2-xTB          :
          :  restarted?                      false          :
          :  GBSA solvation                   true          :
          :  PC potential                    false          :
          :  electronic temp.          300.0000000     K    :
          :  accuracy                    1.0000000          :
          :  -> integral cutoff          0.2500000E+02      :
          :  -> integral neglect         0.1000000E-07      :
          :  -> SCF convergence          0.1000000E-05 Eh   :
          :  -> wf. convergence          0.1000000E-03 e    :
          :  Broyden damping             0.4000000          :
          :  net charge                          0          :
          :  unpaired electrons                  0          :
          ...................................................

 iter      E             dE          RMSdq      gap      omega  full diag
   1    -49.9607639 -0.499608E+02  0.459E+00    3.01       0.0  T
   2    -50.0175290 -0.567650E-01  0.254E+00    2.83       1.0  T
   3    -50.0139714  0.355758E-02  0.111E+00    2.94       1.0  T
   4    -50.0232165 -0.924514E-02  0.272E-01    2.89       1.0  T
   5    -50.0243351 -0.111857E-02  0.922E-02    2.90       1.0  T
   6    -50.0244090 -0.738743E-04  0.476E-02    2.90       1.0  T
   7    -50.0244161 -0.708235E-05  0.221E-02    2.90       1.0  T
   8    -50.0244215 -0.539521E-05  0.631E-03    2.90       2.8  T
   9    -50.0244218 -0.307403E-06  0.244E-03    2.90       7.4  T
  10    -50.0244218 -0.141141E-07  0.135E-03    2.90      13.3  T
  11    -50.0244218 -0.184423E-07  0.490E-04    2.90      36.6  T
  12    -50.0244218 -0.116513E-08  0.189E-04    2.90      95.2  T

   *** convergence criteria satisfied after 12 iterations ***

         #    Occupation            Energy/Eh            Energy/eV
      -------------------------------------------------------------
         1        2.0000           -0.7440320             -20.2461
       ...           ...                  ...                  ...
        38        2.0000           -0.4367899             -11.8857
        39        2.0000           -0.4315876             -11.7441
        40        2.0000           -0.4227227             -11.5029
        41        2.0000           -0.4138323             -11.2610
        42        2.0000           -0.4131534             -11.2425
        43        2.0000           -0.3911163             -10.6428
        44        2.0000           -0.3686926             -10.0326 (HOMO)
        45                         -0.2620411              -7.1305 (LUMO)
        46                         -0.2488438              -6.7714
        47                         -0.2237468              -6.0885
        48                         -0.1897547              -5.1635
        49                         -0.1457941              -3.9673
       ...                                ...                  ...
        82                          0.6747646              18.3613
      -------------------------------------------------------------
                  HL-Gap            0.1066515 Eh            2.9021 eV
             Fermi-level           -0.3153669 Eh           -8.5816 eV

 SCC (total)                   0 d,  0 h,  0 min,  0.049 sec
 SCC setup                      ...        0 min,  0.007 sec ( 14.392%)
 Dispersion                     ...        0 min,  0.001 sec (  1.632%)
 classical contributions        ...        0 min,  0.000 sec (  0.295%)
 integral evaluation            ...        0 min,  0.009 sec ( 18.875%)
 iterations                     ...        0 min,  0.017 sec ( 34.392%)
 molecular gradient             ...        0 min,  0.015 sec ( 29.880%)
 printout                       ...        0 min,  0.000 sec (  0.464%)

         :::::::::::::::::::::::::::::::::::::::::::::::::::::
         ::                     SUMMARY                     ::
         :::::::::::::::::::::::::::::::::::::::::::::::::::::
         :: total energy             -49.342910848421 Eh    ::
         :: total w/o Gsasa/hb       -49.335955181238 Eh    ::
         :: gradient norm              0.040180987940 Eh/a0 ::
         :: HOMO-LUMO gap              2.902133925807 eV    ::
         ::.................................................::
         :: SCC energy               -50.024415116366 Eh    ::
         :: -> isotropic ES            0.083169064989 Eh    ::
         :: -> anisotropic ES          0.003396979794 Eh    ::
         :: -> anisotropic XC          0.016685116247 Eh    ::
         :: -> dispersion             -0.030388147945 Eh    ::
         :: -> Gsolv                  -0.019280559581 Eh    ::
         ::    -> Gelec               -0.012324892397 Eh    ::
         ::    -> Gsasa                0.001638312061 Eh    ::
         ::    -> Ghb                 -0.009674738942 Eh    ::
         ::    -> Gshift               0.001080759698 Eh    ::
         :: repulsion energy           0.681504267945 Eh    ::
         :: add. restraining           0.000000000000 Eh    ::
         :: total charge               0.000000000000 e     ::
         :::::::::::::::::::::::::::::::::::::::::::::::::::::

metadynamics with 1 initial structures loaded
           -------------------------------------------------
          |           Optimal kpush determination           |
           -------------------------------------------------
      ----------------------------------------------------------- 
     |                   =====================                   |
     |                        A N C O P T                        |
     |                   =====================                   |
     |               Approximate Normal Coordinate               |
     |                Rational Function Optimizer                |
      ----------------------------------------------------------- 
target rmsd / Å         0.100000
unbiased initial rmsd   0.410385
 
iter. min.        max.        rmsd       kpush
      ----------------------------------------------------------- 
     |                   =====================                   |
     |                        A N C O P T                        |
     |                   =====================                   |
     |               Approximate Normal Coordinate               |
     |                Rational Function Optimizer                |
      ----------------------------------------------------------- 
 1    0.000000    1.409091    0.011696   -0.704545
      ----------------------------------------------------------- 
     |                   =====================                   |
     |                        A N C O P T                        |
     |                   =====================                   |
     |               Approximate Normal Coordinate               |
     |                Rational Function Optimizer                |
      ----------------------------------------------------------- 
 2    0.000000    0.704545    0.014897   -0.352273
      ----------------------------------------------------------- 
     |                   =====================                   |
     |                        A N C O P T                        |
     |                   =====================                   |
     |               Approximate Normal Coordinate               |
     |                Rational Function Optimizer                |
      ----------------------------------------------------------- 
 3    0.000000    0.352273    0.019268   -0.176136
      ----------------------------------------------------------- 
     |                   =====================                   |
     |                        A N C O P T                        |
     |                   =====================                   |
     |               Approximate Normal Coordinate               |
     |                Rational Function Optimizer                |
      ----------------------------------------------------------- 
 4    0.000000    0.176136    0.025299   -0.088068
      ----------------------------------------------------------- 
     |                   =====================                   |
     |                        A N C O P T                        |
     |                   =====================                   |
     |               Approximate Normal Coordinate               |
     |                Rational Function Optimizer                |
      ----------------------------------------------------------- 
 5    0.000000    0.088068    0.033121   -0.044034
      ----------------------------------------------------------- 
     |                   =====================                   |
     |                        A N C O P T                        |
     |                   =====================                   |
     |               Approximate Normal Coordinate               |
     |                Rational Function Optimizer                |
      ----------------------------------------------------------- 
 6    0.000000    0.044034    0.042111   -0.022017
      ----------------------------------------------------------- 
     |                   =====================                   |
     |                        A N C O P T                        |
     |                   =====================                   |
     |               Approximate Normal Coordinate               |
     |                Rational Function Optimizer                |
      ----------------------------------------------------------- 
 7    0.000000    0.022017    0.050554   -0.011009
      ----------------------------------------------------------- 
     |                   =====================                   |
     |                        A N C O P T                        |
     |                   =====================                   |
     |               Approximate Normal Coordinate               |
     |                Rational Function Optimizer                |
      ----------------------------------------------------------- 
 8    0.000000    0.011009    0.057524   -0.005504
      ----------------------------------------------------------- 
     |                   =====================                   |
     |                        A N C O P T                        |
     |                   =====================                   |
     |               Approximate Normal Coordinate               |
     |                Rational Function Optimizer                |
      ----------------------------------------------------------- 
 9    0.000000    0.005504    0.063641   -0.002752
      ----------------------------------------------------------- 
     |                   =====================                   |
     |                        A N C O P T                        |
     |                   =====================                   |
     |               Approximate Normal Coordinate               |
     |                Rational Function Optimizer                |
      ----------------------------------------------------------- 
10    0.000000    0.002752    0.067434   -0.001376
final kpush: -0.001376
           -------------------------------------------------
          |            Biased Numerical Hessian             |
           -------------------------------------------------
kpush                :  -0.00138
alpha                :   1.00000
step length          :   0.00500
SCC accuracy         :   0.30000
Hessian scale factor :   1.00000
frozen atoms in %    :   0.00000    0
RMS gradient         :   0.00006
estimated CPU  time      0.08 min
estimated wall time      0.08 min

writing file <hessian>.

 projected vibrational frequencies (cm⁻¹)
eigval :       -0.00    -0.00     0.00     0.00     0.00     0.00
eigval :      -16.58    42.19    46.59    74.93   112.15   136.05
eigval :      161.71   184.82   213.02   229.62   240.96   259.01
eigval :      297.81   342.42   364.50   374.21   407.69   442.63
eigval :      460.79   506.54   526.92   537.64   571.47   577.24
eigval :      603.42   636.10   665.45   713.30   728.17   766.74
eigval :      792.09   827.70   839.70   853.69   865.01   870.37
eigval :      903.65   917.82   923.81   949.83  1029.06  1049.21
eigval :     1069.87  1092.58  1113.60  1115.70  1136.87  1148.51
eigval :     1164.17  1175.18  1183.24  1213.59  1240.22  1248.40
eigval :     1256.28  1265.73  1305.82  1332.32  1369.83  1389.19
eigval :     1397.40  1404.05  1423.98  1457.94  1461.06  1471.19
eigval :     1480.96  1495.79  1502.79  1558.69  1602.91  1609.56
eigval :     1698.74  2944.80  2955.49  2956.08  3034.08  3038.98
eigval :     3049.62  3063.67  3070.48  3081.48  3084.48  3095.41
eigval :     3103.35  3110.21  3341.74
           -------------------------------------------------
          |                Property Printout                |
           -------------------------------------------------

    * Orbital Energies and Occupations

         #    Occupation            Energy/Eh            Energy/eV
      -------------------------------------------------------------
         1        2.0000           -0.7466545             -20.3175
       ...           ...                  ...                  ...
        32        2.0000           -0.4687825             -12.7562
        33        2.0000           -0.4675767             -12.7234
        34        2.0000           -0.4669851             -12.7073
        35        2.0000           -0.4588076             -12.4848
        36        2.0000           -0.4473709             -12.1736
        37        2.0000           -0.4392940             -11.9538
        38        2.0000           -0.4364003             -11.8751
        39        2.0000           -0.4315594             -11.7433
        40        2.0000           -0.4220710             -11.4851
        41        2.0000           -0.4126819             -11.2296
        42        2.0000           -0.4121291             -11.2146
        43        2.0000           -0.3919911             -10.6666
        44        2.0000           -0.3685634             -10.0291 (HOMO)
        45                         -0.2604304              -7.0867 (LUMO)
        46                         -0.2422301              -6.5914
        47                         -0.2192243              -5.9654
        48                         -0.1877386              -5.1086
        49                         -0.1418795              -3.8607
        50                         -0.0555531              -1.5117
        51                          0.0237809               0.6471
        52                          0.0604676               1.6454
        53                          0.0735852               2.0024
        54                          0.1047576               2.8506
        55                          0.1089350               2.9643
       ...                                ...                  ...
        82                          0.6977815              18.9876
      -------------------------------------------------------------
                  HL-Gap            0.1081331 Eh            2.9425 eV
             Fermi-level           -0.3144969 Eh           -8.5579 eV

     #   Z          covCN         q      C6AA      α(0)
     1   6 C        3.754    -0.119    22.833     6.814
     2   6 C        3.857    -0.042    21.294     6.563
     3   1 H        0.924     0.063     2.161     2.299
     4   6 C        2.982     0.008    27.824     8.653
     5   6 C        2.920    -0.041    29.029     8.835
     6   6 C        2.917    -0.042    29.036     8.836
     7   6 C        2.986     0.010    27.786     8.647
     8   6 C        2.920    -0.071    29.782     8.949
     9   6 C        2.859     0.140    24.940     8.186
    10   6 C        2.914    -0.066    29.651     8.929
    11   6 C        2.919    -0.042    29.043     8.838
    12   6 C        2.986     0.002    27.962     8.674
    13   6 C        2.921    -0.045    29.121     8.849
    14   8 O        1.705    -0.306    19.095     5.900
    15   6 C        3.640     0.022    20.557     6.520
    16   6 C        2.707     0.371    20.708     7.449
    17   8 O        0.856    -0.499    23.762     6.536
    18   8 O        1.659    -0.404    20.916     6.174
    19   1 H        0.925     0.065     2.138     2.287
    20   1 H        0.925     0.062     2.178     2.308
    21   1 H        0.925     0.051     2.314     2.379
    22   1 H        0.926     0.034     2.524     2.484
    23   1 H        0.926     0.040     2.448     2.447
    24   1 H        0.926     0.045     2.378     2.412
    25   1 H        0.926     0.051     2.309     2.376
    26   1 H        0.926     0.052     2.299     2.371
    27   1 H        0.926     0.056     2.249     2.345
    28   1 H        0.924     0.055     2.262     2.352
    29   1 H        0.925     0.079     1.990     2.206
    30   1 H        0.924     0.054     2.266     2.354
    31   1 H        0.803     0.416     0.457     1.061

 Mol. C6AA /au·bohr⁶  :      11152.966336
 Mol. C8AA /au·bohr⁸  :     267690.908253
 Mol. α(0) /au        :        165.030795


Wiberg/Mayer (AO) data.
largest (>0.10) Wiberg bond orders for each atom

 ---------------------------------------------------------------------------
     #   Z sym  total        # sym  WBO       # sym  WBO       # sym  WBO
 ---------------------------------------------------------------------------
     1   6 C    3.989 --     2 C    0.999    21 H    0.985    20 H    0.983
                            19 H    0.981
     2   6 C    3.989 --     1 C    0.999     4 C    0.962     3 H    0.959
                            16 C    0.951
     3   1 H    0.995 --     2 C    0.959
     4   6 C    3.977 --    13 C    1.527     5 C    1.286     2 C    0.962
     5   6 C    3.991 --     6 C    1.573     4 C    1.286    22 H    0.968
     6   6 C    3.990 --     5 C    1.573     7 C    1.265    23 H    0.967
                            13 C    0.113
     7   6 C    3.989 --     8 C    1.308     6 C    1.265    12 C    1.241
     8   6 C    3.985 --     9 C    1.450     7 C    1.308    24 H    0.966
                            11 C    0.114
     9   6 C    3.929 --     8 C    1.450    10 C    1.274    14 O    1.055
    10   6 C    3.988 --    11 C    1.554     9 C    1.274    25 H    0.964
    11   6 C    3.987 --    10 C    1.554    12 C    1.283    26 H    0.967
                             8 C    0.114
    12   6 C    3.991 --    11 C    1.283    13 C    1.280     7 C    1.241
    13   6 C    3.989 --     4 C    1.527    12 C    1.280    27 H    0.962
                             6 C    0.113
    14   8 O    2.199 --     9 C    1.055    15 C    0.971
    15   6 C    3.931 --    29 H    0.978    30 H    0.977    28 H    0.977
                            14 O    0.971
    16   6 C    3.900 --    17 O    1.691    18 O    1.189     2 C    0.951
    17   8 O    1.962 --    16 C    1.691    18 O    0.171
    18   8 O    2.196 --    16 C    1.189    31 H    0.801    17 O    0.171
    19   1 H    0.996 --     1 C    0.981
    20   1 H    0.996 --     1 C    0.983
    21   1 H    0.997 --     1 C    0.985
    22   1 H    0.998 --     5 C    0.968
    23   1 H    0.998 --     6 C    0.967
    24   1 H    0.997 --     8 C    0.966
    25   1 H    0.997 --    10 C    0.964
    26   1 H    0.997 --    11 C    0.967
    27   1 H    0.996 --    13 C    0.962
    28   1 H    0.996 --    15 C    0.977
    29   1 H    0.993 --    15 C    0.978
    30   1 H    0.996 --    15 C    0.977
    31   1 H    0.827 --    18 O    0.801
 ---------------------------------------------------------------------------

Topologies differ in total number of bonds
Writing topology from bond orders to xtbtopo.mol

molecular dipole:
                 x           y           z       tot (Debye)
 q only:        0.850       1.699       0.372
   full:        0.826       1.678       0.499       4.920
molecular quadrupole (traceless):
                xx          xy          yy          xz          yz          zz
 q only:        0.998      -6.205      -4.602       1.693       3.160       3.603
  q+dip:        3.029      -5.289      -4.319       1.562       5.332       1.290
   full:        2.168      -5.291      -6.006       1.229       3.581       3.838

           -------------------------------------------------
          |                Geometry Summary                 |
           -------------------------------------------------

      molecular mass/u    :      230.2596879
   center of mass at/Å    :        0.0000307       0.0012484       0.0012971
  moments of inertia/u·Å² :        0.3851510E+03   0.2374494E+04   0.2517014E+04
rotational constants/cm⁻¹ :        0.4376889E-01   0.7099462E-02   0.6697473E-02

 * 30 selected distances

     #   Z          #   Z                                           value/Å
     1   6 C        2   6 C                                       1.5263120 (max)
     2   6 C        3   1 H                                       1.0939787
     4   6 C        5   6 C                                       1.4109570
     5   6 C        6   6 C                                       1.3644135
     6   6 C        7   6 C                                       1.4124877
     7   6 C        8   6 C                                       1.4036012
     8   6 C        9   6 C                                       1.3781753
     9   6 C       10   6 C                                       1.4091711
    10   6 C       11   6 C                                       1.3674991
     7   6 C       12   6 C                                       1.4195723
    11   6 C       12   6 C                                       1.4083115
     4   6 C       13   6 C                                       1.3696788
    12   6 C       13   6 C                                       1.4100400
     9   6 C       14   8 O                                       1.3655161
    14   8 O       15   6 C                                       1.4152667
    16   6 C       17   8 O                                       1.2141885
    16   6 C       18   8 O                                       1.3198395
     1   6 C       19   1 H                                       1.0853729
     1   6 C       20   1 H                                       1.0862988
     1   6 C       21   1 H                                       1.0871513
     5   6 C       22   1 H                                       1.0805600
     6   6 C       23   1 H                                       1.0798392
     8   6 C       24   1 H                                       1.0791411
    10   6 C       25   1 H                                       1.0779348
    11   6 C       26   1 H                                       1.0797649
    13   6 C       27   1 H                                       1.0783523
    15   6 C       28   1 H                                       1.0930641
    15   6 C       29   1 H                                       1.0877299
    15   6 C       30   1 H                                       1.0930710
    18   8 O       31   1 H                                       0.9766195 (min)

 * 4 distinct bonds (by element types)

   Z      Z             #   av. dist./Å        max./Å        min./Å
   1 H    6 C          13     1.0847892     1.0939787     1.0779348
   6 C    6 C          12     1.4066850     1.5263120     1.3644135
   1 H    8 O           1     0.9766195     0.9766195     0.9766195
   6 C    8 O           4     1.3287027     1.4152667     1.2141885

           -------------------------------------------------
          |               Frequency Printout                |
           -------------------------------------------------
 projected vibrational frequencies (cm⁻¹)
eigval :       -0.00    -0.00     0.00     0.00     0.00     0.00
eigval :      -16.58    42.19    46.59    74.93   112.15   136.05
eigval :      161.71   184.82   213.02   229.62   240.96   259.01
eigval :      297.81   342.42   364.50   374.21   407.69   442.63
eigval :      460.79   506.54   526.92   537.64   571.47   577.24
eigval :      603.42   636.10   665.45   713.30   728.17   766.74
eigval :      792.09   827.70   839.70   853.69   865.01   870.37
eigval :      903.65   917.82   923.81   949.83  1029.06  1049.21
eigval :     1069.87  1092.58  1113.60  1115.70  1136.87  1148.51
eigval :     1164.17  1175.18  1183.24  1213.59  1240.22  1248.40
eigval :     1256.28  1265.73  1305.82  1332.32  1369.83  1389.19
eigval :     1397.40  1404.05  1423.98  1457.94  1461.06  1471.19
eigval :     1480.96  1495.79  1502.79  1558.69  1602.91  1609.56
eigval :     1698.74  2944.80  2955.49  2956.08  3034.08  3038.98
eigval :     3049.62  3063.67  3070.48  3081.48  3084.48  3095.41
eigval :     3103.35  3110.21  3341.74
 reduced masses (amu)
   1: 12.08   2: 11.30   3: 12.15   4: 11.91   5: 12.38   6: 12.55   7: 11.55   8: 12.86
   9: 14.58  10: 11.01  11: 12.41  12:  9.86  13:  9.05  14:  8.72  15:  7.63  16:  7.21
  17:  3.60  18:  9.04  19: 10.91  20: 11.47  21: 10.31  22: 10.17  23: 10.97  24:  8.80
  25: 11.04  26: 11.30  27: 10.43  28: 11.03  29:  9.61  30:  9.32  31:  7.90  32:  9.66
  33: 10.66  34: 11.41  35: 11.51  36: 10.35  37:  5.44  38:  5.99  39:  8.85  40:  8.73
  41:  3.63  42:  3.81  43:  3.36  44:  3.85  45:  9.78  46:  9.34  47:  6.35  48: 10.93
  49:  5.28  50:  6.94  51:  3.68  52:  7.80  53:  5.60  54:  6.29  55:  4.02  56:  5.99
  57:  2.45  58:  4.87  59:  8.31  60:  8.22  61:  5.98  62:  7.37  63:  7.22  64:  6.77
  65: 10.31  66:  3.58  67:  6.11  68:  5.85  69: 11.54  70:  9.12  71:  1.54  72:  2.21
  73:  1.66  74:  1.95  75: 10.48  76: 11.68  77: 11.55  78: 11.52  79: 13.29  80:  1.96
  81:  1.76  82:  1.44  83:  1.70  84:  1.86  85:  1.66  86:  1.64  87:  1.77  88:  1.81
  89:  1.87  90:  1.82  91:  1.82  92:  1.85  93:  1.85
 IR intensities (km·mol⁻¹)
   1:  0.49   2:  1.13   3:  0.08   4:  0.75   5:  0.34   6:  0.01   7:  0.14   8:  0.95
   9:  3.30  10:  3.08  11:  3.45  12:  0.45  13:  1.02  14:  3.07  15:  0.62  16:  0.65
  17:  1.20  18:  1.66  19:  1.74  20:  3.28  21:  0.89  22:  2.39  23:  0.87  24:  3.93
  25:  7.81  26:  3.28  27:  6.64  28: 33.10  29: 81.02  30:106.93  31: 56.27  32: 47.73
  33:  6.03  34: 36.49  35:108.86  36:  1.06  37: 20.64  38: 18.74  39: 13.28  40: 21.25
  41: 12.47  42:  2.36  43:  0.67  44:  5.97  45: 66.88  46:  3.11  47: 86.46  48: 86.41
  49: 38.85  50:133.42  51:  2.84  52: 79.46  53: 13.87  54:336.73  55: 53.73  56:  5.50
  57:  4.18  58:  4.03  59:133.56  60:277.72  61:176.74  62:157.28  63: 30.34  64:  3.23
  65: 76.71  66:  3.41  67: 22.06  68: 21.12  69:  7.43  70: 93.31  71:  7.24  72:  7.07
  73:  3.00  74: 22.07  75: 68.92  76:  3.61  77:216.93  78:  1.09  79:864.97  80: 45.92
  81: 44.50  82: 51.51  83: 20.76  84: 55.69  85: 29.59  86: 17.61  87: 40.27  88: 72.75
  89:102.96  90: 93.26  91: 24.25  92: 63.13  93:194.63
 Raman intensities (Ä⁴*amu⁻¹)
   1:  0.00   2:  0.00   3:  0.00   4:  0.00   5:  0.00   6:  0.00   7:  0.00   8:  0.00
   9:  0.00  10:  0.00  11:  0.00  12:  0.00  13:  0.00  14:  0.00  15:  0.00  16:  0.00
  17:  0.00  18:  0.00  19:  0.00  20:  0.00  21:  0.00  22:  0.00  23:  0.00  24:  0.00
  25:  0.00  26:  0.00  27:  0.00  28:  0.00  29:  0.00  30:  0.00  31:  0.00  32:  0.00
  33:  0.00  34:  0.00  35:  0.00  36:  0.00  37:  0.00  38:  0.00  39:  0.00  40:  0.00
  41:  0.00  42:  0.00  43:  0.00  44:  0.00  45:  0.00  46:  0.00  47:  0.00  48:  0.00
  49:  0.00  50:  0.00  51:  0.00  52:  0.00  53:  0.00  54:  0.00  55:  0.00  56:  0.00
  57:  0.00  58:  0.00  59:  0.00  60:  0.00  61:  0.00  62:  0.00  63:  0.00  64:  0.00
  65:  0.00  66:  0.00  67:  0.00  68:  0.00  69:  0.00  70:  0.00  71:  0.00  72:  0.00
  73:  0.00  74:  0.00  75:  0.00  76:  0.00  77:  0.00  78:  0.00  79:  0.00  80:  0.00
  81:  0.00  82:  0.00  83:  0.00  84:  0.00  85:  0.00  86:  0.00  87:  0.00  88:  0.00
  89:  0.00  90:  0.00  91:  0.00  92:  0.00  93:  0.00
 output can be read by thermo (or use thermo option).
 writing <g98.out> molden fake output.
 recommended (thermochemical) frequency scaling factor: 1.0
           -------------------------------------------------
          |             Thermodynamic Functions             |
           -------------------------------------------------

Molecule has no symmetry elements
It seems to be the C1 point group
c1  symmetry found (for desy threshold:  0.10E+00) used in thermo
 inverting freq            1   16.5833653446616     

          ...................................................
          :                      SETUP                      :
          :.................................................:
          :  # frequencies                          87      :
          :  # imaginary freq.                       0      :
          :  linear?                             false      :
          :  only rotor calc.                    false      :
          :  symmetry                               c1      :
          :  rotational number                       1      :
          :  scaling factor                  1.0000000      :
          :  rotor cutoff                    0.0000000 cm⁻¹ :
          :  imag. cutoff                 -100.0000000 cm⁻¹ :
          :.................................................:

    mode    ω/cm⁻¹     T·S(HO)/kcal·mol⁻¹    T·S(FR)/kcal·mol⁻¹   T·S(vib)
   ------------------------------------------------------------------------
       1     16.58    -2.08890 (100.00%)    -1.38332 (  0.00%)    -2.08890
       2     42.19    -1.53649 (100.00%)    -1.10678 (  0.00%)    -1.53649
       3     46.59    -1.47793 (100.00%)    -1.07740 (  0.00%)    -1.47793
       4     74.93    -1.19842 (100.00%)    -0.93668 (  0.00%)    -1.19842
       5    112.15    -0.96344 (100.00%)    -0.81722 (  0.00%)    -0.96344
       6    136.05    -0.85230 (100.00%)    -0.75998 (  0.00%)    -0.85230
       7    161.71    -0.75424 (100.00%)    -0.70881 (  0.00%)    -0.75424
       8    184.82    -0.67953 (100.00%)    -0.66924 (  0.00%)    -0.67953
       9    213.02    -0.60156 (100.00%)    -0.62717 (  0.00%)    -0.60156
      10    229.62    -0.56108 (100.00%)    -0.60494 (  0.00%)    -0.56108
      11    240.96    -0.53540 (100.00%)    -0.59066 (  0.00%)    -0.53540
      12    259.01    -0.49745 (100.00%)    -0.56927 (  0.00%)    -0.49745
      13    297.81    -0.42611 (100.00%)    -0.52792 (  0.00%)    -0.42611
   ------------------------------------------------------------------------

   temp. (K)  partition function   enthalpy   heat capacity  entropy
                                   cal/mol     cal/K/mol   cal/K/mol   J/K/mol
 298.15  VIB  0.687E+06             8180.304     54.839     54.145
         ROT  0.367E+07              888.752      2.981     33.017
         INT  0.252E+13             9069.056     57.820     87.162
         TR   0.338E+28             1481.254      4.968     42.185
         TOT                       10550.3099    62.7879   129.3466   541.1862

       T/K    H(0)-H(T)+PV         H(T)/Eh          T*S/Eh         G(T)/Eh
   ------------------------------------------------------------------------
    298.15    0.168130E-01    0.259161E+00    0.614567E-01    0.197705E+00
   ------------------------------------------------------------------------

         :::::::::::::::::::::::::::::::::::::::::::::::::::::
         ::                  THERMODYNAMIC                  ::
         :::::::::::::::::::::::::::::::::::::::::::::::::::::
         :: total free energy         -49.149452741833 Eh   ::
         ::.................................................::
         :: total energy              -49.347157393766 Eh   ::
         :: zero point energy           0.242348411607 Eh   ::
         :: G(RRHO) w/o ZPVE           -0.044643759675 Eh   ::
         :: G(RRHO) contrib.            0.197704651932 Eh   ::
         :::::::::::::::::::::::::::::::::::::::::::::::::::::
imag cut-off (cm-1) :    5.00
 found            1  significant imaginary frequency
 writing imag mode distorted coords to xtbhess.coord
 for further optimization.

optimized geometry written to: xtbopt.coord


           -------------------------------------------------
          | TOTAL ENERGY              -49.347157393766 Eh   |
          | TOTAL ENTHALPY            -49.087995993079 Eh   |
          | TOTAL FREE ENERGY         -49.149452741833 Eh   |
          | GRADIENT NORM               0.000061977348 Eh/α |
          | HOMO-LUMO GAP               2.942450647064 eV   |
           -------------------------------------------------

------------------------------------------------------------------------
 * finished run on 2025/04/11 at 16:16:16.986     
------------------------------------------------------------------------
 total:
 * wall-time:     0 d,  0 h,  0 min, 16.017 sec
 *  cpu-time:     0 d,  0 h,  0 min, 15.773 sec
 * ratio c/w:     0.985 speedup
 SCF:
 * wall-time:     0 d,  0 h,  0 min,  0.049 sec
 *  cpu-time:     0 d,  0 h,  0 min,  0.049 sec
 * ratio c/w:     0.994 speedup
 analytical hessian:
 * wall-time:     0 d,  0 h,  0 min,  5.006 sec
 *  cpu-time:     0 d,  0 h,  0 min,  4.980 sec
 * ratio c/w:     0.995 speedup

