
                                 *****************
                                 * O   R   C   A *
                                 *****************

                                            #,                                       
                                            ###                                      
                                            ####                                     
                                            #####                                    
                                            ######                                   
                                           ########,                                 
                                     ,,################,,,,,                         
                               ,,#################################,,                 
                          ,,##########################################,,             
                       ,#########################################, ''#####,          
                    ,#############################################,,   '####,        
                  ,##################################################,,,,####,       
                ,###########''''           ''''###############################       
              ,#####''   ,,,,##########,,,,          '''####'''          '####       
            ,##' ,,,,###########################,,,                        '##       
           ' ,,###''''                  '''############,,,                           
         ,,##''                                '''############,,,,        ,,,,,,###''
      ,#''                                            '''#######################'''  
     '                                                          ''''####''''         
             ,#######,   #######,   ,#######,      ##                                
            ,#'     '#,  ##    ##  ,#'     '#,    #''#        ,####,   ,####,        
            ##       ##  ##   ,#'  ##            #'  '#       #'       #'  '#        
            ##       ##  #######   ##           ,######,      #####,   #    #        
            '#,     ,#'  ##    ##  '#,     ,#' ,#      #,     #,   #   #,  ,#        
             '#######'   ##     ##  '#######'  #'      '#     '####' # '####'        



                #########################################################
                #                        -***-                          #
                #          Department of theory and spectroscopy        #
                #                                                       #
                #                      Frank Neese                      #
                #                                                       #
                #     Directorship, Architecture, Infrastructure        #
                #                    SHARK, DRIVERS                     #
                #        Core code/Algorithms in most modules           #
                #                                                       #
                #        Max Planck Institute fuer Kohlenforschung      #
                #                Kaiser Wilhelm Platz 1                 #
                #                 D-45470 Muelheim/Ruhr                 #
                #                      Germany                          #
                #                                                       #
                #                  All rights reserved                  #
                #                        -***-                          #
                #########################################################


                         Program Version 6.0.0  -   RELEASE  -


 With contributions from (in alphabetic order):
   Daniel Aravena         : Magnetic Suceptibility
   Michael Atanasov       : Ab Initio Ligand Field Theory (pilot matlab implementation)
   Alexander A. Auer      : GIAO ZORA, VPT2 properties, NMR spectrum
   Ute Becker             : All parallelization in ORCA, NUMFREQ, NUMCALC
   Giovanni Bistoni       : ED, misc. LED, open-shell LED, HFLD
   Martin Brehm           : Molecular dynamics
   Dmytro Bykov           : pre 5.0 version of the SCF Hessian
   Marcos Casanova-Páez   : Triplet and SCS-CIS(D). UHF-(DLPNO)-IP/EA/STEOM-CCSD. UHF-CVS-IP/STEOM-CCSD
   Vijay G. Chilkuri      : MRCI spin determinant printing, contributions to CSF-ICE
   Pauline Colinet        : FMM embedding
   Dipayan Datta          : RHF DLPNO-CCSD density
   Achintya Kumar Dutta   : EOM-CC, STEOM-CC
   Nicolas Foglia         : Exact transition moments, OPA infrastructure, MCD improvements
   Dmitry Ganyushin       : Spin-Orbit,Spin-Spin,Magnetic field MRCI
   Miquel Garcia          : C-PCM and meta-GGA Hessian, CCSD/C-PCM, Gaussian charge scheme
   Tiago L. C. Gouveia    : GS-ROHF, GS-ROCIS
   Yang Guo               : DLPNO-NEVPT2, F12-NEVPT2, CIM, IAO-localization
   Andreas Hansen         : Spin unrestricted coupled pair/coupled cluster methods
   Ingolf Harden          : AUTO-CI MPn and infrastructure 
   Benjamin Helmich-Paris : MC-RPA, TRAH-(SCF,CASSCF), AVAS, COSX integrals, SCF dyn. polar.
   Lee Huntington         : MR-EOM, pCC
   Robert Izsak           : Overlap fitted RIJCOSX, COSX-SCS-MP3, EOM
   Riya Kayal             : Wick's Theorem for AUTO-CI, AUTO-CI UHF-CCSDT
   Emily Kempfer          : AUTO-CI, RHF CISDT and CCSDT
   Christian Kollmar      : KDIIS, OOCD, Brueckner-CCSD(T), CCSD density, CASPT2, CASPT2-K, improved NEVPT2
   Axel Koslowski         : Symmetry handling
   Simone Kossmann        : Meta GGA functionals, TD-DFT gradient, OOMP2, (MP2 Hessian; deprecated post 5.0)
   Lucas Lang             : DCDCAS
   Marvin Lechner         : AUTO-CI (C++ implementation), FIC-MRCC
   Spencer Leger          : CASSCF response
   Dagmar Lenk            : GEPOL surface, SMD, ORCA-2-JSON
   Dimitrios Liakos       : Extrapolation schemes; Compound Job, initial MDCI parallelization
   Dimitrios Manganas     : Further ROCIS development; embedding schemes. LFT, Crystal Embedding
   Dimitrios Pantazis     : SARC Basis sets
   Anastasios Papadopoulos: AUTO-CI, single reference methods and gradients
   Taras Petrenko         : pre 6.0 DFT Hessian and TD-DFT gradient, (ASA, deprecated), ECA, 1-Electron XAS/XES, NRVS
   Peter Pinski           : DLPNO-MP2, DLPNO-MP2 Gradient
   Christoph Reimann      : Effective Core Potentials
   Marius Retegan         : Local ZFS, SOC
   Christoph Riplinger    : Optimizer, TS searches, QM/MM, DLPNO-CCSD(T), (RO)-DLPNO pert. Triples
   Michael Roemelt        : Original ROCIS implementation
   Masaaki Saitow         : Open-shell DLPNO-CCSD energy and density
   Barbara Sandhoefer     : DKH picture change effects
   Kantharuban Sivalingam : CASSCF convergence/infrastructure, NEVPT2 and variants, FIC-MRCI
   Bernardo de Souza      : ESD, SOC TD-DFT
   Georgi Stoychev        : AutoAux, RI-MP2 NMR, DLPNO-MP2 response, X2C
   Van Anh Tran           : RI-MP2 g-tensors
   Willem Van den Heuvel  : Paramagnetic NMR
   Zikuan Wang            : NOTCH, Electric field optimization 
   Frank Wennmohs         : Technical directorship and infrastructure
   Hang Xu                : AUTO-CI-Response properties 


 We gratefully acknowledge several colleagues who have allowed us to
 interface, adapt or use parts of their codes:
   Stefan Grimme, W. Hujo, H. Kruse, P. Pracht,  : VdW corrections, initial TS optimization,
                  C. Bannwarth, S. Ehlert,         DFT functionals, gCP, sTDA/sTD-DF
                  L. Wittmann, M. Mueller
   Ed Valeev, F. Pavosevic, A. Kumar             : LibInt (2-el integral package), F12 methods
   Garnet Chan, S. Sharma, J. Yang, R. Olivares  : DMRG
   Ulf Ekstrom                                   : XCFun DFT Library
   Mihaly Kallay                                 : mrcc  (arbitrary order and MRCC methods)
   Frank Weinhold                                : gennbo (NPA and NBO analysis)
   Simon Mueller                                 : openCOSMO-RS
   Christopher J. Cramer and Donald G. Truhlar   : smd solvation model
   Lars Goerigk                                  : TD-DFT with DH, B97 family of functionals
   V. Asgeirsson, H. Jonsson                     : NEB implementation
   FAccTs GmbH                                   : IRC, NEB, NEB-TS, DLPNO-Multilevel, CI-OPT
                                                   MM, QMMM, 2- and 3-layer-ONIOM, Crystal-QMMM,
                                                   LR-CPCM, SF, NACMEs, symmetry and pop. for TD-DFT,
                                                   nearIR, NL-DFT gradient (VV10), updates on ESD,
                                                   ML-optimized integration grids, MBIS, APM,
                                                   GOAT, DOCKER, SOLVATOR, interface openCOSMO-RS
   S Lehtola, MJT Oliveira, MAL Marques          : LibXC Library
   Liviu Ungur et al                             : ANISO software


 Your calculation uses the libint2 library for the computation of 2-el integrals
 For citations please refer to: http://libint.valeyev.net

 Your ORCA version has been built with support for libXC version: 6.2.2
 For citations please refer to: https://libxc.gitlab.io

 This ORCA versions uses:
   CBLAS   interface :  Fast vector & matrix operations
   LAPACKE interface :  Fast linear algebra routines
   SCALAPACK package :  Parallel linear algebra routines
   Shared memory     :  Shared parallel matrices
   BLAS/LAPACK       :  OpenBLAS 0.3.27  USE64BITINT DYNAMIC_ARCH NO_AFFINITY SkylakeX SINGLE_THREADED
        Core in use  :  SkylakeX
   Copyright (c) 2011-2014, The OpenBLAS Project


Your calculation utilizes the geometrical counterpoise correction gCP
Please cite in your paper:
H.Kruse, S. Grimme J.Chem.Phys., 136, (2012), 154101 
   

Your calculation utilizes the atom-pairwise dispersion correction
based on EEQ partial charges (D4)


================================================================================

----- Orbital basis set information -----
Your calculation utilizes the basis: def2-mTZVPP
   Stefan Grimme, Andreas Hansen, Sebastian Ehlert, and Jan-Michael Mewes 
   J. Chem. Phys. 154, 064103 (2021). DOI: 10.1063/5.0040021

----- AuxJ basis set information -----
Your calculation utilizes the auxiliary basis: def2/J
   F. Weigend, Phys. Chem. Chem. Phys. 8, 1057 (2006).

================================================================================
                                        WARNINGS
                       Please study these warnings very carefully!
================================================================================

Using LibXC functional ID 497 : Re-regularized SCAN exchange by Furness et al
[ 1]  J. W. Furness, A. D. Kaplan, J. Ning, J. P. Perdew, and J. Sun.,  J. Phys. Chem. Lett. 11, 8208-8215 (2020)
[ 2]  J. W. Furness, A. D. Kaplan, J. Ning, J. P. Perdew, and J. Sun.,  J. Phys. Chem. Lett. 11, 9248-9248 (2020)
Using LibXC functional ID 498 : Re-regularized SCAN correlation by Furness et al
[ 1]  J. W. Furness, A. D. Kaplan, J. Ning, J. P. Perdew, and J. Sun.,  J. Phys. Chem. Lett. 11, 8208-8215 (2020)
[ 2]  J. W. Furness, A. D. Kaplan, J. Ning, J. P. Perdew, and J. Sun.,  J. Phys. Chem. Lett. 11, 9248-9248 (2020)
Using LibXC functional ID 497 : Re-regularized SCAN exchange by Furness et al
[ 1]  J. W. Furness, A. D. Kaplan, J. Ning, J. P. Perdew, and J. Sun.,  J. Phys. Chem. Lett. 11, 8208-8215 (2020)
[ 2]  J. W. Furness, A. D. Kaplan, J. Ning, J. P. Perdew, and J. Sun.,  J. Phys. Chem. Lett. 11, 9248-9248 (2020)
Using LibXC functional ID 498 : Re-regularized SCAN correlation by Furness et al
[ 1]  J. W. Furness, A. D. Kaplan, J. Ning, J. P. Perdew, and J. Sun.,  J. Phys. Chem. Lett. 11, 8208-8215 (2020)
[ 2]  J. W. Furness, A. D. Kaplan, J. Ning, J. P. Perdew, and J. Sun.,  J. Phys. Chem. Lett. 11, 9248-9248 (2020)

================================================================================
                                       INPUT FILE
================================================================================
NAME = sp_gas.inp
|  1> ! r2scan-3c def2/J RI DEFGRID2 scfconv6 printgap
|  2> %output
|  3>     printlevel normal
|  4> end
|  5> * xyz 0 1
|  6> C 2.1877856953 1.1136091239 -0.5478402096
|  7> C 1.1984666495 0.2902302242 0.2728084121
|  8> C 1.8495688875 -1.0218795921 0.7160743642
|  9> N 0.0265934287 -0.0027561262 -0.5441036277
| 10> C -1.2055297641 -0.3164137839 0.1638126204
| 11> C -2.1497590256 -1.0255305981 -0.8069162224
| 12> C -1.8961386258 0.9134931236 0.7700857572
| 13> H 1.7549810402 2.0734943803 -0.8228670575
| 14> H 3.0925897434 1.2958485307 0.0255487026
| 15> H 2.4487805464 0.5747973289 -1.45492479
| 16> H 0.9310345043 0.8683264956 1.177903677
| 17> H 2.1267620492 -1.6032403282 -0.1584673171
| 18> H 1.1632764846 -1.6114096001 1.3176780113
| 19> H 2.7383858903 -0.8180417211 1.3069992632
| 20> H -0.1492171403 0.7634030711 -1.1861164229
| 21> H -0.9486481927 -1.0099852316 0.971977823
| 22> H -3.0512622996 -1.3461913509 -0.2923433122
| 23> H -2.4282986428 -0.3540422234 -1.6156388907
| 24> H -1.6559703731 -1.8932008363 -1.2336187502
| 25> H -1.2317044645 1.4327368903 1.4579061005
| 26> H -2.7864369552 0.6144781694 1.3165671491
| 27> H -2.1878621421 1.6053606535 -0.0183119466
| 28> *
| 29> 
| 30>                          ****END OF INPUT****
================================================================================

                       ****************************
                       * Single Point Calculation *
                       ****************************

---------------------------------
CARTESIAN COORDINATES (ANGSTROEM)
---------------------------------
  C      2.187786    1.113609   -0.547840
  C      1.198467    0.290230    0.272808
  C      1.849569   -1.021880    0.716074
  N      0.026593   -0.002756   -0.544104
  C     -1.205530   -0.316414    0.163813
  C     -2.149759   -1.025531   -0.806916
  C     -1.896139    0.913493    0.770086
  H      1.754981    2.073494   -0.822867
  H      3.092590    1.295849    0.025549
  H      2.448781    0.574797   -1.454925
  H      0.931035    0.868326    1.177904
  H      2.126762   -1.603240   -0.158467
  H      1.163276   -1.611410    1.317678
  H      2.738386   -0.818042    1.306999
  H     -0.149217    0.763403   -1.186116
  H     -0.948648   -1.009985    0.971978
  H     -3.051262   -1.346191   -0.292343
  H     -2.428299   -0.354042   -1.615639
  H     -1.655970   -1.893201   -1.233619
  H     -1.231704    1.432737    1.457906
  H     -2.786437    0.614478    1.316567
  H     -2.187862    1.605361   -0.018312

----------------------------
CARTESIAN COORDINATES (A.U.)
----------------------------
  NO LB      ZA    FRAG     MASS         X           Y           Z
   0 C     6.0000    0    12.011    4.134316    2.104416   -1.035268
   1 C     6.0000    0    12.011    2.264774    0.548456    0.515533
   2 C     6.0000    0    12.011    3.495179   -1.931073    1.353184
   3 N     7.0000    0    14.007    0.050254   -0.005208   -1.028207
   4 C     6.0000    0    12.011   -2.278121   -0.597935    0.309561
   5 C     6.0000    0    12.011   -4.062456   -1.937972   -1.524851
   6 C     6.0000    0    12.011   -3.583183    1.726252    1.455251
   7 H     1.0000    0     1.008    3.316434    3.918337   -1.554993
   8 H     1.0000    0     1.008    5.844148    2.448799    0.048280
   9 H     1.0000    0     1.008    4.627525    1.086210   -2.749409
  10 H     1.0000    0     1.008    1.759400    1.640899    2.225915
  11 H     1.0000    0     1.008    4.018998   -3.029685   -0.299460
  12 H     1.0000    0     1.008    2.198274   -3.045123    2.490051
  13 H     1.0000    0     1.008    5.174799   -1.545875    2.469871
  14 H     1.0000    0     1.008   -0.281980    1.442623   -2.241435
  15 H     1.0000    0     1.008   -1.792685   -1.908595    1.836772
  16 H     1.0000    0     1.008   -5.766050   -2.543933   -0.552449
  17 H     1.0000    0     1.008   -4.588819   -0.669043   -3.053115
  18 H     1.0000    0     1.008   -3.129330   -3.577631   -2.331202
  19 H     1.0000    0     1.008   -2.327584    2.707480    2.755043
  20 H     1.0000    0     1.008   -5.265603    1.161195    2.487951
  21 H     1.0000    0     1.008   -4.134460    3.033692   -0.034605

--------------------------------
INTERNAL COORDINATES (ANGSTROEM)
--------------------------------
 C      0   0   0     0.000000000000     0.00000000     0.00000000
 C      1   0   0     1.526489157234     0.00000000     0.00000000
 C      2   1   0     1.530376097125   110.02576741     0.00000000
 N      2   1   3     1.458243164880   109.14939125   239.96592786
 C      4   2   1     1.455216170469   116.82104100   202.56111517
 C      5   4   2     1.528636660786   108.30425280   198.46791175
 C      5   4   2     1.535310625698   113.59643832    75.75039819
 H      1   2   3     1.088273560276   110.72441039   183.11259500
 H      1   2   3     1.086580144988   110.27036647   303.15102800
 H      1   2   3     1.086848148883   109.68887546    63.05459185
 H      2   1   3     1.106757737645   108.33118352   118.20174231
 H      3   2   1     1.086112105955   109.52908362   298.61213889
 H      3   2   1     1.086494289361   110.90692426   178.93448396
 H      3   2   1     1.086617586080   110.16263040    58.79211047
 H      4   2   1     1.014933348048   109.99278944   327.31199621
 H      5   4   2     1.095518365653   107.26491046   315.55487516
 H      6   5   4     1.086423835955   110.40776122   175.51859928
 H      6   5   4     1.087434278441   110.12309738   295.66228903
 H      6   5   4     1.085704344113   109.83878022    55.12757264
 H      7   5   4     1.088202034834   110.92761359   302.13758144
 H      7   5   4     1.086592366005   110.28632643   182.17606712
 H      7   5   4     1.088739743120   110.09888741    62.30788501

---------------------------
INTERNAL COORDINATES (A.U.)
---------------------------
 C      0   0   0     0.000000000000     0.00000000     0.00000000
 C      1   0   0     2.884646453572     0.00000000     0.00000000
 C      2   1   0     2.891991705465   110.02576741     0.00000000
 N      2   1   3     2.755680218286   109.14939125   239.96592786
 C      4   2   1     2.749960027839   116.82104100   202.56111517
 C      5   4   2     2.888704647157   108.30425280   198.46791175
 C      5   4   2     2.901316613068   113.59643832    75.75039819
 H      1   2   3     2.056538987709   110.72441039   183.11259500
 H      1   2   3     2.053338896584   110.27036647   303.15102800
 H      1   2   3     2.053845350549   109.68887546    63.05459185
 H      2   1   3     2.091469020747   108.33118352   118.20174231
 H      3   2   1     2.052454430992   109.52908362   298.61213889
 H      3   2   1     2.053176652962   110.90692426   178.93448396
 H      3   2   1     2.053409649994   110.16263040    58.79211047
 H      4   2   1     1.917946071995   109.99278944   327.31199621
 H      5   4   2     2.070229685765   107.26491046   315.55487516
 H      6   5   4     2.053043515319   110.40776122   175.51859928
 H      6   5   4     2.054952974893   110.12309738   295.66228903
 H      6   5   4     2.051683872783   109.83878022    55.12757264
 H      7   5   4     2.056403824212   110.92761359   302.13758144
 H      7   5   4     2.053361990959   110.28632643   182.17606712
 H      7   5   4     2.057419945613   110.09888741    62.30788501

---------------------
BASIS SET INFORMATION
---------------------
There are 3 groups of distinct atoms

 Group   1 Type C   : 11s6p1d contracted to 5s3p1d pattern {62111/411/1}
 Group   2 Type N   : 11s6p2d contracted to 5s3p2d pattern {62111/411/11}
 Group   3 Type H   : 4s1p contracted to 2s1p pattern {31/1}

Atom   0C    basis set group =>   1
Atom   1C    basis set group =>   1
Atom   2C    basis set group =>   1
Atom   3N    basis set group =>   2
Atom   4C    basis set group =>   1
Atom   5C    basis set group =>   1
Atom   6C    basis set group =>   1
Atom   7H    basis set group =>   3
Atom   8H    basis set group =>   3
Atom   9H    basis set group =>   3
Atom  10H    basis set group =>   3
Atom  11H    basis set group =>   3
Atom  12H    basis set group =>   3
Atom  13H    basis set group =>   3
Atom  14H    basis set group =>   3
Atom  15H    basis set group =>   3
Atom  16H    basis set group =>   3
Atom  17H    basis set group =>   3
Atom  18H    basis set group =>   3
Atom  19H    basis set group =>   3
Atom  20H    basis set group =>   3
Atom  21H    basis set group =>   3
---------------------------------
AUXILIARY/J BASIS SET INFORMATION
---------------------------------
There are 3 groups of distinct atoms

 Group   1 Type C   : 12s5p4d2f1g contracted to 6s4p3d1f1g pattern {711111/2111/211/2/1}
 Group   2 Type N   : 12s5p4d2f1g contracted to 6s4p3d1f1g pattern {711111/2111/211/2/1}
 Group   3 Type H   : 5s2p1d contracted to 3s1p1d pattern {311/2/1}

Atom   0C    basis set group =>   1
Atom   1C    basis set group =>   1
Atom   2C    basis set group =>   1
Atom   3N    basis set group =>   2
Atom   4C    basis set group =>   1
Atom   5C    basis set group =>   1
Atom   6C    basis set group =>   1
Atom   7H    basis set group =>   3
Atom   8H    basis set group =>   3
Atom   9H    basis set group =>   3
Atom  10H    basis set group =>   3
Atom  11H    basis set group =>   3
Atom  12H    basis set group =>   3
Atom  13H    basis set group =>   3
Atom  14H    basis set group =>   3
Atom  15H    basis set group =>   3
Atom  16H    basis set group =>   3
Atom  17H    basis set group =>   3
Atom  18H    basis set group =>   3
Atom  19H    basis set group =>   3
Atom  20H    basis set group =>   3
Atom  21H    basis set group =>   3

Checking for AutoStart:
The File: sp_gas.gbw exists
Trying to determine its content:
     ... Fine, the file contains calculation information
     ... Fine, the calculation information was read
     ... Fine, the file contains a basis set
     ... Fine, the basis set was read
     ... Fine, the file contains a geometry
     ... Fine, the geometry was read
     ... Fine, the file contains a set of orbitals
     ... Fine, the orbitals can be read
     => possible old guess file was deleted
     => GBW file was renamed to GES file
     => GES file is set as startup file
     => Guess is set to MORead
     ... now leaving AutoStart

------------------------------------------------------------------------------
                             ORCA STARTUP CALCULATIONS
                           -- RI-GTO INTEGRALS CHOSEN --
------------------------------------------------------------------------------
------------------------------------------------------------------------------
                   ___                                                        
                  /   \      - P O W E R E D   B Y -                         
                 /     \                                                     
                 |  |  |   _    _      __       _____    __    __             
                 |  |  |  | |  | |    /  \     |  _  \  |  |  /  |          
                  \  \/   | |  | |   /    \    | | | |  |  | /  /          
                 / \  \   | |__| |  /  /\  \   | |_| |  |  |/  /          
                |  |  |   |  __  | /  /__\  \  |    /   |      \           
                |  |  |   | |  | | |   __   |  |    \   |  |\   \          
                \     /   | |  | | |  |  |  |  | |\  \  |  | \   \       
                 \___/    |_|  |_| |__|  |__|  |_| \__\ |__|  \__/        
                                                                              
                      - O R C A' S   B I G   F R I E N D -                    
                                      &                                       
                       - I N T E G R A L  F E E D E R -                       
                                                                              
 v1 FN, 2020, v2 2021, v3 2022-2024                                           
------------------------------------------------------------------------------


----------------------
SHARK INTEGRAL PACKAGE
----------------------

Number of atoms                             ...     22
Number of basis functions                   ...    213
Number of shells                            ...    109
Maximum angular momentum                    ...      2
Integral batch strategy                     ... SHARK/LIBINT Hybrid
RI-J (if used) integral strategy            ... SPLIT-RIJ (Revised 2003 algorithm where possible)
Printlevel                                  ...      1
Contraction scheme used                     ... SEGMENTED contraction
Prescreening option                         ... SCHWARTZ
   Thresh                                   ... 1.000e-10
   Tcut                                     ... 1.000e-11
   Tpresel                                  ... 1.000e-11 
Coulomb Range Separation                    ... NOT USED
Exchange Range Separation                   ... NOT USED
Multipole approximations                    ... NOT USED
Finite Nucleus Model                        ... NOT USED
CABS basis                                  ... NOT available
Auxiliary Coulomb fitting basis             ... AVAILABLE
   # of basis functions in Aux-J            ...    508
   # of shells in Aux-J                     ...    180
   Maximum angular momentum in Aux-J        ...      4
Auxiliary J/K fitting basis                 ... NOT available
Auxiliary Correlation fitting basis         ... NOT available
Auxiliary 'external' fitting basis          ... NOT available

Checking pre-screening integrals            ... done (  0.0 sec) Dimension = 109
Check shell pair data                       ... done (  0.0 sec)
Shell pair information
Shell pair cut-off parameter TPreSel        ...   1.0e-11
Total number of shell pairs                 ...      5995
Shell pairs after pre-screening             ...      5428
Total number of primitive shell pairs       ...     20702
Primitive shell pairs kept                  ...     13541
          la=0 lb=0:   1935 shell pairs
          la=1 lb=0:   2106 shell pairs
          la=1 lb=1:    605 shell pairs
          la=2 lb=0:    480 shell pairs
          la=2 lb=1:    267 shell pairs
          la=2 lb=2:     35 shell pairs

Calculating one electron integrals          ... done (  0.0 sec)
Calculating RI/J V-Matrix + Cholesky decomp.... done (  0.1 sec)
Calculating Nuclear repulsion               ... done (  0.0 sec) ENN=    335.958048459459 Eh

Diagonalization of the overlap matrix:
Smallest eigenvalue                        ... 2.316e-04
Time for diagonalization                   ...    0.010 sec
Threshold for overlap eigenvalues          ... 1.000e-07
Number of eigenvalues below threshold      ... 0
Time for construction of square roots      ...    0.021 sec
Total time needed                          ...    0.043 sec

-------------------
DFT GRID GENERATION
-------------------

General Integration Accuracy     IntAcc      ... 4.388
Radial Grid Type                 RadialGrid  ... OptM3 with GC (2021)
Angular Grid (max. ang.)         AngularGrid ... 4 (Lebedev-302)
Angular grid pruning method      GridPruning ... 4 (adaptive)
Weight generation scheme         WeightScheme... mBecke (2022)
Basis function cutoff            BFCut       ... 1.0000e-10
Integration weight cutoff        WCut        ... 1.0000e-14
Partially contracted basis set               ... off
Rotationally invariant grid construction     ... off
Angular grids for H and He will be reduced by one unit

Total number of grid points                  ...    90009
Total number of batches                      ...     1418
Average number of points per batch           ...       63
Average number of grid points per atom       ...     4091
Initializing property integral containers    ... done (  0.0 sec)

SHARK setup successfully completed in   1.3 seconds

Maximum memory used throughout the entire STARTUP-calculation: 38.6 MB
-------------------------------------------------------------------------------
                                 ORCA GUESS
                   Start orbitals & Density for SCF / CASSCF
-------------------------------------------------------------------------------

------------
SCF SETTINGS
------------
Hamiltonian:
 Density Functional     Method          .... DFT(GTOs)
  Functional kind                       .... Exchange
  Functional name                       .... Re-regularized SCAN exchange by Furness et al
  Functional family                     .... MGGA
  Functional refs                              
    [ 0] J. W. Furness, A. D. Kaplan, J. Ning, J. P. Perdew, and J. Sun.,  J. Phys. Chem. Lett. 11, 8208-8215 (2020), doi: 10.1021/acs.jpclett.0c02405
    [ 1] J. W. Furness, A. D. Kaplan, J. Ning, J. P. Perdew, and J. Sun.,  J. Phys. Chem. Lett. 11, 9248-9248 (2020), doi: 10.1021/acs.jpclett.0c03077
  Functional external parameters        .... 6
    Parameter  0 _c1        =  6.670000e-01 : c1 parameter        
    Parameter  1 _c2        =  8.000000e-01 : c2 parameter        
    Parameter  2 _d         =  1.240000e+00 : d parameter         
    Parameter  3 _k1        =  6.500000e-02 : k1 parameter        
    Parameter  4 _eta       =  1.000000e-03 : eta parameter       
    Parameter  5 _dp2       =  3.610000e-01 : dp2 parameter       
  Functional kind                       .... Correlation
  Functional name                       .... Re-regularized SCAN correlation by Furness et al
  Functional family                     .... MGGA
  Functional refs                              
    [ 0] J. W. Furness, A. D. Kaplan, J. Ning, J. P. Perdew, and J. Sun.,  J. Phys. Chem. Lett. 11, 8208-8215 (2020), doi: 10.1021/acs.jpclett.0c02405
    [ 1] J. W. Furness, A. D. Kaplan, J. Ning, J. P. Perdew, and J. Sun.,  J. Phys. Chem. Lett. 11, 9248-9248 (2020), doi: 10.1021/acs.jpclett.0c03077
  Functional external parameters        .... 1
    Parameter  0 _eta       =  1.000000e-03 : Regularization parameter
 Gradients option       PostSCFGGA      .... off
 RI-approximation to the Coulomb term is turned on
   Number of AuxJ basis functions       .... 508


General Settings:
 Integral files         IntName         .... sp_gas
 Hartree-Fock type      HFTyp           .... RHF
 Total Charge           Charge          ....    0
 Multiplicity           Mult            ....    1
 Number of Electrons    NEL             ....   58
 Basis Dimension        Dim             ....  213
 Nuclear Repulsion      ENuc            ....    335.9580484595 Eh

Convergence Acceleration:
 AO-DIIS                CNVDIIS         .... on
   Start iteration      DIISMaxIt       ....    12
   Startup error        DIISStart       ....  0.200000
   # of expansion vecs  DIISMaxEq       ....     5
   Bias factor          DIISBfac        ....   1.050
   Max. coefficient     DIISMaxC        ....  10.000
 MO-DIIS                CNVKDIIS        .... off
 Trust-Rad. Augm. Hess. CNVTRAH         .... auto
   Auto Start mean grad. ratio tolernc. ....  1.125000
   Auto Start start iteration           ....     1
   Auto Start num. interpolation iter.  ....    10
   Max. Number of Micro iterations      ....    24
   Max. Number of Macro iterations      .... Maxiter - #DIIS iter
   Number of Davidson start vectors     ....     2
   Converg. threshold    (grad. norm)   ....   3.330e-04
   Grad. Scal. Fac. for Micro threshold ....   0.100
   Minimum threshold for Micro iter.    ....   1.000e-02
   NR start threshold (gradient norm)   ....   1.000e-04
   Initial trust radius                 ....   0.400
   Minimum AH scaling param. (alpha)    ....   1.000
   Maximum AH scaling param. (alpha)    .... 1000.000
   Quad. conv. algorithm                .... NR
   White noise on init. David. guess    .... on
   Maximum white noise                  ....   0.010
   Pseudo random numbers                .... off
   Inactive MOs                         .... canonical
   Orbital update algorithm             .... Taylor
   Preconditioner                       .... Diag
   Full preconditioner red. dimension   ....   250
   COSX micro iterations for RIJONX calc.... off
 SOSCF                  CNVSOSCF        .... on
   Start iteration      SOSCFMaxIt      ....   150
   Startup grad/error   SOSCFStart      ....  0.003300
   Hessian update       SOSCFHessUp     .... L-BFGS
 Level Shifting         CNVShift        .... on
   Level shift para.    LevelShift      ....    0.2500
   Turn off err/grad.   ShiftErr        ....    0.0010
 Zerner damping         CNVZerner       .... off
 Static damping         CNVDamp         .... on
   Fraction old density DampFac         ....    0.7000
   Max. Damping (<1)    DampMax         ....    0.9800
   Min. Damping (>=0)   DampMin         ....    0.0000
   Turn off err/grad.   DampErr         ....    0.1000

SCF Procedure:
 Maximum # iterations   MaxIter         ....   125
 SCF integral mode      SCFMode         .... Direct
   Integral package                     .... SHARK and LIBINT hybrid scheme
 Reset frequency        DirectResetFreq ....    20
 Integral Threshold     Thresh          ....  1.000e-10 Eh
 Primitive CutOff       TCut            ....  1.000e-11 Eh

Convergence Tolerance:
 Convergence Check Mode ConvCheckMode   .... Total+1el-Energy
 Convergence forced     ConvForced      .... 0
 Energy Change          TolE            ....  1.000e-06 Eh
 1-El. energy change                    ....  1.000e-03 Eh
 Orbital Gradient       TolG            ....  3.330e-04
 Orbital Rotation angle TolX            ....  3.330e-04
 DIIS Error             TolErr          ....  1.000e-06

---------------------
INITIAL GUESS: MOREAD
---------------------
Guess MOs are being read from file: sp_gas.ges
Input Geometry matches current geometry (good)
Atom 0: N(Shells)= 9 and 6 - projection required
Input basis set needs projection
NBasis(read)= 128
NBasis(calc)= 213
Basis set overlap was calculated
Using GuessMode=FMatrix for the initial guess
C*T matrix was formed
Effective Fockian was calculated
Effective Fockian was diagonalized
Initial density was built
                      ------------------
                      INITIAL GUESS DONE (   0.0 sec)
                      ------------------
             **** ENERGY FILE WAS UPDATED (sp_gas.en.tmp) ****
Finished Guess after   0.3 sec
Maximum memory used throughout the entire GUESS-calculation: 14.7 MB

-------------------------------------------------------------------------------------------
                                      ORCA LEAN-SCF
                              memory conserving SCF solver
-------------------------------------------------------------------------------------------

----------------------------------------D-I-I-S--------------------------------------------
Iteration    Energy (Eh)           Delta-E    RMSDP     MaxDP     DIISErr   Damp  Time(sec)
-------------------------------------------------------------------------------------------
               ***  Starting incremental Fock matrix formation  ***
    1    -292.1643342600667097     0.00e+00  3.43e-03  9.90e-02  4.35e-01  0.700   2.7
    2    -292.2128377968030577    -4.85e-02  2.83e-03  7.78e-02  3.06e-01  0.700   2.8
    3    -292.2472083708578907    -3.44e-02  2.09e-03  5.67e-02  2.14e-01  0.700   2.2
                               ***Turning on AO-DIIS***
    4    -292.2713468723194978    -2.41e-02  1.52e-03  4.06e-02  1.50e-01  0.700   2.2
    5    -292.2882822110823895    -1.69e-02  1.09e-03  2.87e-02  1.05e-01  0.700   2.2
    6    -292.3001596863318241    -1.19e-02  7.71e-04  2.02e-02  7.34e-02  0.700   2.1
    7    -292.3084861693867538    -8.33e-03  1.81e-03  4.72e-02  5.14e-02  0.000   2.1
                              *** Initializing SOSCF ***
---------------------------------------S-O-S-C-F--------------------------------------
Iteration    Energy (Eh)           Delta-E    RMSDP     MaxDP     MaxGrad    Time(sec)
--------------------------------------------------------------------------------------
    8    -292.3279541974324616    -1.95e-02  1.81e-05  5.56e-04  2.19e-04     2.4
               *** Restarting incremental Fock matrix formation ***
    9    -292.3279543792789923    -1.82e-07  1.04e-05  2.23e-04  5.16e-05     2.9
                  *** Gradient check signals convergence ***

               *****************************************************
               *                     SUCCESS                       *
               *           SCF CONVERGED AFTER   9 CYCLES          *
               *****************************************************

             **** ENERGY FILE WAS UPDATED (sp_gas.en.tmp) ****

----------------
TOTAL SCF ENERGY
----------------

Total Energy       :       -292.32795437927899 Eh           -7954.64805 eV

Components:
Nuclear Repulsion  :        335.95804845945923 Eh            9141.88326 eV
Electronic Energy  :       -628.28600283873823 Eh          -17096.53131 eV
One Electron Energy:      -1058.72276225754058 Eh          -28809.31100 eV
Two Electron Energy:        430.43675941880235 Eh           11712.77969 eV

Virial components:
Potential Energy   :       -583.30479241994908 Eh          -15872.53035 eV
Kinetic Energy     :        290.97683804067009 Eh            7917.88230 eV
Virial Ratio       :          2.00464338105984

DFT components:
N(Alpha)           :       28.999944274797 electrons
N(Beta)            :       28.999944274797 electrons
N(Total)           :       57.999888549594 electrons
E(X)               :      -43.222163384298 Eh       
E(C)               :       -1.797627517304 Eh       
E(XC)              :      -45.019790901603 Eh       

---------------
SCF CONVERGENCE
---------------

  Last Energy change         ...    1.8185e-07  Tolerance :   1.0000e-06
  Last MAX-Density change    ...    2.2259e-04  Tolerance :   1.0000e-05
  Last RMS-Density change    ...    1.0397e-05  Tolerance :   1.0000e-06
  Last DIIS Error            ...    2.1885e-04  Tolerance :   1.0000e-06
  Last Orbital Gradient      ...    5.1649e-05  Tolerance :   3.3300e-04
  Last Orbital Rotation      ...    6.7682e-05  Tolerance :   3.3300e-04


----------------
ORBITAL ENERGIES
----------------

  NO   OCC          E(Eh)            E(eV) 
   0   2.0000     -14.132438      -384.5632 
   1   2.0000     -10.055519      -273.6246 
   2   2.0000     -10.054966      -273.6095 
   3   2.0000     -10.017020      -272.5770 
   4   2.0000     -10.014305      -272.5031 
   5   2.0000     -10.010256      -272.3929 
   6   2.0000     -10.008673      -272.3498 
   7   2.0000      -0.871413       -23.7124 
   8   2.0000      -0.752055       -20.4644 
   9   2.0000      -0.692300       -18.8384 
  10   2.0000      -0.650769       -17.7083 
  11   2.0000      -0.648637       -17.6503 
  12   2.0000      -0.552395       -15.0314 
  13   2.0000      -0.535820       -14.5804 
  14   2.0000      -0.455105       -12.3840 
  15   2.0000      -0.428513       -11.6604 
  16   2.0000      -0.416819       -11.3422 
  17   2.0000      -0.395613       -10.7652 
  18   2.0000      -0.377748       -10.2790 
  19   2.0000      -0.370275       -10.0757 
  20   2.0000      -0.353969        -9.6320 
  21   2.0000      -0.352320        -9.5871 
  22   2.0000      -0.341375        -9.2893 
  23   2.0000      -0.320983        -8.7344 
  24   2.0000      -0.313435        -8.5290 
  25   2.0000      -0.305309        -8.3079 
  26   2.0000      -0.297153        -8.0860 
  27   2.0000      -0.291717        -7.9380 
  28   2.0000      -0.184345        -5.0163 
  29   0.0000       0.076625         2.0851 
  30   0.0000       0.103971         2.8292 
  31   0.0000       0.112519         3.0618 
  32   0.0000       0.121510         3.3065 
  33   0.0000       0.125462         3.4140 
  34   0.0000       0.141435         3.8486 
  35   0.0000       0.143324         3.9001 
  36   0.0000       0.146018         3.9733 
  37   0.0000       0.154878         4.2144 
  38   0.0000       0.163935         4.4609 
  39   0.0000       0.168322         4.5803 
*Only the first 10 virtual orbitals were printed.

                    ********************************
                    * MULLIKEN POPULATION ANALYSIS *
                    ********************************

-----------------------
MULLIKEN ATOMIC CHARGES
-----------------------
   0 C :   -0.498174
   1 C :    0.016175
   2 C :   -0.474829
   3 N :   -0.299812
   4 C :   -0.038543
   5 C :   -0.467268
   6 C :   -0.468915
   7 H :    0.141107
   8 H :    0.146699
   9 H :    0.161628
  10 H :    0.122193
  11 H :    0.157726
  12 H :    0.135221
  13 H :    0.142539
  14 H :    0.221307
  15 H :    0.128113
  16 H :    0.140683
  17 H :    0.139327
  18 H :    0.160664
  19 H :    0.144491
  20 H :    0.147448
  21 H :    0.142219
Sum of atomic charges:    0.0000000

--------------------------------
MULLIKEN REDUCED ORBITAL CHARGES
--------------------------------
  0 C s       :     3.353328  s :     3.353328
      pz      :     1.045031  p :     3.118225
      px      :     1.033254
      py      :     1.039940
      dz2     :     0.003939  d :     0.026620
      dxz     :     0.006583
      dyz     :     0.005701
      dx2y2   :     0.005294
      dxy     :     0.005103

  1 C s       :     3.130434  s :     3.130434
      pz      :     0.973062  p :     2.794361
      px      :     0.880210
      py      :     0.941089
      dz2     :     0.008403  d :     0.059030
      dxz     :     0.013374
      dyz     :     0.013566
      dx2y2   :     0.011021
      dxy     :     0.012667

  2 C s       :     3.335077  s :     3.335077
      pz      :     1.083586  p :     3.113417
      px      :     1.048113
      py      :     0.981718
      dz2     :     0.002165  d :     0.026335
      dxz     :     0.006443
      dyz     :     0.007391
      dx2y2   :     0.004447
      dxy     :     0.005889

  3 N s       :     3.475210  s :     3.475210
      pz      :     1.278211  p :     3.778589
      px      :     1.012446
      py      :     1.487932
      dz2     :     0.004176  d :     0.046014
      dxz     :     0.015395
      dyz     :     0.015005
      dx2y2   :     0.000394
      dxy     :     0.011044

  4 C s       :     3.167598  s :     3.167598
      pz      :     0.984322  p :     2.812048
      px      :     0.874620
      py      :     0.953106
      dz2     :     0.006390  d :     0.058898
      dxz     :     0.014712
      dyz     :     0.012866
      dx2y2   :     0.010917
      dxy     :     0.014014

  5 C s       :     3.333383  s :     3.333383
      pz      :     1.018828  p :     3.107444
      px      :     1.030104
      py      :     1.058512
      dz2     :     0.002716  d :     0.026440
      dxz     :     0.006774
      dyz     :     0.007532
      dx2y2   :     0.004156
      dxy     :     0.005262

  6 C s       :     3.327183  s :     3.327183
      pz      :     1.059480  p :     3.115506
      px      :     1.054899
      py      :     1.001128
      dz2     :     0.001601  d :     0.026226
      dxz     :     0.006665
      dyz     :     0.008152
      dx2y2   :     0.004174
      dxy     :     0.005632

  7 H s       :     0.840601  s :     0.840601
      pz      :     0.004220  p :     0.018291
      px      :     0.004620
      py      :     0.009452

  8 H s       :     0.834978  s :     0.834978
      pz      :     0.005555  p :     0.018323
      px      :     0.008891
      py      :     0.003876

  9 H s       :     0.820206  s :     0.820206
      pz      :     0.008819  p :     0.018166
      px      :     0.004004
      py      :     0.005343

 10 H s       :     0.860699  s :     0.860699
      pz      :     0.008498  p :     0.017108
      px      :     0.003219
      py      :     0.005391

 11 H s       :     0.824104  s :     0.824104
      pz      :     0.008445  p :     0.018170
      px      :     0.003995
      py      :     0.005729

 12 H s       :     0.846147  s :     0.846147
      pz      :     0.005994  p :     0.018633
      px      :     0.006587
      py      :     0.006051

 13 H s       :     0.839139  s :     0.839139
      pz      :     0.005879  p :     0.018321
      px      :     0.008654
      py      :     0.003788

 14 H s       :     0.746952  s :     0.746952
      pz      :     0.012349  p :     0.031742
      px      :     0.004969
      py      :     0.014424

 15 H s       :     0.854362  s :     0.854362
      pz      :     0.007625  p :     0.017526
      px      :     0.003287
      py      :     0.006614

 16 H s       :     0.840999  s :     0.840999
      pz      :     0.005113  p :     0.018318
      px      :     0.008829
      py      :     0.004376

 17 H s       :     0.842308  s :     0.842308
      pz      :     0.007857  p :     0.018364
      px      :     0.004271
      py      :     0.006236

 18 H s       :     0.821094  s :     0.821094
      pz      :     0.004860  p :     0.018242
      px      :     0.005149
      py      :     0.008232

 19 H s       :     0.837015  s :     0.837015
      pz      :     0.006610  p :     0.018493
      px      :     0.006408
      py      :     0.005476

 20 H s       :     0.834114  s :     0.834114
      pz      :     0.005603  p :     0.018438
      px      :     0.008696
      py      :     0.004140

 21 H s       :     0.839533  s :     0.839533
      pz      :     0.007249  p :     0.018248
      px      :     0.004267
      py      :     0.006732


------------------------
MULLIKEN OVERLAP CHARGES
------------------------
B(  0-C ,  1-C ) :   0.5116 B(  0-C ,  2-C ) :  -0.1582 B(  0-C ,  3-N ) :  -0.1499 
B(  0-C ,  7-H ) :   0.8156 B(  0-C ,  8-H ) :   0.8291 B(  0-C ,  9-H ) :   0.8633 
B(  1-C ,  2-C ) :   0.5559 B(  1-C ,  4-C ) :  -0.0872 B(  1-C ,  6-C ) :  -0.0665 
B(  1-C ,  7-H ) :  -0.0699 B(  1-C ,  8-H ) :  -0.0964 B(  1-C ,  9-H ) :  -0.1024 
B(  1-C , 10-H ) :   0.7259 B(  1-C , 11-H ) :  -0.0914 B(  1-C , 13-H ) :  -0.1262 
B(  1-C , 14-H ) :  -0.0826 B(  2-C ,  3-N ) :  -0.1197 B(  2-C , 10-H ) :  -0.0637 
B(  2-C , 11-H ) :   0.8522 B(  2-C , 12-H ) :   0.7852 B(  2-C , 13-H ) :   0.8589 
B(  3-N ,  4-C ) :   0.2040 B(  3-N ,  5-C ) :  -0.1357 B(  3-N ,  6-C ) :  -0.0981 
B(  3-N , 10-H ) :  -0.0811 B(  3-N , 14-H ) :   0.6930 B(  3-N , 15-H ) :  -0.1213 
B(  4-C ,  5-C ) :   0.5580 B(  4-C ,  6-C ) :   0.4210 B(  4-C , 14-H ) :  -0.1171 
B(  4-C , 15-H ) :   0.8331 B(  4-C , 16-H ) :  -0.1364 B(  4-C , 18-H ) :  -0.0737 
B(  4-C , 19-H ) :  -0.0695 B(  4-C , 20-H ) :  -0.0943 B(  4-C , 21-H ) :  -0.0712 
B(  5-C ,  6-C ) :  -0.1670 B(  5-C , 16-H ) :   0.8534 B(  5-C , 17-H ) :   0.8297 
B(  5-C , 18-H ) :   0.8230 B(  6-C , 15-H ) :  -0.0884 B(  6-C , 19-H ) :   0.8130 
B(  6-C , 20-H ) :   0.8270 B(  6-C , 21-H ) :   0.8412 


                     *******************************
                     * LOEWDIN POPULATION ANALYSIS *
                     *******************************

----------------------
LOEWDIN ATOMIC CHARGES
----------------------
   0 C :   -0.387617
   1 C :   -0.015757
   2 C :   -0.390003
   3 N :   -0.837898
   4 C :   -0.020159
   5 C :   -0.386695
   6 C :   -0.404072
   7 H :    0.151888
   8 H :    0.156910
   9 H :    0.160544
  10 H :    0.156061
  11 H :    0.160484
  12 H :    0.151788
  13 H :    0.150994
  14 H :    0.251634
  15 H :    0.176691
  16 H :    0.151343
  17 H :    0.152775
  18 H :    0.161667
  19 H :    0.152813
  20 H :    0.154126
  21 H :    0.152482

-------------------------------
LOEWDIN REDUCED ORBITAL CHARGES
-------------------------------
  0 C s       :     2.970179  s :     2.970179
      pz      :     1.133987  p :     3.355280
      px      :     1.103166
      py      :     1.118127
      dz2     :     0.008950  d :     0.062158
      dxz     :     0.015895
      dyz     :     0.013776
      dx2y2   :     0.012073
      dxy     :     0.011465

  1 C s       :     2.833589  s :     2.833589
      pz      :     1.032786  p :     3.055726
      px      :     0.982488
      py      :     1.040452
      dz2     :     0.018095  d :     0.126442
      dxz     :     0.029051
      dyz     :     0.029985
      dx2y2   :     0.021255
      dxy     :     0.028056

  2 C s       :     2.973776  s :     2.973776
      pz      :     1.142933  p :     3.354148
      px      :     1.120518
      py      :     1.090697
      dz2     :     0.004860  d :     0.062079
      dxz     :     0.016209
      dyz     :     0.017188
      dx2y2   :     0.010432
      dxy     :     0.013390

  3 N s       :     3.190763  s :     3.190763
      pz      :     1.366421  p :     4.090296
      px      :     1.207563
      py      :     1.516312
      dz2     :     0.086813  d :     0.556839
      dxz     :     0.141301
      dyz     :     0.102690
      dx2y2   :     0.107962
      dxy     :     0.118073

  4 C s       :     2.831229  s :     2.831229
      pz      :     1.038856  p :     3.062780
      px      :     0.983823
      py      :     1.040101
      dz2     :     0.012113  d :     0.126150
      dxz     :     0.033096
      dyz     :     0.028452
      dx2y2   :     0.021828
      dxy     :     0.030661

  5 C s       :     2.971903  s :     2.971903
      pz      :     1.117213  p :     3.352764
      px      :     1.104211
      py      :     1.131339
      dz2     :     0.005713  d :     0.062028
      dxz     :     0.016141
      dyz     :     0.018517
      dx2y2   :     0.009352
      dxy     :     0.012305

  6 C s       :     2.975943  s :     2.975943
      pz      :     1.135633  p :     3.365993
      px      :     1.123371
      py      :     1.106989
      dz2     :     0.003279  d :     0.062137
      dxz     :     0.016639
      dyz     :     0.019601
      dx2y2   :     0.009639
      dxy     :     0.012979

  7 H s       :     0.804878  s :     0.804878
      pz      :     0.009478  p :     0.043234
      px      :     0.010875
      py      :     0.022881

  8 H s       :     0.799356  s :     0.799356
      pz      :     0.013433  p :     0.043734
      px      :     0.021740
      py      :     0.008561

  9 H s       :     0.795664  s :     0.795664
      pz      :     0.021964  p :     0.043792
      px      :     0.008998
      py      :     0.012829

 10 H s       :     0.803168  s :     0.803168
      pz      :     0.019673  p :     0.040771
      px      :     0.008145
      py      :     0.012953

 11 H s       :     0.795764  s :     0.795764
      pz      :     0.020996  p :     0.043752
      px      :     0.008851
      py      :     0.013905

 12 H s       :     0.804458  s :     0.804458
      pz      :     0.013722  p :     0.043754
      px      :     0.016003
      py      :     0.014029

 13 H s       :     0.805191  s :     0.805191
      pz      :     0.013997  p :     0.043815
      px      :     0.021050
      py      :     0.008767

 14 H s       :     0.662933  s :     0.662933
      pz      :     0.032642  p :     0.085433
      px      :     0.013103
      py      :     0.039688

 15 H s       :     0.783112  s :     0.783112
      pz      :     0.016736  p :     0.040197
      px      :     0.008203
      py      :     0.015258

 16 H s       :     0.804851  s :     0.804851
      pz      :     0.012249  p :     0.043806
      px      :     0.021670
      py      :     0.009887

 17 H s       :     0.804003  s :     0.804003
      pz      :     0.018806  p :     0.043221
      px      :     0.009284
      py      :     0.015131

 18 H s       :     0.794797  s :     0.794797
      pz      :     0.011238  p :     0.043536
      px      :     0.012078
      py      :     0.020220

 19 H s       :     0.803339  s :     0.803339
      pz      :     0.015562  p :     0.043848
      px      :     0.015592
      py      :     0.012694

 20 H s       :     0.801570  s :     0.801570
      pz      :     0.013231  p :     0.044304
      px      :     0.021361
      py      :     0.009712

 21 H s       :     0.804141  s :     0.804141
      pz      :     0.017793  p :     0.043377
      px      :     0.009449
      py      :     0.016135


---------------------------------
LOEWDIN BOND ORDERS (THRESH 0.050000)
---------------------------------
B(  0-C ,  1-C ) :   1.0486 B(  0-C ,  2-C ) :   0.0709 B(  0-C ,  3-N ) :   0.1601 
B(  0-C ,  7-H ) :   0.9228 B(  0-C ,  8-H ) :   0.9193 B(  0-C ,  9-H ) :   0.9170 
B(  1-C ,  2-C ) :   1.0424 B(  1-C ,  3-N ) :   1.3119 B(  1-C ,  4-C ) :   0.0712 
B(  1-C , 10-H ) :   0.7984 B(  2-C ,  3-N ) :   0.1669 B(  2-C , 11-H ) :   0.9191 
B(  2-C , 12-H ) :   0.9195 B(  2-C , 13-H ) :   0.9205 B(  3-N ,  4-C ) :   1.3336 
B(  3-N ,  5-C ) :   0.1720 B(  3-N ,  6-C ) :   0.1540 B(  3-N , 10-H ) :   0.0975 
B(  3-N , 14-H ) :   0.8905 B(  3-N , 15-H ) :   0.0936 B(  4-C ,  5-C ) :   1.0457 
B(  4-C ,  6-C ) :   1.0416 B(  4-C , 15-H ) :   0.7940 B(  5-C ,  6-C ) :   0.0730 
B(  5-C , 16-H ) :   0.9213 B(  5-C , 17-H ) :   0.9196 B(  5-C , 18-H ) :   0.9199 
B(  6-C , 19-H ) :   0.9213 B(  6-C , 20-H ) :   0.9205 B(  6-C , 21-H ) :   0.9222 


------------------------------------------
LOEWDIN REDUCED ORBITAL POPULATIONS PER MO
-------------------------------------------
THRESHOLD FOR PRINTING IS 0.1%%
                      0         1         2         3         4         5   
                 -14.13244 -10.05552 -10.05497 -10.01702 -10.01431 -10.01026
                   2.00000   2.00000   2.00000   2.00000   2.00000   2.00000
                  --------  --------  --------  --------  --------  --------
 0 C  s               0.0       0.0       0.0      99.7       0.0       0.0
 1 C  s               0.0      99.4       0.0       0.0       0.0       0.0
 3 N  s              99.8       0.0       0.0       0.0       0.0       0.0
 3 N  dxz             0.0       0.2       0.1       0.0       0.0       0.0
 4 C  s               0.0       0.0      99.4       0.0       0.0       0.0
 5 C  s               0.0       0.0       0.0       0.0       0.0      99.7
 6 C  s               0.0       0.0       0.0       0.0      99.7       0.0

                      6         7         8         9        10        11   
                 -10.00867  -0.87141  -0.75205  -0.69230  -0.65077  -0.64864
                   2.00000   2.00000   2.00000   2.00000   2.00000   2.00000
                  --------  --------  --------  --------  --------  --------
 0 C  s               0.0       1.9       9.8       7.6      20.0       2.2
 0 C  pz              0.0       0.2       0.4       0.3       0.3       0.0
 0 C  px              0.0       1.1       0.5       0.1       0.0       0.0
 0 C  py              0.0       0.4       0.6       0.1       0.7       0.0
 1 C  s               0.0      11.5      12.8       2.7       0.0       0.0
 1 C  pz              0.0       1.6       0.2       1.1       3.8       0.4
 1 C  px              0.0       3.1       2.3       7.0       0.3       0.3
 1 C  py              0.1       0.2       0.0       0.1      11.0       0.4
 1 C  dxz             0.0       0.2       0.0       0.2       0.1       0.0
 1 C  dxy             0.0       0.0       0.0       0.0       0.2       0.0
 2 C  s              99.7       1.8       7.2       9.2      21.2       0.8
 2 C  pz              0.0       0.3       0.2       0.0       0.2       0.0
 2 C  px              0.0       0.6       0.1       0.0       0.0       0.0
 2 C  py              0.0       0.9       1.3       0.3       0.5       0.0
 3 N  s               0.0      37.7       0.0      11.3       0.0       0.0
 3 N  pz              0.0       1.3       0.0       0.8       0.4       0.4
 3 N  px              0.0       0.1       9.5       0.0       0.0       0.1
 3 N  py              0.0       0.5       0.4       0.7       1.1       0.2
 3 N  dz2             0.0       0.0       0.0       0.1       0.1       0.2
 3 N  dxz             0.0       0.0       2.0       0.0       0.3       0.1
 3 N  dx2y2           0.0       0.6       0.0       0.8       0.0       0.0
 3 N  dxy             0.0       0.2       0.0       0.1       0.3       0.8
 4 C  s               0.0      11.8      12.3       3.1       0.0       0.0
 4 C  pz              0.0       1.1       0.2       0.9       0.2       6.0
 4 C  px              0.0       3.3       2.1       7.2       0.2       0.2
 4 C  py              0.0       0.5       0.0       0.0       1.1       8.2
 4 C  dxz             0.0       0.1       0.0       0.2       0.0       0.1
 4 C  dxy             0.0       0.0       0.0       0.0       0.0       0.2
 5 C  s               0.0       1.7       8.5       8.0       0.6      21.4
 5 C  pz              0.0       0.3       0.6       0.4       0.0       0.4
 5 C  px              0.0       0.9       0.5       0.1       0.0       0.0
 5 C  py              0.0       0.4       0.5       0.1       0.1       0.4
 6 C  s               0.0       1.9       7.4       9.8       2.6      20.7
 6 C  pz              0.0       0.4       0.3       0.0       0.0       0.4
 6 C  px              0.0       0.7       0.1       0.1       0.0       0.0
 6 C  py              0.0       0.7       1.0       0.3       0.1       0.6
 7 H  s               0.0       0.2       1.4       1.2       5.4       0.6
 7 H  py              0.0       0.0       0.1       0.1       0.3       0.0
 8 H  s               0.0       0.2       1.5       1.8       4.5       0.5
 8 H  pz              0.0       0.0       0.0       0.0       0.1       0.0
 8 H  px              0.0       0.0       0.1       0.1       0.3       0.0
 9 H  s               0.0       0.2       1.4       1.4       4.5       0.5
 9 H  pz              0.0       0.0       0.1       0.1       0.3       0.0
 9 H  py              0.0       0.0       0.0       0.0       0.1       0.0
10 H  s               0.0       1.0       1.6       0.6       0.0       0.0
10 H  pz              0.0       0.1       0.1       0.0       0.0       0.0
11 H  s               0.0       0.1       1.0       1.6       4.5       0.2
11 H  pz              0.0       0.0       0.1       0.1       0.3       0.0
11 H  py              0.0       0.0       0.0       0.0       0.1       0.0
12 H  s               0.0       0.1       0.9       1.6       5.5       0.2
12 H  pz              0.0       0.0       0.0       0.0       0.1       0.0
12 H  px              0.0       0.0       0.0       0.0       0.2       0.0
12 H  py              0.0       0.0       0.0       0.0       0.1       0.0
13 H  s               0.0       0.1       1.1       2.0       4.7       0.2
13 H  pz              0.0       0.0       0.0       0.1       0.1       0.0
13 H  px              0.0       0.0       0.1       0.1       0.3       0.0
14 H  s               0.0       6.4       0.0       3.3       0.2       0.0
14 H  pz              0.0       0.4       0.0       0.2       0.0       0.0
14 H  py              0.0       0.4       0.0       0.3       0.0       0.0
15 H  s               0.0       1.1       1.6       0.8       0.1       0.0
16 H  s               0.0       0.1       1.2       1.8       0.1       4.9
16 H  px              0.0       0.0       0.1       0.1       0.0       0.3
17 H  s               0.0       0.2       1.2       1.4       0.1       4.9
17 H  pz              0.0       0.0       0.1       0.1       0.0       0.2
17 H  py              0.0       0.0       0.0       0.0       0.0       0.2
18 H  s               0.0       0.2       1.1       1.3       0.2       5.3
18 H  px              0.0       0.0       0.0       0.0       0.0       0.1
18 H  py              0.0       0.0       0.1       0.1       0.0       0.3
19 H  s               0.0       0.2       1.0       1.7       0.6       5.5
19 H  pz              0.0       0.0       0.0       0.1       0.0       0.2
19 H  px              0.0       0.0       0.0       0.0       0.0       0.2
20 H  s               0.0       0.2       1.1       2.2       0.6       4.8
20 H  px              0.0       0.0       0.1       0.1       0.0       0.3
21 H  s               0.0       0.2       1.1       1.8       0.6       4.7
21 H  pz              0.0       0.0       0.0       0.1       0.0       0.2
21 H  py              0.0       0.0       0.0       0.1       0.0       0.1

                     12        13        14        15        16        17   
                  -0.55239  -0.53582  -0.45511  -0.42851  -0.41682  -0.39561
                   2.00000   2.00000   2.00000   2.00000   2.00000   2.00000
                  --------  --------  --------  --------  --------  --------
 0 C  s               4.1       1.0       0.1       0.5       0.1       0.1
 0 C  pz              0.6       2.2       8.0       0.4       0.3       4.0
 0 C  px              3.3       0.9       0.0       3.7       3.3       0.4
 0 C  py              0.8       0.2       0.8       3.9      13.5       2.7
 1 C  s               4.7       7.8       0.5       0.5       0.6       0.0
 1 C  pz              0.1       3.5      15.1       2.1       1.1       0.0
 1 C  px              1.5       1.2       2.2       3.0       5.2       4.6
 1 C  py              0.3       0.7       6.7       0.6       5.8       0.5
 2 C  s               1.4       5.0       0.0       0.0       0.5       0.0
 2 C  pz              0.1       0.1       4.6       0.7       9.5       0.0
 2 C  px              0.5       2.8       1.2       2.2       0.1       6.0
 2 C  py              1.2       4.4       2.7       0.5       6.2       2.6
 3 N  s               0.1       2.1       0.4       0.3       0.1       0.4
 3 N  pz              0.4      13.6       0.7       7.5       0.5       6.1
 3 N  px             10.8       1.4      13.0       1.1       0.5       0.7
 3 N  py              2.9       2.4       2.2       5.7       7.2       0.1
 3 N  dz2             0.0       0.3       0.0       0.3       0.5       0.0
 3 N  dxz             1.9       0.0       0.4       0.1       0.1       0.0
 3 N  dyz             0.5       0.2       0.3       0.2       0.0       0.1
 3 N  dx2y2           0.0       0.3       0.0       0.4       1.4       0.4
 3 N  dxy             0.0       0.7       0.0       0.0       0.1       0.3
 4 C  s               9.1       2.9       0.1       1.6       0.1       0.1
 4 C  pz              0.6       5.1       5.5       0.8       6.0       0.8
 4 C  px              3.0       0.4       0.0      13.8       0.4       1.1
 4 C  py              0.9       2.4       4.3       0.0       0.2       5.8
 5 C  s               6.0       0.2       0.1       0.5       0.1       0.0
 5 C  pz              2.1       1.5       1.1       8.7       1.1       0.2
 5 C  px              4.0       0.1       0.5       0.1       2.4       3.2
 5 C  py              0.5       0.2       2.5       4.1       1.9      13.5
 6 C  s               3.0       1.0       0.2       0.4       0.1       0.2
 6 C  pz              0.2       0.2       3.1       2.2       2.4      15.5
 6 C  px              1.4       0.7       1.1       1.0       0.7       0.0
 6 C  py              2.7       1.9       0.3      11.2       1.5       0.5
 7 H  s               1.5       0.6       0.0       1.2       6.9       2.5
 7 H  py              0.1       0.0       0.0       0.0       0.1       0.1
 8 H  s               2.5       0.5       0.7       1.8       0.3       0.5
 9 H  s               1.8       1.2       2.8       0.2       1.0       0.4
10 H  s               1.7       5.9       7.3       0.2       1.5       0.0
10 H  pz              0.1       0.3       0.2       0.0       0.0       0.0
10 H  px              0.0       0.0       0.1       0.0       0.0       0.0
10 H  py              0.0       0.1       0.1       0.0       0.0       0.0
11 H  s               0.7       3.3       1.4       0.2       0.1       0.1
11 H  pz              0.0       0.2       0.0       0.0       0.0       0.0
12 H  s               0.8       1.7       0.1       1.1       5.7       2.3
12 H  px              0.0       0.1       0.0       0.0       0.1       0.0
13 H  s               0.8       2.8       1.6       0.2       1.0       2.1
14 H  s               0.4       6.8       0.9       3.3       2.0       2.2
14 H  pz              0.0       0.1       0.0       0.0       0.1       0.0
14 H  px              0.1       0.0       0.1       0.0       0.0       0.0
14 H  py              0.0       0.4       0.0       0.1       0.0       0.1
15 H  s               5.0       4.6       2.3       0.4       1.6       1.6
15 H  pz              0.2       0.2       0.0       0.0       0.0       0.0
15 H  px              0.0       0.0       0.0       0.2       0.0       0.0
15 H  py              0.1       0.1       0.0       0.0       0.0       0.0
16 H  s               3.2       0.0       0.9       0.0       2.2       0.0
16 H  px              0.1       0.0       0.0       0.0       0.1       0.0
17 H  s               3.3       0.6       0.5       0.8       0.3       3.6
17 H  pz              0.1       0.0       0.0       0.0       0.0       0.1
17 H  py              0.1       0.0       0.0       0.1       0.0       0.0
18 H  s               2.1       0.1       0.2       4.5       0.0       5.0
18 H  py              0.1       0.0       0.0       0.1       0.0       0.0
19 H  s               1.3       0.2       0.1       5.2       0.2       3.9
19 H  px              0.1       0.0       0.0       0.1       0.0       0.1
20 H  s               1.6       0.4       1.6       0.0       0.0       1.8
21 H  s               1.9       1.4       0.3       0.7       2.1       1.8
21 H  py              0.0       0.0       0.0       0.0       0.0       0.1

                     18        19        20        21        22        23   
                  -0.37775  -0.37028  -0.35397  -0.35232  -0.34137  -0.32098
                   2.00000   2.00000   2.00000   2.00000   2.00000   2.00000
                  --------  --------  --------  --------  --------  --------
 0 C  pz              0.5       1.3      16.6       2.4       4.9       5.6
 0 C  px              0.1      23.7       0.1       0.4       2.7       2.3
 0 C  py              3.9       0.2       7.4       2.0       0.1       0.4
 0 C  dz2             0.0       0.0       0.1       0.0       0.0       0.0
 0 C  dxz             0.0       0.2       0.1       0.0       0.0       0.1
 0 C  dx2y2           0.0       0.1       0.0       0.0       0.0       0.2
 0 C  dxy             0.0       0.0       0.0       0.0       0.0       0.1
 1 C  s               0.1       0.2       0.0       0.0       0.0       0.1
 1 C  pz              0.7       1.5       1.5       0.2       0.4       5.3
 1 C  px              0.0       0.8       0.3       0.0       1.3       1.1
 1 C  py              0.1       2.8       1.0       0.2       0.3       0.3
 1 C  dz2             0.0       0.0       0.2       0.0       0.0       0.0
 1 C  dxz             0.0       0.1       0.0       0.0       0.0       0.1
 1 C  dx2y2           0.1       0.1       0.0       0.0       0.2       0.2
 2 C  s               0.0       0.1       0.0       0.0       0.0       0.1
 2 C  pz              2.1       2.3      11.9       3.3       4.8       6.3
 2 C  px              4.6       0.3       5.5       0.1      25.8       0.6
 2 C  py              0.0       2.0       3.2       0.8       3.1       0.6
 2 C  dxz             0.0       0.0       0.0       0.0       0.4       0.0
 2 C  dyz             0.0       0.0       0.2       0.0       0.0       0.0
 2 C  dx2y2           0.0       0.0       0.0       0.0       0.2       0.1
 3 N  s               0.5       1.7       0.3       0.0       0.4       0.0
 3 N  pz              1.3       0.1       2.6       0.0       7.1       0.2
 3 N  px              0.0       0.0       0.1       0.0       0.0       9.2
 3 N  py              2.9       0.0       0.3       0.5       1.4       1.3
 3 N  dz2             0.1       0.8       0.1       0.0       0.0       0.0
 3 N  dxz             0.7       0.0       0.0       0.1       0.2       0.2
 3 N  dyz             0.2       0.1       0.2       0.0       0.3       0.0
 3 N  dx2y2           0.1       0.1       0.1       0.1       0.0       0.0
 3 N  dxy             0.4       0.9       0.0       0.0       0.5       0.1
 4 C  s               0.1       0.3       0.0       0.0       0.0       0.1
 4 C  pz              4.5       0.8       0.0       0.0       0.1       6.5
 4 C  px              0.4       0.3       0.4       0.0       2.0       0.5
 4 C  py              7.4       0.9       0.0       0.3       0.0       0.0
 4 C  dz2             0.0       0.0       0.1       0.1       0.0       0.0
 4 C  dx2y2           0.1       0.1       0.0       0.1       0.2       0.1
 4 C  dxy             0.0       0.0       0.0       0.0       0.0       0.1
 5 C  s               0.2       0.0       0.0       0.0       0.0       0.0
 5 C  pz              2.2       1.1       3.1      12.8       0.2      10.0
 5 C  px              6.5      15.6       2.1       0.5       0.9       3.9
 5 C  py              0.0       0.3       1.5      10.2       0.1       0.1
 5 C  dx2y2           0.0       0.0       0.0       0.0       0.0       0.2
 5 C  dxy             0.0       0.0       0.0       0.0       0.0       0.2
 6 C  pz              0.2       0.9       2.5      15.5       0.0       6.5
 6 C  px             31.6       2.5       0.2       1.1       4.5       0.0
 6 C  py              0.3       3.7       0.9       8.8       0.1       0.2
 6 C  dxz             0.1       0.1       0.0       0.1       0.0       0.0
 6 C  dyz             0.2       0.0       0.0       0.1       0.0       0.1
 6 C  dxy             0.0       0.0       0.0       0.0       0.0       0.1
 7 H  s               1.3       3.1       0.9       0.6       1.2       2.0
 7 H  pz              0.0       0.0       0.2       0.0       0.0       0.0
 7 H  py              0.0       0.1       0.0       0.0       0.0       0.0
 8 H  s               0.2      11.3       3.6       0.1       3.5       4.4
 8 H  pz              0.0       0.1       0.0       0.0       0.0       0.0
 8 H  px              0.0       0.1       0.1       0.0       0.1       0.0
 9 H  s               1.1       0.1      11.6       2.4       0.8       1.2
 9 H  pz              0.0       0.0       0.1       0.0       0.0       0.0
 9 H  px              0.0       0.2       0.0       0.0       0.0       0.0
10 H  s               0.1       0.0       0.3       0.0       0.1       2.1
11 H  s               1.4       2.4       8.8       2.1       1.1       1.8
11 H  pz              0.0       0.0       0.1       0.0       0.0       0.0
11 H  px              0.0       0.0       0.0       0.0       0.3       0.0
12 H  s               1.8       0.0       2.9       0.3       5.2       1.0
12 H  pz              0.0       0.0       0.0       0.0       0.2       0.0
12 H  py              0.0       0.0       0.2       0.0       0.0       0.0
13 H  s               0.4       0.2       0.0       0.3      18.3       2.1
13 H  pz              0.0       0.0       0.1       0.0       0.1       0.0
13 H  px              0.0       0.0       0.1       0.0       0.1       0.0
14 H  s               0.0       0.2       0.8       0.1       2.6       0.0
14 H  px              0.0       0.0       0.0       0.0       0.0       0.1
15 H  s               0.0       0.1       0.1       0.1       0.2       3.1
16 H  s               1.3       6.7       2.8       5.1       0.1       6.6
16 H  px              0.0       0.0       0.0       0.2       0.0       0.1
17 H  s               1.9       0.1       1.5       9.8       0.2       1.9
18 H  s               0.0       3.1       0.1       0.4       0.1       3.4
18 H  pz              0.0       0.0       0.0       0.1       0.0       0.0
18 H  py              0.0       0.1       0.0       0.0       0.0       0.1
19 H  s               5.0       0.8       0.4       0.1       1.2       2.1
19 H  pz              0.1       0.0       0.0       0.1       0.0       0.0
19 H  py              0.1       0.0       0.0       0.1       0.0       0.0
20 H  s               9.2       2.4       0.2       6.7       1.8       0.9
20 H  pz              0.2       0.0       0.0       0.0       0.0       0.0
20 H  px              0.0       0.0       0.0       0.2       0.0       0.0
21 H  s               2.4       1.3       1.6      10.2       0.1       2.3
21 H  px              0.1       0.0       0.0       0.1       0.0       0.0

                     24        25        26        27        28        29   
                  -0.31344  -0.30531  -0.29715  -0.29172  -0.18434   0.07663
                   2.00000   2.00000   2.00000   2.00000   2.00000   0.00000
                  --------  --------  --------  --------  --------  --------
 0 C  s               0.0       0.1       0.1       1.0       0.1       5.7
 0 C  pz              2.5       0.5       0.1       5.4       0.0       0.5
 0 C  px              1.8       0.0       4.9       5.5       0.1       1.5
 0 C  py              2.2      12.7       0.1       2.9       0.1       2.3
 0 C  dxz             0.0       0.1       0.0       0.0       0.0       0.4
 0 C  dyz             0.1       0.1       0.1       0.0       0.0       0.1
 0 C  dx2y2           0.0       0.1       0.1       0.0       0.0       0.0
 0 C  dxy             0.0       0.0       0.0       0.1       0.0       0.1
 1 C  s               0.0       0.1       0.0       0.2       0.4       3.7
 1 C  pz              2.9       0.4       0.2       8.7       0.9       2.1
 1 C  px              2.5       0.2       8.5       3.8       0.0       1.6
 1 C  py              2.7      15.8       0.1       0.9       1.6       2.7
 1 C  dz2             0.0       0.0       0.0       0.1       0.4       0.0
 1 C  dxz             0.1       0.2       0.1       0.1       0.0       0.3
 1 C  dyz             0.1       0.1       0.1       0.3       0.6       0.1
 1 C  dx2y2           0.0       0.1       0.1       0.0       0.1       0.0
 1 C  dxy             0.0       0.1       0.0       0.4       0.3       0.0
 2 C  s               0.0       0.6       0.0       0.0       0.8       5.1
 2 C  pz              2.7       0.5       0.8       6.5       0.4       0.6
 2 C  px              0.2       0.4       1.7       2.6       0.6       0.1
 2 C  py              4.4      15.7       1.1       1.3       1.6       0.8
 2 C  dxz             0.1       0.1       0.0       0.0       0.0       0.0
 2 C  dyz             0.1       0.0       0.0       0.3       0.0       0.0
 2 C  dx2y2           0.0       0.0       0.1       0.0       0.0       0.3
 2 C  dxy             0.0       0.1       0.0       0.2       0.0       0.2
 3 N  s               0.3       0.0       0.1       0.1       3.9       4.3
 3 N  pz              2.0       0.3       0.9       2.6      19.1       2.1
 3 N  px              1.3       0.6       6.8       1.5       3.4       0.1
 3 N  py              2.8       0.0       0.0       1.5      41.8       1.5
 3 N  dz2             0.1       0.0       0.3       1.0       0.4       0.1
 3 N  dxz             0.0       0.0       0.2       0.2       0.3       0.0
 3 N  dyz             0.6       0.0       1.1       0.4       0.8       0.8
 3 N  dx2y2           0.0       0.1       0.2       0.7       0.0       3.0
 3 N  dxy             0.0       1.0       0.2       0.1       0.0       1.2
 4 C  s               0.0       0.0       0.1       0.2       0.1       2.7
 4 C  pz              0.0       0.4       8.6       2.8       1.0       1.1
 4 C  px              0.0       2.0      10.8       0.4       0.6       1.0
 4 C  py              5.7       5.4       0.3       7.4       1.0       0.3
 4 C  dxz             0.1       0.0       0.2       0.2       0.3       0.1
 4 C  dyz             0.0       0.2       0.6       0.2       0.1       0.0
 4 C  dxy             0.0       0.0       0.1       0.0       0.8       0.0
 5 C  s               0.0       0.0       1.0       0.0       0.5       2.8
 5 C  pz              0.8       0.2       8.3       0.5       0.5       0.7
 5 C  px              1.8       1.6       9.3       0.2       1.1       0.6
 5 C  py             10.1       4.9       2.4       2.6       0.3       0.8
 5 C  dz2             0.0       0.0       0.0       0.1       0.0       0.1
 5 C  dxz             0.1       0.0       0.1       0.1       0.0       0.2
 5 C  dyz             0.2       0.2       0.2       0.1       0.0       0.0
 6 C  s               0.1       0.4       0.0       0.4       0.8       8.7
 6 C  pz              1.1       0.6       2.6       0.5       1.5       0.9
 6 C  px              3.2       2.0       3.5       0.5       1.2       1.1
 6 C  py              9.0       5.8       0.1       2.9       2.8       1.8
 6 C  dxz             0.3       0.0       0.0       0.1       0.1       0.0
 6 C  dyz             0.0       0.0       0.3       0.1       0.0       0.0
 6 C  dx2y2           0.0       0.0       0.0       0.0       0.0       0.3
 6 C  dxy             0.0       0.0       0.1       0.0       0.0       0.3
 7 H  s               1.6       7.1       0.5       0.4       0.0       2.3
 7 H  px              0.0       0.1       0.0       0.1       0.0       0.8
 7 H  py              0.0       0.0       0.0       0.0       0.0       0.3
 8 H  s               0.0       0.0       1.9       0.3       0.0       1.5
 8 H  pz              0.0       0.0       0.0       0.1       0.0       0.4
 8 H  px              0.0       0.0       0.0       0.0       0.0       0.3
 8 H  py              0.0       0.1       0.0       0.0       0.0       0.1
 9 H  s               4.0       1.8       0.2       1.2       0.2       0.3
 9 H  py              0.0       0.0       0.0       0.1       0.0       0.3
10 H  s               4.8       2.3       0.5       5.1       4.9       1.5
10 H  pz              0.1       0.1       0.0       0.0       0.0       0.5
10 H  px              0.0       0.0       0.1       0.0       0.0       0.4
10 H  py              0.0       0.1       0.0       0.1       0.0       0.3
11 H  s               4.4       1.2       0.0       3.2       0.1       0.3
11 H  pz              0.0       0.1       0.0       0.0       0.0       0.2
12 H  s               0.0       2.6       0.0       6.1       0.0       1.4
12 H  px              0.0       0.1       0.0       0.1       0.0       0.5
13 H  s               0.8       0.1       1.2       0.0       0.2       1.8
13 H  px              0.0       0.0       0.0       0.0       0.0       0.4
13 H  py              0.0       0.1       0.0       0.0       0.0       0.1
14 H  s               0.0       0.1       0.9       2.3       0.7       6.2
14 H  pz              0.0       0.0       0.0       0.0       0.6       0.7
14 H  py              0.0       0.0       0.0       0.0       0.4       1.4
15 H  s               1.9       1.7       6.5       6.3       0.3       0.8
15 H  pz              0.0       0.1       0.0       0.0       0.0       0.2
15 H  px              0.0       0.0       0.0       0.0       0.0       0.3
15 H  py              0.0       0.0       0.1       0.0       0.0       0.2
16 H  s               0.3       0.3       1.1       1.1       0.3       0.8
16 H  pz              0.0       0.0       0.1       0.0       0.0       0.2
16 H  px              0.0       0.0       0.0       0.0       0.0       0.1
16 H  py              0.1       0.1       0.0       0.0       0.0       0.0
17 H  s               2.2       1.5       1.9       2.2       0.0       0.5
17 H  py              0.0       0.0       0.1       0.0       0.0       0.3
18 H  s               7.7       4.3       0.1       0.5       0.0       1.0
18 H  px              0.0       0.0       0.1       0.0       0.0       0.3
19 H  s               5.6       0.2       4.7       0.0       0.0       1.7
19 H  pz              0.1       0.0       0.0       0.0       0.0       0.1
19 H  px              0.1       0.0       0.0       0.0       0.0       0.9
20 H  s               2.8       0.2       0.5       0.3       0.8       2.6
20 H  px              0.0       0.0       0.0       0.0       0.0       0.4
20 H  py              0.0       0.1       0.0       0.0       0.1       0.3
21 H  s               0.3       0.7       2.4       2.3       0.0       1.0
[...]
18 H  pz              0.9       0.0       0.7       0.0       0.0       0.0
18 H  px              1.2       0.0       1.8       0.2       0.2       0.0
18 H  py              2.2       0.1       4.2       0.1       0.0       0.1
19 H  s               3.0       0.1       0.5       0.1       0.8       0.1
19 H  pz              2.0       0.0       0.6       0.1       0.8       0.1
19 H  px              4.0       0.2       1.0       0.2       0.5       0.0
19 H  py              1.6       0.1       0.1       0.1       0.5       0.1
20 H  s               0.2       0.4       0.0       0.5       0.3       0.1
20 H  pz              0.0       0.2       0.1       0.2       0.2       0.1
20 H  px              0.9       0.8       0.0       1.0       0.5       0.1
20 H  py              0.3       0.1       0.1       0.2       0.2       0.0
21 H  s               1.8       0.6       0.5       0.2       1.6       0.0
21 H  pz              1.4       0.7       1.3       0.1       2.0       0.0
21 H  px              0.2       0.2       0.2       0.2       0.2       0.0
21 H  py              2.3       0.6       0.2       0.3       2.1       0.0

                    204       205       206       207       208       209   
                   4.03284   4.23745  21.92195  21.93170  22.01220  22.02267
                   0.00000   0.00000   0.00000   0.00000   0.00000   0.00000
                  --------  --------  --------  --------  --------  --------
 0 C  s               0.1       0.0       1.4      62.2       2.1      29.6
 0 C  px              0.2       0.0       0.0       0.0       0.0       0.0
 0 C  dxz             0.2       0.1       0.0       0.0       0.0       0.0
 0 C  dyz             0.1       0.0       0.0       0.0       0.0       0.0
 1 C  s               1.3       0.1       1.3       3.4       4.9       2.0
 1 C  pz              2.5       0.0       0.0       0.0       0.0       0.0
 1 C  px              4.9       1.2       0.0       0.0       0.0       0.0
 1 C  py              0.5       0.1       0.0       0.0       0.0       0.0
 1 C  dz2             0.1       0.0       0.0       0.0       0.0       0.0
 1 C  dxz             6.9       0.6       0.0       0.0       0.0       0.0
 1 C  dyz             0.0       0.5       0.0       0.0       0.0       0.0
 1 C  dx2y2           2.5       0.7       0.0       0.0       0.0       0.0
 1 C  dxy             0.5       0.1       0.0       0.0       0.0       0.0
 2 C  s               0.0       0.0      18.1      15.5       8.9      56.6
 2 C  dxz             0.1       0.0       0.0       0.0       0.0       0.0
 2 C  dx2y2           0.2       0.0       0.0       0.0       0.0       0.0
 3 N  s               0.0       1.1       0.0       0.0       0.0       0.0
 3 N  pz              0.3      10.0       0.0       0.0       0.0       0.0
 3 N  px             27.1       0.1       0.0       0.0       0.0       0.0
 3 N  py              1.1       6.5       0.0       0.0       0.0       0.0
 3 N  dz2             0.1       0.3       0.0       0.0       0.0       0.0
 3 N  dxz            27.0       1.2       0.0       0.0       0.0       0.0
 3 N  dyz             2.1      19.0       0.0       0.0       0.0       0.0
 3 N  dx2y2           0.0      16.5       0.0       0.0       0.0       0.0
 3 N  dxy             0.1       4.3       0.0       0.0       0.0       0.0
 4 C  s               1.0       0.2       0.1       4.1       0.0       0.7
 4 C  pz              1.7       0.5       0.0       0.0       0.0       0.0
 4 C  px              4.1       1.3       0.0       0.0       0.0       0.0
 4 C  py              0.9       0.1       0.0       0.0       0.0       0.0
 4 C  dz2             0.3       0.1       0.0       0.0       0.0       0.0
 4 C  dxz             4.8       0.9       0.0       0.0       0.0       0.0
 4 C  dyz             0.1       0.0       0.0       0.0       0.0       0.0
 4 C  dx2y2           2.3       1.5       0.0       0.0       0.0       0.0
 4 C  dxy             0.9       0.5       0.0       0.0       0.0       0.0
 5 C  s               0.0       0.0      36.6      14.4      27.5      10.3
 5 C  px              0.1       0.0       0.0       0.0       0.0       0.0
 5 C  dz2             0.1       0.0       0.0       0.0       0.0       0.0
 5 C  dxz             0.2       0.0       0.0       0.0       0.0       0.0
 6 C  s               0.0       0.0      42.1       0.0      56.3       0.5
 6 C  dx2y2           0.1       0.0       0.0       0.0       0.0       0.0
 8 H  px              0.1       0.0       0.0       0.0       0.0       0.0
10 H  s               0.5       0.0       0.0       0.0       0.0       0.0
10 H  pz              0.2       0.0       0.0       0.0       0.0       0.0
10 H  px              0.5       0.0       0.0       0.0       0.0       0.0
10 H  py              0.3       0.0       0.0       0.0       0.0       0.0
14 H  s               0.1      11.4       0.0       0.0       0.0       0.0
14 H  pz              0.0       8.4       0.0       0.0       0.0       0.0
14 H  px              0.3       0.6       0.0       0.0       0.0       0.0
14 H  py              0.1      10.3       0.0       0.0       0.0       0.0
15 H  s               0.4       0.2       0.0       0.0       0.0       0.0
15 H  pz              0.1       0.2       0.0       0.0       0.0       0.0
15 H  px              0.5       0.1       0.0       0.0       0.0       0.0
15 H  py              0.3       0.1       0.0       0.0       0.0       0.0
16 H  px              0.1       0.0       0.0       0.0       0.0       0.0

                    210       211       212   
                  22.08334  22.11892  32.04839
                   0.00000   0.00000   0.00000
                  --------  --------  --------
 0 C  s               3.2       1.1       0.0
 1 C  s              32.6      55.5       0.1
 2 C  s               0.3       0.3       0.0
 3 N  s               0.0       0.1      99.8
 4 C  s              56.8      38.0       0.0
 5 C  s               6.7       4.2       0.0
 6 C  s               0.2       0.5       0.0


                      *****************************
                      * MAYER POPULATION ANALYSIS *
                      *****************************

  NA   - Mulliken gross atomic population
  ZA   - Total nuclear charge
  QA   - Mulliken gross atomic charge
  VA   - Mayer's total valence
  BVA  - Mayer's bonded valence
  FA   - Mayer's free valence

  ATOM       NA         ZA         QA         VA         BVA        FA
  0 C      6.4982     6.0000    -0.4982     3.8142     3.8142     0.0000
  1 C      5.9838     6.0000     0.0162     3.5052     3.5052    -0.0000
  2 C      6.4748     6.0000    -0.4748     3.8409     3.8409     0.0000
  3 N      7.2998     7.0000    -0.2998     2.4864     2.4864     0.0000
  4 C      6.0385     6.0000    -0.0385     3.6210     3.6210     0.0000
  5 C      6.4673     6.0000    -0.4673     3.8336     3.8336     0.0000
  6 C      6.4689     6.0000    -0.4689     3.7783     3.7783     0.0000
  7 H      0.8589     1.0000     0.1411     0.9647     0.9647    -0.0000
  8 H      0.8533     1.0000     0.1467     0.9661     0.9661     0.0000
  9 H      0.8384     1.0000     0.1616     0.9619     0.9619    -0.0000
 10 H      0.8778     1.0000     0.1222     0.9568     0.9568     0.0000
 11 H      0.8423     1.0000     0.1577     0.9641     0.9641    -0.0000
 12 H      0.8648     1.0000     0.1352     0.9674     0.9674     0.0000
 13 H      0.8575     1.0000     0.1425     0.9661     0.9661     0.0000
 14 H      0.7787     1.0000     0.2213     0.9389     0.9389     0.0000
 15 H      0.8719     1.0000     0.1281     0.9625     0.9625    -0.0000
 16 H      0.8593     1.0000     0.1407     0.9656     0.9656     0.0000
 17 H      0.8607     1.0000     0.1393     0.9669     0.9669    -0.0000
 18 H      0.8393     1.0000     0.1607     0.9607     0.9607     0.0000
 19 H      0.8555     1.0000     0.1445     0.9648     0.9648    -0.0000
 20 H      0.8526     1.0000     0.1474     0.9657     0.9657     0.0000
 21 H      0.8578     1.0000     0.1422     0.9682     0.9682     0.0000

  Mayer bond orders larger than 0.100000
B(  0-C ,  1-C ) :   0.9115 B(  0-C ,  7-H ) :   0.9761 B(  0-C ,  8-H ) :   0.9775 
B(  0-C ,  9-H ) :   0.9820 B(  1-C ,  2-C ) :   0.9544 B(  1-C ,  3-N ) :   0.8089 
B(  1-C , 10-H ) :   0.9192 B(  2-C , 11-H ) :   0.9784 B(  2-C , 12-H ) :   0.9665 
B(  2-C , 13-H ) :   0.9844 B(  3-N ,  4-C ) :   0.8694 B(  3-N , 14-H ) :   0.9207 
B(  4-C ,  5-C ) :   0.9605 B(  4-C ,  6-C ) :   0.9103 B(  4-C , 15-H ) :   0.9476 
B(  5-C , 16-H ) :   0.9827 B(  5-C , 17-H ) :   0.9718 B(  5-C , 18-H ) :   0.9760 
B(  6-C , 19-H ) :   0.9721 B(  6-C , 20-H ) :   0.9766 B(  6-C , 21-H ) :   0.9765 


-------
TIMINGS
-------

Total SCF time: 0 days 0 hours 0 min 22 sec 

Total time                  ....      22.163 sec
Sum of individual times     ....      21.627 sec  ( 97.6%)

SCF preparation             ....       0.202 sec  (  0.9%)
Fock matrix formation       ....      20.396 sec  ( 92.0%)
  Startup                   ....       0.072 sec  (  0.4% of F)
  Split-RI-J                ....       3.889 sec  ( 19.1% of F)
  XC integration            ....      15.879 sec  ( 77.9% of F)
    Basis function eval.    ....       2.904 sec  ( 18.3% of XC)
    Density eval.           ....       4.279 sec  ( 26.9% of XC)
    XC-Functional eval.     ....       1.811 sec  ( 11.4% of XC)
    XC-Potential eval.      ....       4.868 sec  ( 30.7% of XC)
Diagonalization             ....       0.000 sec  (  0.0%)
Density matrix formation    ....       0.255 sec  (  1.1%)
Total Energy calculation    ....       0.040 sec  (  0.2%)
Population analysis         ....       0.134 sec  (  0.6%)
Orbital Transformation      ....       0.074 sec  (  0.3%)
Orbital Orthonormalization  ....       0.000 sec  (  0.0%)
DIIS solution               ....       0.461 sec  (  2.1%)
  MO trafo                  ....       0.000 sec  (  0.0 % of DIIS)
  Orb grad                  ....       0.000 sec  (  0.0 % of DIIS)
  Energy W gradient         ....       0.000 sec  (  0.0 % of DIIS)
  DIIS error                ....       0.025 sec  (  5.3 % of DIIS)
  DIIS work                 ....       0.370 sec  ( 80.2 % of DIIS)
  Form Q                    ....       0.000 sec  (  0.0 % of DIIS)
  Form QpQm                 ....       0.000 sec  (  0.0 % of DIIS)
  Exp/Cayley                ....       0.000 sec  (  0.0 % of DIIS)
  Orb update                ....       0.000 sec  (  0.0 % of DIIS)
  Wake-sleep                ....       0.028 sec  (  6.0 % of DIIS)
SOSCF solution              ....       0.065 sec  (  0.3%)
  MO trafo                  ....       0.052 sec  ( 79.7 % of SOSCF)
  Orb grad                  ....       0.001 sec  (  0.9 % of SOSCF)
  Rot update                ....       0.000 sec  (  0.0 % of SOSCF)
  Step                      ....       0.013 sec  ( 19.3 % of SOSCF)
Finished LeanSCF after  22.3 sec

Maximum memory used throughout the entire LEANSCF-calculation: 23.9 MB


-------------------------------------------------------------------------------
                          DFT DISPERSION CORRECTION                            
                                                                               
                                DFTD4 V3.4.0                                   
-------------------------------------------------------------------------------
The R2SCAN3C composite method is recognized
Using three-body term ABC
Active option DFTDOPT                   ...         5   

-------------------------   ----------------
Dispersion correction           -0.005937338
-------------------------   ----------------

------------------   -----------------
gCP correction             0.014386243
------------------   -----------------

-------------------------   --------------------
FINAL SINGLE POINT ENERGY      -292.319505475000
-------------------------   --------------------


------------------------------------------------------------------------------
                              ORCA PROPERTY CALCULATIONS
------------------------------------------------------------------------------

GBWName                                 ... sp_gas.gbw
Number of atoms                         ...     22
Number of basis functions               ...    213
Max core memory                         ...   1024 MB

Electric properties:
Dipole moment                           ... YES
Quadrupole moment                       ...  NO
Static polarizability (Dipole/Dipole)   ...  NO
Static polarizability (Dipole/Quad.)    ...  NO
Static polarizability (Quad./Quad.)     ...  NO
Static polarizability (Velocity)        ...  NO

Atomic electric properties:
Dipole moment                           ...  NO
Quadrupole moment                       ...  NO
Static polarizability                   ...  NO

Choice of electric origin               ... Center of mass
Position of electric origin             ...    -0.000000     0.000001    -0.000002

General magnetic properties:
Magnetizability                         ...  NO

EPR properties:
g-Tensor (aka g-matrix)                 ...  NO
Zero-Field splitting spin-orbit         ...  NO
Zero-field splitting spin-spin          ...  NO
Hyperfine couplings                     ...  NO (   0 nuclei)
Quadrupole couplings                    ...  NO (   0 nuclei)
Contact density                         ...  NO (   0 nuclei)

NMR properties:
Chemical shifts                         ...  NO (   0 nuclei)
Spin-rotation constants                 ...  NO (   0 nuclei)
Spin-spin couplings                     ...  NO (   0 nuclei,    0 pairs)

Choice of magnetic origin               ... GIAO
Position of magnetic origin             ...     0.000000     0.000000     0.000000

Properties with geometric perturbations:
SCF Hessian                             ...  NO
IR spectrum                             ...  NO
VCD spectrum                            ...  NO
X-ray spectroscopy properties:
SCF XES/XAS/RIXS spectra                ...  NO


-------------
DIPOLE MOMENT
-------------

Method             : SCF
Type of density    : Electron Density
Multiplicity       :   1
Irrep              :   0
Energy             :  -292.3279543792789923 Eh
Relativity type    : 
Basis              : AO
                                X                 Y                 Z
Electronic contribution:      0.102642401      -0.261705096      -0.579420164
Nuclear contribution   :     -0.172091878       0.555690701       0.740325390
                        -----------------------------------------
Total Dipole Moment    :     -0.069449477       0.293985605       0.160905226
                        -----------------------------------------
Magnitude (a.u.)       :      0.342259050
Magnitude (Debye)      :      0.869953369



--------------------
Rotational spectrum 
--------------------
 
Rotational constants in cm-1:             0.137377             0.048247             0.044808 
Rotational constants in MHz :          4118.472667          1446.403402          1343.298216 

Dipole components along the rotational axes: 
x,y,z [a.u.] :     0.030742    -0.308990    -0.143949 
x,y,z [Debye]:     0.078141    -0.785391    -0.365888 

 

Dipole moment calculation done in   0.0 sec 

Maximum memory used throughout the entire PROP-calculation: 13.4 MB

--------------------------------
SUGGESTED CITATIONS FOR THIS RUN
--------------------------------

Below you find a list of papers that are relevant to this ORCA run
We neither can nor want to force you to cite these papers, but we appreciate if you do
You receive ORCA, which is the product of decades of hard work by many enthusiastic individuals, for free
The only thing we kindly ask in return is that you cite our papers,
We deeply appreciate it, if you show your appreciation for ORCA by not just citing the generic ORCA reference.

Please note that relegating all ORCA citations to the supporting information does *not* help us.
SI sections are not indexed - citations you put there will not count into any citation statistics
But we need these citations in order to attract the funding resources that allow us to do what we are doing

Therefore, if you are a happy ORCA user, please consider citing a few of the papers listed below in the main body of your paper

In addition to the list printed below, the program has created the file sp_gas.bibtex that contains the list in bibtex format
You can import this file easily into all common literature databanks and citation aid programs


List of essential papers. We consider these as the minimum necessary citations

  1. Neese,F.
     Software update: the ORCA program system, version 5.0
     WIRES Comput. Molec. Sci., 2022 12(1)e1606
     doi.org/10.1002/wcms.1606
  2. Grimme,S.; Hansen,A.; Ehlert,S.; Mewes,J.
     r2SCAN-3c: A 'Swiss army knife' composite electronic-structure method
     J. Chem. Phys., 2021 154 064103
     doi.org/10.1063/5.0040021

List of papers to cite with high priority. The work reported in these papers was absolutely
necessary for this run to complete.
Our perspective: the developers of density functionals and basis sets usually get cited in chemistry papers
Good! But without the algorithms to do something with them, the functionals or basis sets would not do anything.
Hence, in our opinion, the algorithm design and method developments papers are equally worthy of getting cited

  1. Neese,F.
     An improvement of the resolution of the identity approximation for the formation of the Coulomb matrix
     J. Comp. Chem., 2003 24(14)1740-1747
     doi.org/10.1002/jcc.10318
  2. Neese,F.
     The SHARK Integral Generation and Digestion System
     J. Comp. Chem., 2022  1-16
     doi.org/10.1002/jcc.26942
  3. Lehtola,S.; Steigemann,C.; Oliveira,M.; Marques,M.
     Recent developments in Libxc - A comprehensive library of functionals for density functional theory
     Software X, 2018 7 
     doi.org/10.1016/j.softx.2017.11.002
  4. Caldeweyher,E.; Bannwarth,C.; Grimme,S.
     Extension of the D3 dispersion coefficient model
     J. Chem. Phys., 2017 147 034112-XXXX
     doi.org/10.1063/1.4993215
  5. Caldeweyher,E.; Ehlert,S.; Hansen,A.; Neugebauer,H.; Spicher,S.; Bannwarth,C.; Grimme,S.
     A generally applicable atomic-charge dependent London dispersion correction
     J. Chem. Phys., 2019 150 154122-XXXX
     doi.org/10.1063/1.5090222
  6. Caldeweyher,E.; Mewes,J.; Ehlert,S.; Grimme,S.
     Extension and evaluation of the D4 London-dispersion model for periodic systems
     Phys. Chem. Chem. Phys., 2020 22(16)8499-8512
     doi.org/10.1039/D0CP00502A

List of suggested additional citations. These are papers that are important in the 'surrounding' of 
of this run, or papers that preceded the highly important papers. If you like your results we are grateful for a citation.

  1. Neese,F.
     The ORCA program system
     WIRES Comput. Molec. Sci., 2012 2(1)73-78
     doi.org/10.1002/wcms.81
  2. Neese,F.
     Software update: the ORCA program system, version 4.0
     WIRES Comput. Molec. Sci., 2018 8(1)1-6
     doi.org/10.1002/wcms.1327
  3. Neese,F.; Wennmohs,F.; Becker,U.; Riplinger,C.
     The ORCA quantum chemistry program package
     J. Chem. Phys., 2020 152 Art. No. L224108
     doi.org/10.1063/5.0004608

List of optional additional citations

  1. Neese,F.
     Approximate second-order SCF convergence for spin unrestricted wavefunctions
     Chem. Phys. Lett., 2000 325(1-3)93-98
     doi.org/10.1016/s0009-2614(00)00662-x

Timings for individual modules:

Sum of individual times          ...       24.070 sec (=   0.401 min)
Startup calculation              ...        1.369 sec (=   0.023 min)   5.7 %
SCF iterations                   ...       22.583 sec (=   0.376 min)  93.8 %
Property calculations            ...        0.118 sec (=   0.002 min)   0.5 %
                             ****ORCA TERMINATED NORMALLY****
TOTAL RUN TIME: 0 days 0 hours 0 minutes 25 seconds 102 msec
