
                                 *****************
                                 * O   R   C   A *
                                 *****************

                                            #,                                       
                                            ###                                      
                                            ####                                     
                                            #####                                    
                                            ######                                   
                                           ########,                                 
                                     ,,################,,,,,                         
                               ,,#################################,,                 
                          ,,##########################################,,             
                       ,#########################################, ''#####,          
                    ,#############################################,,   '####,        
                  ,##################################################,,,,####,       
                ,###########''''           ''''###############################       
              ,#####''   ,,,,##########,,,,          '''####'''          '####       
            ,##' ,,,,###########################,,,                        '##       
           ' ,,###''''                  '''############,,,                           
         ,,##''                                '''############,,,,        ,,,,,,###''
      ,#''                                            '''#######################'''  
     '                                                          ''''####''''         
             ,#######,   #######,   ,#######,      ##                                
            ,#'     '#,  ##    ##  ,#'     '#,    #''#        ,####,   ,####,        
            ##       ##  ##   ,#'  ##            #'  '#       #'       #'  '#        
            ##       ##  #######   ##           ,######,      #####,   #    #        
            '#,     ,#'  ##    ##  '#,     ,#' ,#      #,     #,   #   #,  ,#        
             '#######'   ##     ##  '#######'  #'      '#     '####' # '####'        



                #########################################################
                #                        -***-                          #
                #          Department of theory and spectroscopy        #
                #                                                       #
                #                      Frank Neese                      #
                #                                                       #
                #     Directorship, Architecture, Infrastructure        #
                #                    SHARK, DRIVERS                     #
                #        Core code/Algorithms in most modules           #
                #                                                       #
                #        Max Planck Institute fuer Kohlenforschung      #
                #                Kaiser Wilhelm Platz 1                 #
                #                 D-45470 Muelheim/Ruhr                 #
                #                      Germany                          #
                #                                                       #
                #                  All rights reserved                  #
                #                        -***-                          #
                #########################################################


                         Program Version 6.0.0  -   RELEASE  -


 With contributions from (in alphabetic order):
   Daniel Aravena         : Magnetic Suceptibility
   Michael Atanasov       : Ab Initio Ligand Field Theory (pilot matlab implementation)
   Alexander A. Auer      : GIAO ZORA, VPT2 properties, NMR spectrum
   Ute Becker             : All parallelization in ORCA, NUMFREQ, NUMCALC
   Giovanni Bistoni       : ED, misc. LED, open-shell LED, HFLD
   Martin Brehm           : Molecular dynamics
   Dmytro Bykov           : pre 5.0 version of the SCF Hessian
   Marcos Casanova-Páez   : Triplet and SCS-CIS(D). UHF-(DLPNO)-IP/EA/STEOM-CCSD. UHF-CVS-IP/STEOM-CCSD
   Vijay G. Chilkuri      : MRCI spin determinant printing, contributions to CSF-ICE
   Pauline Colinet        : FMM embedding
   Dipayan Datta          : RHF DLPNO-CCSD density
   Achintya Kumar Dutta   : EOM-CC, STEOM-CC
   Nicolas Foglia         : Exact transition moments, OPA infrastructure, MCD improvements
   Dmitry Ganyushin       : Spin-Orbit,Spin-Spin,Magnetic field MRCI
   Miquel Garcia          : C-PCM and meta-GGA Hessian, CCSD/C-PCM, Gaussian charge scheme
   Tiago L. C. Gouveia    : GS-ROHF, GS-ROCIS
   Yang Guo               : DLPNO-NEVPT2, F12-NEVPT2, CIM, IAO-localization
   Andreas Hansen         : Spin unrestricted coupled pair/coupled cluster methods
   Ingolf Harden          : AUTO-CI MPn and infrastructure 
   Benjamin Helmich-Paris : MC-RPA, TRAH-(SCF,CASSCF), AVAS, COSX integrals, SCF dyn. polar.
   Lee Huntington         : MR-EOM, pCC
   Robert Izsak           : Overlap fitted RIJCOSX, COSX-SCS-MP3, EOM
   Riya Kayal             : Wick's Theorem for AUTO-CI, AUTO-CI UHF-CCSDT
   Emily Kempfer          : AUTO-CI, RHF CISDT and CCSDT
   Christian Kollmar      : KDIIS, OOCD, Brueckner-CCSD(T), CCSD density, CASPT2, CASPT2-K, improved NEVPT2
   Axel Koslowski         : Symmetry handling
   Simone Kossmann        : Meta GGA functionals, TD-DFT gradient, OOMP2, (MP2 Hessian; deprecated post 5.0)
   Lucas Lang             : DCDCAS
   Marvin Lechner         : AUTO-CI (C++ implementation), FIC-MRCC
   Spencer Leger          : CASSCF response
   Dagmar Lenk            : GEPOL surface, SMD, ORCA-2-JSON
   Dimitrios Liakos       : Extrapolation schemes; Compound Job, initial MDCI parallelization
   Dimitrios Manganas     : Further ROCIS development; embedding schemes. LFT, Crystal Embedding
   Dimitrios Pantazis     : SARC Basis sets
   Anastasios Papadopoulos: AUTO-CI, single reference methods and gradients
   Taras Petrenko         : pre 6.0 DFT Hessian and TD-DFT gradient, (ASA, deprecated), ECA, 1-Electron XAS/XES, NRVS
   Peter Pinski           : DLPNO-MP2, DLPNO-MP2 Gradient
   Christoph Reimann      : Effective Core Potentials
   Marius Retegan         : Local ZFS, SOC
   Christoph Riplinger    : Optimizer, TS searches, QM/MM, DLPNO-CCSD(T), (RO)-DLPNO pert. Triples
   Michael Roemelt        : Original ROCIS implementation
   Masaaki Saitow         : Open-shell DLPNO-CCSD energy and density
   Barbara Sandhoefer     : DKH picture change effects
   Kantharuban Sivalingam : CASSCF convergence/infrastructure, NEVPT2 and variants, FIC-MRCI
   Bernardo de Souza      : ESD, SOC TD-DFT
   Georgi Stoychev        : AutoAux, RI-MP2 NMR, DLPNO-MP2 response, X2C
   Van Anh Tran           : RI-MP2 g-tensors
   Willem Van den Heuvel  : Paramagnetic NMR
   Zikuan Wang            : NOTCH, Electric field optimization 
   Frank Wennmohs         : Technical directorship and infrastructure
   Hang Xu                : AUTO-CI-Response properties 


 We gratefully acknowledge several colleagues who have allowed us to
 interface, adapt or use parts of their codes:
   Stefan Grimme, W. Hujo, H. Kruse, P. Pracht,  : VdW corrections, initial TS optimization,
                  C. Bannwarth, S. Ehlert,         DFT functionals, gCP, sTDA/sTD-DF
                  L. Wittmann, M. Mueller
   Ed Valeev, F. Pavosevic, A. Kumar             : LibInt (2-el integral package), F12 methods
   Garnet Chan, S. Sharma, J. Yang, R. Olivares  : DMRG
   Ulf Ekstrom                                   : XCFun DFT Library
   Mihaly Kallay                                 : mrcc  (arbitrary order and MRCC methods)
   Frank Weinhold                                : gennbo (NPA and NBO analysis)
   Simon Mueller                                 : openCOSMO-RS
   Christopher J. Cramer and Donald G. Truhlar   : smd solvation model
   Lars Goerigk                                  : TD-DFT with DH, B97 family of functionals
   V. Asgeirsson, H. Jonsson                     : NEB implementation
   FAccTs GmbH                                   : IRC, NEB, NEB-TS, DLPNO-Multilevel, CI-OPT
                                                   MM, QMMM, 2- and 3-layer-ONIOM, Crystal-QMMM,
                                                   LR-CPCM, SF, NACMEs, symmetry and pop. for TD-DFT,
                                                   nearIR, NL-DFT gradient (VV10), updates on ESD,
                                                   ML-optimized integration grids, MBIS, APM,
                                                   GOAT, DOCKER, SOLVATOR, interface openCOSMO-RS
   S Lehtola, MJT Oliveira, MAL Marques          : LibXC Library
   Liviu Ungur et al                             : ANISO software


 Your calculation uses the libint2 library for the computation of 2-el integrals
 For citations please refer to: http://libint.valeyev.net

 Your ORCA version has been built with support for libXC version: 6.2.2
 For citations please refer to: https://libxc.gitlab.io

 This ORCA versions uses:
   CBLAS   interface :  Fast vector & matrix operations
   LAPACKE interface :  Fast linear algebra routines
   SCALAPACK package :  Parallel linear algebra routines
   Shared memory     :  Shared parallel matrices
   BLAS/LAPACK       :  OpenBLAS 0.3.27  USE64BITINT DYNAMIC_ARCH NO_AFFINITY SkylakeX SINGLE_THREADED
        Core in use  :  SkylakeX
   Copyright (c) 2011-2014, The OpenBLAS Project


Your calculation utilizes the geometrical counterpoise correction gCP
Please cite in your paper:
H.Kruse, S. Grimme J.Chem.Phys., 136, (2012), 154101 
   

Your calculation utilizes the atom-pairwise dispersion correction
based on EEQ partial charges (D4)


Your calculation utilizes the SMD solvation module
Please cite in your paper:
A.V. Marenich, C.J. Cramer, D.G. Truhlar J. Phys. Chem. B, 113, (2009), 6378 

================================================================================

----- Orbital basis set information -----
Your calculation utilizes the basis: def2-mTZVPP
   Stefan Grimme, Andreas Hansen, Sebastian Ehlert, and Jan-Michael Mewes 
   J. Chem. Phys. 154, 064103 (2021). DOI: 10.1063/5.0040021

----- AuxJ basis set information -----
Your calculation utilizes the auxiliary basis: def2/J
   F. Weigend, Phys. Chem. Chem. Phys. 8, 1057 (2006).

================================================================================
                                        WARNINGS
                       Please study these warnings very carefully!
================================================================================

Using LibXC functional ID 497 : Re-regularized SCAN exchange by Furness et al
[ 1]  J. W. Furness, A. D. Kaplan, J. Ning, J. P. Perdew, and J. Sun.,  J. Phys. Chem. Lett. 11, 8208-8215 (2020)
[ 2]  J. W. Furness, A. D. Kaplan, J. Ning, J. P. Perdew, and J. Sun.,  J. Phys. Chem. Lett. 11, 9248-9248 (2020)
Using LibXC functional ID 498 : Re-regularized SCAN correlation by Furness et al
[ 1]  J. W. Furness, A. D. Kaplan, J. Ning, J. P. Perdew, and J. Sun.,  J. Phys. Chem. Lett. 11, 8208-8215 (2020)
[ 2]  J. W. Furness, A. D. Kaplan, J. Ning, J. P. Perdew, and J. Sun.,  J. Phys. Chem. Lett. 11, 9248-9248 (2020)
Using LibXC functional ID 497 : Re-regularized SCAN exchange by Furness et al
[ 1]  J. W. Furness, A. D. Kaplan, J. Ning, J. P. Perdew, and J. Sun.,  J. Phys. Chem. Lett. 11, 8208-8215 (2020)
[ 2]  J. W. Furness, A. D. Kaplan, J. Ning, J. P. Perdew, and J. Sun.,  J. Phys. Chem. Lett. 11, 9248-9248 (2020)
Using LibXC functional ID 498 : Re-regularized SCAN correlation by Furness et al
[ 1]  J. W. Furness, A. D. Kaplan, J. Ning, J. P. Perdew, and J. Sun.,  J. Phys. Chem. Lett. 11, 8208-8215 (2020)
[ 2]  J. W. Furness, A. D. Kaplan, J. Ning, J. P. Perdew, and J. Sun.,  J. Phys. Chem. Lett. 11, 9248-9248 (2020)

================================================================================
                                       INPUT FILE
================================================================================
NAME = sp_solv.inp
|  1> ! r2scan-3c def2/J RI DEFGRID2 scfconv6 printgap
|  2> %output
|  3>     printlevel normal
|  4> end
|  5> %cpcm
|  6>     smd true
|  7>     smdsolvent "water"
|  8> end
|  9> * xyz 0 1
| 10> C 2.1877856953 1.1136091239 -0.5478402096
| 11> C 1.1984666495 0.2902302242 0.2728084121
| 12> C 1.8495688875 -1.0218795921 0.7160743642
| 13> N 0.0265934287 -0.0027561262 -0.5441036277
| 14> C -1.2055297641 -0.3164137839 0.1638126204
| 15> C -2.1497590256 -1.0255305981 -0.8069162224
| 16> C -1.8961386258 0.9134931236 0.7700857572
| 17> H 1.7549810402 2.0734943803 -0.8228670575
| 18> H 3.0925897434 1.2958485307 0.0255487026
| 19> H 2.4487805464 0.5747973289 -1.45492479
| 20> H 0.9310345043 0.8683264956 1.177903677
| 21> H 2.1267620492 -1.6032403282 -0.1584673171
| 22> H 1.1632764846 -1.6114096001 1.3176780113
| 23> H 2.7383858903 -0.8180417211 1.3069992632
| 24> H -0.1492171403 0.7634030711 -1.1861164229
| 25> H -0.9486481927 -1.0099852316 0.971977823
| 26> H -3.0512622996 -1.3461913509 -0.2923433122
| 27> H -2.4282986428 -0.3540422234 -1.6156388907
| 28> H -1.6559703731 -1.8932008363 -1.2336187502
| 29> H -1.2317044645 1.4327368903 1.4579061005
| 30> H -2.7864369552 0.6144781694 1.3165671491
| 31> H -2.1878621421 1.6053606535 -0.0183119466
| 32> *
| 33> 
| 34>                          ****END OF INPUT****
================================================================================

                       ****************************
                       * Single Point Calculation *
                       ****************************

---------------------------------
CARTESIAN COORDINATES (ANGSTROEM)
---------------------------------
  C      2.187786    1.113609   -0.547840
  C      1.198467    0.290230    0.272808
  C      1.849569   -1.021880    0.716074
  N      0.026593   -0.002756   -0.544104
  C     -1.205530   -0.316414    0.163813
  C     -2.149759   -1.025531   -0.806916
  C     -1.896139    0.913493    0.770086
  H      1.754981    2.073494   -0.822867
  H      3.092590    1.295849    0.025549
  H      2.448781    0.574797   -1.454925
  H      0.931035    0.868326    1.177904
  H      2.126762   -1.603240   -0.158467
  H      1.163276   -1.611410    1.317678
  H      2.738386   -0.818042    1.306999
  H     -0.149217    0.763403   -1.186116
  H     -0.948648   -1.009985    0.971978
  H     -3.051262   -1.346191   -0.292343
  H     -2.428299   -0.354042   -1.615639
  H     -1.655970   -1.893201   -1.233619
  H     -1.231704    1.432737    1.457906
  H     -2.786437    0.614478    1.316567
  H     -2.187862    1.605361   -0.018312

----------------------------
CARTESIAN COORDINATES (A.U.)
----------------------------
  NO LB      ZA    FRAG     MASS         X           Y           Z
   0 C     6.0000    0    12.011    4.134316    2.104416   -1.035268
   1 C     6.0000    0    12.011    2.264774    0.548456    0.515533
   2 C     6.0000    0    12.011    3.495179   -1.931073    1.353184
   3 N     7.0000    0    14.007    0.050254   -0.005208   -1.028207
   4 C     6.0000    0    12.011   -2.278121   -0.597935    0.309561
   5 C     6.0000    0    12.011   -4.062456   -1.937972   -1.524851
   6 C     6.0000    0    12.011   -3.583183    1.726252    1.455251
   7 H     1.0000    0     1.008    3.316434    3.918337   -1.554993
   8 H     1.0000    0     1.008    5.844148    2.448799    0.048280
   9 H     1.0000    0     1.008    4.627525    1.086210   -2.749409
  10 H     1.0000    0     1.008    1.759400    1.640899    2.225915
  11 H     1.0000    0     1.008    4.018998   -3.029685   -0.299460
  12 H     1.0000    0     1.008    2.198274   -3.045123    2.490051
  13 H     1.0000    0     1.008    5.174799   -1.545875    2.469871
  14 H     1.0000    0     1.008   -0.281980    1.442623   -2.241435
  15 H     1.0000    0     1.008   -1.792685   -1.908595    1.836772
  16 H     1.0000    0     1.008   -5.766050   -2.543933   -0.552449
  17 H     1.0000    0     1.008   -4.588819   -0.669043   -3.053115
  18 H     1.0000    0     1.008   -3.129330   -3.577631   -2.331202
  19 H     1.0000    0     1.008   -2.327584    2.707480    2.755043
  20 H     1.0000    0     1.008   -5.265603    1.161195    2.487951
  21 H     1.0000    0     1.008   -4.134460    3.033692   -0.034605

--------------------------------
INTERNAL COORDINATES (ANGSTROEM)
--------------------------------
 C      0   0   0     0.000000000000     0.00000000     0.00000000
 C      1   0   0     1.526489157234     0.00000000     0.00000000
 C      2   1   0     1.530376097125   110.02576741     0.00000000
 N      2   1   3     1.458243164880   109.14939125   239.96592786
 C      4   2   1     1.455216170469   116.82104100   202.56111517
 C      5   4   2     1.528636660786   108.30425280   198.46791175
 C      5   4   2     1.535310625698   113.59643832    75.75039819
 H      1   2   3     1.088273560276   110.72441039   183.11259500
 H      1   2   3     1.086580144988   110.27036647   303.15102800
 H      1   2   3     1.086848148883   109.68887546    63.05459185
 H      2   1   3     1.106757737645   108.33118352   118.20174231
 H      3   2   1     1.086112105955   109.52908362   298.61213889
 H      3   2   1     1.086494289361   110.90692426   178.93448396
 H      3   2   1     1.086617586080   110.16263040    58.79211047
 H      4   2   1     1.014933348048   109.99278944   327.31199621
 H      5   4   2     1.095518365653   107.26491046   315.55487516
 H      6   5   4     1.086423835955   110.40776122   175.51859928
 H      6   5   4     1.087434278441   110.12309738   295.66228903
 H      6   5   4     1.085704344113   109.83878022    55.12757264
 H      7   5   4     1.088202034834   110.92761359   302.13758144
 H      7   5   4     1.086592366005   110.28632643   182.17606712
 H      7   5   4     1.088739743120   110.09888741    62.30788501

---------------------------
INTERNAL COORDINATES (A.U.)
---------------------------
 C      0   0   0     0.000000000000     0.00000000     0.00000000
 C      1   0   0     2.884646453572     0.00000000     0.00000000
 C      2   1   0     2.891991705465   110.02576741     0.00000000
 N      2   1   3     2.755680218286   109.14939125   239.96592786
 C      4   2   1     2.749960027839   116.82104100   202.56111517
 C      5   4   2     2.888704647157   108.30425280   198.46791175
 C      5   4   2     2.901316613068   113.59643832    75.75039819
 H      1   2   3     2.056538987709   110.72441039   183.11259500
 H      1   2   3     2.053338896584   110.27036647   303.15102800
 H      1   2   3     2.053845350549   109.68887546    63.05459185
 H      2   1   3     2.091469020747   108.33118352   118.20174231
 H      3   2   1     2.052454430992   109.52908362   298.61213889
 H      3   2   1     2.053176652962   110.90692426   178.93448396
 H      3   2   1     2.053409649994   110.16263040    58.79211047
 H      4   2   1     1.917946071995   109.99278944   327.31199621
 H      5   4   2     2.070229685765   107.26491046   315.55487516
 H      6   5   4     2.053043515319   110.40776122   175.51859928
 H      6   5   4     2.054952974893   110.12309738   295.66228903
 H      6   5   4     2.051683872783   109.83878022    55.12757264
 H      7   5   4     2.056403824212   110.92761359   302.13758144
 H      7   5   4     2.053361990959   110.28632643   182.17606712
 H      7   5   4     2.057419945613   110.09888741    62.30788501

---------------------
BASIS SET INFORMATION
---------------------
There are 3 groups of distinct atoms

 Group   1 Type C   : 11s6p1d contracted to 5s3p1d pattern {62111/411/1}
 Group   2 Type N   : 11s6p2d contracted to 5s3p2d pattern {62111/411/11}
 Group   3 Type H   : 4s1p contracted to 2s1p pattern {31/1}

Atom   0C    basis set group =>   1
Atom   1C    basis set group =>   1
Atom   2C    basis set group =>   1
Atom   3N    basis set group =>   2
Atom   4C    basis set group =>   1
Atom   5C    basis set group =>   1
Atom   6C    basis set group =>   1
Atom   7H    basis set group =>   3
Atom   8H    basis set group =>   3
Atom   9H    basis set group =>   3
Atom  10H    basis set group =>   3
Atom  11H    basis set group =>   3
Atom  12H    basis set group =>   3
Atom  13H    basis set group =>   3
Atom  14H    basis set group =>   3
Atom  15H    basis set group =>   3
Atom  16H    basis set group =>   3
Atom  17H    basis set group =>   3
Atom  18H    basis set group =>   3
Atom  19H    basis set group =>   3
Atom  20H    basis set group =>   3
Atom  21H    basis set group =>   3
---------------------------------
AUXILIARY/J BASIS SET INFORMATION
---------------------------------
There are 3 groups of distinct atoms

 Group   1 Type C   : 12s5p4d2f1g contracted to 6s4p3d1f1g pattern {711111/2111/211/2/1}
 Group   2 Type N   : 12s5p4d2f1g contracted to 6s4p3d1f1g pattern {711111/2111/211/2/1}
 Group   3 Type H   : 5s2p1d contracted to 3s1p1d pattern {311/2/1}

Atom   0C    basis set group =>   1
Atom   1C    basis set group =>   1
Atom   2C    basis set group =>   1
Atom   3N    basis set group =>   2
Atom   4C    basis set group =>   1
Atom   5C    basis set group =>   1
Atom   6C    basis set group =>   1
Atom   7H    basis set group =>   3
Atom   8H    basis set group =>   3
Atom   9H    basis set group =>   3
Atom  10H    basis set group =>   3
Atom  11H    basis set group =>   3
Atom  12H    basis set group =>   3
Atom  13H    basis set group =>   3
Atom  14H    basis set group =>   3
Atom  15H    basis set group =>   3
Atom  16H    basis set group =>   3
Atom  17H    basis set group =>   3
Atom  18H    basis set group =>   3
Atom  19H    basis set group =>   3
Atom  20H    basis set group =>   3
Atom  21H    basis set group =>   3

Checking for AutoStart:
The File: sp_solv.gbw exists
Trying to determine its content:
     ... Fine, the file contains calculation information
     ... Fine, the calculation information was read
     ... Fine, the file contains a basis set
     ... Fine, the basis set was read
     ... Fine, the file contains a geometry
     ... Fine, the geometry was read
     ... Fine, the file contains a set of orbitals
     ... Fine, the orbitals can be read
     => possible old guess file was deleted
     => GBW file was renamed to GES file
     => GES file is set as startup file
     => Guess is set to MORead
     ... now leaving AutoStart

------------------------------------------------------------------------------
                             ORCA STARTUP CALCULATIONS
                           -- RI-GTO INTEGRALS CHOSEN --
------------------------------------------------------------------------------
------------------------------------------------------------------------------
                   ___                                                        
                  /   \      - P O W E R E D   B Y -                         
                 /     \                                                     
                 |  |  |   _    _      __       _____    __    __             
                 |  |  |  | |  | |    /  \     |  _  \  |  |  /  |          
                  \  \/   | |  | |   /    \    | | | |  |  | /  /          
                 / \  \   | |__| |  /  /\  \   | |_| |  |  |/  /          
                |  |  |   |  __  | /  /__\  \  |    /   |      \           
                |  |  |   | |  | | |   __   |  |    \   |  |\   \          
                \     /   | |  | | |  |  |  |  | |\  \  |  | \   \       
                 \___/    |_|  |_| |__|  |__|  |_| \__\ |__|  \__/        
                                                                              
                      - O R C A' S   B I G   F R I E N D -                    
                                      &                                       
                       - I N T E G R A L  F E E D E R -                       
                                                                              
 v1 FN, 2020, v2 2021, v3 2022-2024                                           
------------------------------------------------------------------------------


----------------------
SHARK INTEGRAL PACKAGE
----------------------

Number of atoms                             ...     22
Number of basis functions                   ...    213
Number of shells                            ...    109
Maximum angular momentum                    ...      2
Integral batch strategy                     ... SHARK/LIBINT Hybrid
RI-J (if used) integral strategy            ... SPLIT-RIJ (Revised 2003 algorithm where possible)
Printlevel                                  ...      1
Contraction scheme used                     ... SEGMENTED contraction
Prescreening option                         ... SCHWARTZ
   Thresh                                   ... 1.000e-10
   Tcut                                     ... 1.000e-11
   Tpresel                                  ... 1.000e-11 
Coulomb Range Separation                    ... NOT USED
Exchange Range Separation                   ... NOT USED
Multipole approximations                    ... NOT USED
Finite Nucleus Model                        ... NOT USED
CABS basis                                  ... NOT available
Auxiliary Coulomb fitting basis             ... AVAILABLE
   # of basis functions in Aux-J            ...    508
   # of shells in Aux-J                     ...    180
   Maximum angular momentum in Aux-J        ...      4
Auxiliary J/K fitting basis                 ... NOT available
Auxiliary Correlation fitting basis         ... NOT available
Auxiliary 'external' fitting basis          ... NOT available

Checking pre-screening integrals            ... done (  0.0 sec) Dimension = 109
Check shell pair data                       ... done (  0.0 sec)
Shell pair information
Shell pair cut-off parameter TPreSel        ...   1.0e-11
Total number of shell pairs                 ...      5995
Shell pairs after pre-screening             ...      5428
Total number of primitive shell pairs       ...     20702
Primitive shell pairs kept                  ...     13541
          la=0 lb=0:   1935 shell pairs
          la=1 lb=0:   2106 shell pairs
          la=1 lb=1:    605 shell pairs
          la=2 lb=0:    480 shell pairs
          la=2 lb=1:    267 shell pairs
          la=2 lb=2:     35 shell pairs

Calculating one electron integrals          ... done (  0.0 sec)
Calculating RI/J V-Matrix + Cholesky decomp.... done (  0.1 sec)
Calculating Nuclear repulsion               ... done (  0.0 sec) ENN=    335.958048459459 Eh

Diagonalization of the overlap matrix:
Smallest eigenvalue                        ... 2.316e-04
Time for diagonalization                   ...    0.010 sec
Threshold for overlap eigenvalues          ... 1.000e-07
Number of eigenvalues below threshold      ... 0
Time for construction of square roots      ...    0.014 sec
Total time needed                          ...    0.035 sec

-------------------
DFT GRID GENERATION
-------------------

General Integration Accuracy     IntAcc      ... 4.388
Radial Grid Type                 RadialGrid  ... OptM3 with GC (2021)
Angular Grid (max. ang.)         AngularGrid ... 4 (Lebedev-302)
Angular grid pruning method      GridPruning ... 4 (adaptive)
Weight generation scheme         WeightScheme... mBecke (2022)
Basis function cutoff            BFCut       ... 1.0000e-10
Integration weight cutoff        WCut        ... 1.0000e-14
Partially contracted basis set               ... off
Rotationally invariant grid construction     ... off
Angular grids for H and He will be reduced by one unit

Total number of grid points                  ...    90009
Total number of batches                      ...     1418
Average number of points per batch           ...       63
Average number of grid points per atom       ...     4091
Initializing property integral containers    ... done (  0.0 sec)

SHARK setup successfully completed in   1.3 seconds

Maximum memory used throughout the entire STARTUP-calculation: 38.6 MB
-------------------------------------------------------------------------------
                                 ORCA GUESS
                   Start orbitals & Density for SCF / CASSCF
-------------------------------------------------------------------------------

------------
SCF SETTINGS
------------
Hamiltonian:
 Density Functional     Method          .... DFT(GTOs)
  Functional kind                       .... Exchange
  Functional name                       .... Re-regularized SCAN exchange by Furness et al
  Functional family                     .... MGGA
  Functional refs                              
    [ 0] J. W. Furness, A. D. Kaplan, J. Ning, J. P. Perdew, and J. Sun.,  J. Phys. Chem. Lett. 11, 8208-8215 (2020), doi: 10.1021/acs.jpclett.0c02405
    [ 1] J. W. Furness, A. D. Kaplan, J. Ning, J. P. Perdew, and J. Sun.,  J. Phys. Chem. Lett. 11, 9248-9248 (2020), doi: 10.1021/acs.jpclett.0c03077
  Functional external parameters        .... 6
    Parameter  0 _c1        =  6.670000e-01 : c1 parameter        
    Parameter  1 _c2        =  8.000000e-01 : c2 parameter        
    Parameter  2 _d         =  1.240000e+00 : d parameter         
    Parameter  3 _k1        =  6.500000e-02 : k1 parameter        
    Parameter  4 _eta       =  1.000000e-03 : eta parameter       
    Parameter  5 _dp2       =  3.610000e-01 : dp2 parameter       
  Functional kind                       .... Correlation
  Functional name                       .... Re-regularized SCAN correlation by Furness et al
  Functional family                     .... MGGA
  Functional refs                              
    [ 0] J. W. Furness, A. D. Kaplan, J. Ning, J. P. Perdew, and J. Sun.,  J. Phys. Chem. Lett. 11, 8208-8215 (2020), doi: 10.1021/acs.jpclett.0c02405
    [ 1] J. W. Furness, A. D. Kaplan, J. Ning, J. P. Perdew, and J. Sun.,  J. Phys. Chem. Lett. 11, 9248-9248 (2020), doi: 10.1021/acs.jpclett.0c03077
  Functional external parameters        .... 1
    Parameter  0 _eta       =  1.000000e-03 : Regularization parameter
 Gradients option       PostSCFGGA      .... off
 RI-approximation to the Coulomb term is turned on
   Number of AuxJ basis functions       .... 508


General Settings:
 Integral files         IntName         .... sp_solv
 Hartree-Fock type      HFTyp           .... RHF
 Total Charge           Charge          ....    0
 Multiplicity           Mult            ....    1
 Number of Electrons    NEL             ....   58
 Basis Dimension        Dim             ....  213
 Nuclear Repulsion      ENuc            ....    335.9580484595 Eh

Convergence Acceleration:
 AO-DIIS                CNVDIIS         .... on
   Start iteration      DIISMaxIt       ....    12
   Startup error        DIISStart       ....  0.200000
   # of expansion vecs  DIISMaxEq       ....     5
   Bias factor          DIISBfac        ....   1.050
   Max. coefficient     DIISMaxC        ....  10.000
 MO-DIIS                CNVKDIIS        .... off
 Trust-Rad. Augm. Hess. CNVTRAH         .... auto
   Auto Start mean grad. ratio tolernc. ....  1.125000
   Auto Start start iteration           ....     1
   Auto Start num. interpolation iter.  ....    10
   Max. Number of Micro iterations      ....    24
   Max. Number of Macro iterations      .... Maxiter - #DIIS iter
   Number of Davidson start vectors     ....     2
   Converg. threshold    (grad. norm)   ....   3.330e-04
   Grad. Scal. Fac. for Micro threshold ....   0.100
   Minimum threshold for Micro iter.    ....   1.000e-02
   NR start threshold (gradient norm)   ....   1.000e-04
   Initial trust radius                 ....   0.400
   Minimum AH scaling param. (alpha)    ....   1.000
   Maximum AH scaling param. (alpha)    .... 1000.000
   Quad. conv. algorithm                .... NR
   White noise on init. David. guess    .... on
   Maximum white noise                  ....   0.010
   Pseudo random numbers                .... off
   Inactive MOs                         .... canonical
   Orbital update algorithm             .... Taylor
   Preconditioner                       .... Diag
   Full preconditioner red. dimension   ....   250
   COSX micro iterations for RIJONX calc.... off
 SOSCF                  CNVSOSCF        .... on
   Start iteration      SOSCFMaxIt      ....   150
   Startup grad/error   SOSCFStart      ....  0.003300
   Hessian update       SOSCFHessUp     .... L-BFGS
 Level Shifting         CNVShift        .... on
   Level shift para.    LevelShift      ....    0.2500
   Turn off err/grad.   ShiftErr        ....    0.0010
 Zerner damping         CNVZerner       .... off
 Static damping         CNVDamp         .... on
   Fraction old density DampFac         ....    0.7000
   Max. Damping (<1)    DampMax         ....    0.9800
   Min. Damping (>=0)   DampMin         ....    0.0000
   Turn off err/grad.   DampErr         ....    0.1000

SCF Procedure:
 Maximum # iterations   MaxIter         ....   125
 SCF integral mode      SCFMode         .... Direct
   Integral package                     .... SHARK and LIBINT hybrid scheme
 Reset frequency        DirectResetFreq ....    20
 Integral Threshold     Thresh          ....  1.000e-10 Eh
 Primitive CutOff       TCut            ....  1.000e-11 Eh

Convergence Tolerance:
 Convergence Check Mode ConvCheckMode   .... Total+1el-Energy
 Convergence forced     ConvForced      .... 0
 Energy Change          TolE            ....  1.000e-06 Eh
 1-El. energy change                    ....  1.000e-03 Eh
 Orbital Gradient       TolG            ....  3.330e-04
 Orbital Rotation angle TolX            ....  3.330e-04
 DIIS Error             TolErr          ....  1.000e-06

---------------------
INITIAL GUESS: MOREAD
---------------------
Guess MOs are being read from file: sp_solv.ges
Input Geometry matches current geometry (good)
Atom 0: N(Shells)= 9 and 6 - projection required
Input basis set needs projection
NBasis(read)= 128
NBasis(calc)= 213
Basis set overlap was calculated
Using GuessMode=FMatrix for the initial guess
C*T matrix was formed
Effective Fockian was calculated
Effective Fockian was diagonalized
Initial density was built
                      ------------------
                      INITIAL GUESS DONE (   0.0 sec)
                      ------------------
             **** ENERGY FILE WAS UPDATED (sp_solv.en.tmp) ****
Finished Guess after   0.3 sec
Maximum memory used throughout the entire GUESS-calculation: 14.7 MB

-------------------------------------------------------------------------------------------
                                      ORCA LEAN-SCF
                              memory conserving SCF solver
-------------------------------------------------------------------------------------------

--------------------
CPCM SOLVATION MODEL
--------------------
CPCM parameters:
  Epsilon                                         ...      78.3550
  Refrac                                          ...       1.3328
  Rsolv                                           ...       1.3000
  Surface type                                    ... GAUSSIAN VDW
  Discretization scheme                           ... Constant charge density
    Threshold for H atoms                         ...       5.0000 (charges/Ang^2)
    Threshold for non-H atoms                     ...       5.0000 (charges/Ang^2)
  Epsilon function type                           ...         CPCM
Solvent:                                          ... WATER
SMD-CDS solvent descriptors:
  Soln                                            ...       1.3328
  Soln25                                          ...       1.3323
  Sola                                            ...       0.0000
  Solb                                            ...       0.0000
  Solg                                            ...       0.0000
  Solc                                            ...       0.0000
  Solh                                            ...       0.0000
Radii:
  Scheme                                          ... Element-dependent radii
  Radius for C  used is    3.4960 Bohr (=   1.8500 Ang.)
  Radius for N  used is    3.5716 Bohr (=   1.8900 Ang.)
  Radius for H  used is    2.2677 Bohr (=   1.2000 Ang.)
Calculating surface                               ...        done! (  0.0s)
Cavity surface points                             ...         1627
Cavity Volume                                     ...     899.4478
Cavity Surface-area                               ...     583.8047
Calculating surface distance matrix               ...        done! (  0.0s)
Performing Cholesky decomposition & store         ...        done! (  0.4s)
Overall time for CPCM initialization              ...                 0.4s

----------------------------------------D-I-I-S--------------------------------------------
Iteration    Energy (Eh)           Delta-E    RMSDP     MaxDP     DIISErr   Damp  Time(sec)
-------------------------------------------------------------------------------------------
               ***  Starting incremental Fock matrix formation  ***
    1    -292.1691032439037485     0.00e+00  3.46e-03  1.06e-01  4.35e-01  0.700   3.2
    2    -292.2180814256768713    -4.90e-02  2.86e-03  7.64e-02  3.06e-01  0.700   2.9
    3    -292.2528542384042680    -3.48e-02  2.12e-03  5.56e-02  2.14e-01  0.700   2.9
                               ***Turning on AO-DIIS***
    4    -292.2773036208439521    -2.44e-02  1.56e-03  4.00e-02  1.50e-01  0.700   3.0
    5    -292.2944718942462146    -1.72e-02  1.12e-03  2.82e-02  1.05e-01  0.700   2.8
    6    -292.3065221468622781    -1.21e-02  7.99e-04  1.98e-02  7.34e-02  0.700   2.8
    7    -292.3149744489202817    -8.45e-03  1.89e-03  4.62e-02  5.14e-02  0.000   2.7
                              *** Initializing SOSCF ***
---------------------------------------S-O-S-C-F--------------------------------------
Iteration    Energy (Eh)           Delta-E    RMSDP     MaxDP     MaxGrad    Time(sec)
--------------------------------------------------------------------------------------
    8    -292.3347525071235964    -1.98e-02  2.79e-05  8.23e-04  4.36e-04     2.9
               *** Restarting incremental Fock matrix formation ***
    9    -292.3347528550917218    -3.48e-07  1.69e-05  5.76e-04  8.40e-05     3.2
   10    -292.3347523302732611     5.25e-07  9.11e-06  2.29e-04  1.37e-04     2.6
                 **** Energy Check signals convergence ****

               *****************************************************
               *                     SUCCESS                       *
               *           SCF CONVERGED AFTER  10 CYCLES          *
               *****************************************************


SMD CDS free energy correction energy :                 2.84106     Kcal/mol
Total Energy after SMD CDS correction =              -292.330224808 Eh
             **** ENERGY FILE WAS UPDATED (sp_solv.en.tmp) ****

----------------
TOTAL SCF ENERGY
----------------

Total Energy       :       -292.33022480813509 Eh           -7954.70983 eV

Components:
Nuclear Repulsion  :        335.95804845945923 Eh            9141.88326 eV
Electronic Energy  :       -628.28488848925906 Eh          -17096.50099 eV
One Electron Energy:      -1058.81764098424037 Eh          -28811.89278 eV
Two Electron Energy:        430.53275249498131 Eh           11715.39179 eV
CPCM Dielectric    :         -0.00791230047347 Eh              -0.21530 eV
SMD CDS (Gcds)     :          0.00452752213815 Eh               0.12320 eV

Virial components:
Potential Energy   :       -583.29830371390517 Eh          -15872.35378 eV
Kinetic Energy     :        290.96807890577014 Eh            7917.64395 eV
Virial Ratio       :          2.00468142728057

DFT components:
N(Alpha)           :       28.999944457093 electrons
N(Beta)            :       28.999944457093 electrons
N(Total)           :       57.999888914186 electrons
E(X)               :      -43.223438270372 Eh       
E(C)               :       -1.798385024229 Eh       
E(XC)              :      -45.021823294601 Eh       

CPCM Solvation Model Properties:
Surface-charge          :         -0.04994740813336
Corrected charge        :         -0.00000000000000
Outlying charge corr.   :          0.00019070801353 Eh               0.00519 eV
Free-energy (cav+disp)  :          0.00452752213815 Eh               0.12320 eV

---------------
SCF CONVERGENCE
---------------

  Last Energy change         ...   -5.2482e-07  Tolerance :   1.0000e-06
  Last MAX-Density change    ...    2.2891e-04  Tolerance :   1.0000e-05
  Last RMS-Density change    ...    9.1075e-06  Tolerance :   1.0000e-06
  Last DIIS Error            ...    4.3583e-04  Tolerance :   1.0000e-06
  Last Orbital Gradient      ...    1.3698e-04  Tolerance :   3.3300e-04
  Last Orbital Rotation      ...    8.7640e-05  Tolerance :   3.3300e-04


----------------
ORBITAL ENERGIES
----------------

  NO   OCC          E(Eh)            E(eV) 
   0   2.0000     -14.127044      -384.4164 
   1   2.0000     -10.049611      -273.4638 
   2   2.0000     -10.048526      -273.4343 
   3   2.0000     -10.008318      -272.3402 
   4   2.0000     -10.004873      -272.2464 
   5   2.0000     -10.004842      -272.2456 
   6   2.0000     -10.003595      -272.2116 
   7   2.0000      -0.865997       -23.5650 
   8   2.0000      -0.745752       -20.2930 
   9   2.0000      -0.685994       -18.6668 
  10   2.0000      -0.644718       -17.5437 
  11   2.0000      -0.642213       -17.4755 
  12   2.0000      -0.546167       -14.8619 
  13   2.0000      -0.529379       -14.4051 
  14   2.0000      -0.449088       -12.2203 
  15   2.0000      -0.422238       -11.4897 
  16   2.0000      -0.410071       -11.1586 
  17   2.0000      -0.389202       -10.5907 
  18   2.0000      -0.370745       -10.0885 
  19   2.0000      -0.363442        -9.8898 
  20   2.0000      -0.348234        -9.4759 
  21   2.0000      -0.344713        -9.3801 
  22   2.0000      -0.335329        -9.1248 
  23   2.0000      -0.314520        -8.5585 
  24   2.0000      -0.307490        -8.3672 
  25   2.0000      -0.298953        -8.1349 
  26   2.0000      -0.290268        -7.8986 
  27   2.0000      -0.284679        -7.7465 
  28   2.0000      -0.183326        -4.9886 
  29   0.0000       0.086591         2.3563 
  30   0.0000       0.115844         3.1523 
  31   0.0000       0.120221         3.2714 
  32   0.0000       0.127557         3.4710 
  33   0.0000       0.131856         3.5880 
  34   0.0000       0.145873         3.9694 
  35   0.0000       0.149293         4.0625 
  36   0.0000       0.150689         4.1004 
  37   0.0000       0.159022         4.3272 
  38   0.0000       0.170063         4.6276 
  39   0.0000       0.173998         4.7347 
*Only the first 10 virtual orbitals were printed.

                    ********************************
                    * MULLIKEN POPULATION ANALYSIS *
                    ********************************

-----------------------
MULLIKEN ATOMIC CHARGES
-----------------------
   0 C :   -0.528248
   1 C :    0.029433
   2 C :   -0.533965
   3 N :   -0.370505
   4 C :   -0.005061
   5 C :   -0.525624
   6 C :   -0.522485
   7 H :    0.158725
   8 H :    0.161484
   9 H :    0.162442
  10 H :    0.135253
  11 H :    0.159567
  12 H :    0.154876
  13 H :    0.158574
  14 H :    0.269603
  15 H :    0.146321
  16 H :    0.156931
  17 H :    0.159788
  18 H :    0.158263
  19 H :    0.156262
  20 H :    0.159840
  21 H :    0.158524
Sum of atomic charges:   -0.0000000

--------------------------------
MULLIKEN REDUCED ORBITAL CHARGES
--------------------------------
  0 C s       :     3.363924  s :     3.363924
      pz      :     1.047670  p :     3.137772
      px      :     1.039988
      py      :     1.050114
      dz2     :     0.003918  d :     0.026552
      dxz     :     0.006552
      dyz     :     0.005712
      dx2y2   :     0.005285
      dxy     :     0.005085

  1 C s       :     3.130142  s :     3.130142
      pz      :     0.978837  p :     2.781570
      px      :     0.872784
      py      :     0.929948
      dz2     :     0.008352  d :     0.058855
      dxz     :     0.013387
      dyz     :     0.013452
      dx2y2   :     0.011033
      dxy     :     0.012631

  2 C s       :     3.363201  s :     3.363201
      pz      :     1.088681  p :     3.144371
      px      :     1.068640
      py      :     0.987050
      dz2     :     0.002151  d :     0.026393
      dxz     :     0.006422
      dyz     :     0.007476
      dx2y2   :     0.004452
      dxy     :     0.005892

  3 N s       :     3.473416  s :     3.473416
      pz      :     1.305222  p :     3.841818
      px      :     1.023131
      py      :     1.513466
      dz2     :     0.005966  d :     0.055270
      dxz     :     0.016111
      dyz     :     0.018441
      dx2y2   :     0.002650
      dxy     :     0.012103

  4 C s       :     3.158717  s :     3.158717
      pz      :     0.967955  p :     2.787534
      px      :     0.867055
      py      :     0.952525
      dz2     :     0.006387  d :     0.058810
      dxz     :     0.014718
      dyz     :     0.012882
      dx2y2   :     0.010932
      dxy     :     0.013891

  5 C s       :     3.360792  s :     3.360792
      pz      :     1.031906  p :     3.138327
      px      :     1.044314
      py      :     1.062107
      dz2     :     0.002767  d :     0.026504
      dxz     :     0.006739
      dyz     :     0.007539
      dx2y2   :     0.004152
      dxy     :     0.005307

  6 C s       :     3.349557  s :     3.349557
      pz      :     1.074298  p :     3.146785
      px      :     1.064605
      py      :     1.007882
      dz2     :     0.001596  d :     0.026143
      dxz     :     0.006635
      dyz     :     0.008144
      dx2y2   :     0.004149
      dxy     :     0.005619

  7 H s       :     0.822990  s :     0.822990
      pz      :     0.004180  p :     0.018285
      px      :     0.004651
      py      :     0.009455

  8 H s       :     0.820172  s :     0.820172
      pz      :     0.005587  p :     0.018344
      px      :     0.008911
      py      :     0.003847

  9 H s       :     0.819299  s :     0.819299
      pz      :     0.008857  p :     0.018259
      px      :     0.004062
      py      :     0.005340

 10 H s       :     0.847568  s :     0.847568
      pz      :     0.008550  p :     0.017180
      px      :     0.003212
      py      :     0.005418

 11 H s       :     0.822190  s :     0.822190
      pz      :     0.008393  p :     0.018243
      px      :     0.004092
      py      :     0.005758

 12 H s       :     0.826494  s :     0.826494
      pz      :     0.005983  p :     0.018630
      px      :     0.006668
      py      :     0.005980

 13 H s       :     0.823096  s :     0.823096
      pz      :     0.005868  p :     0.018330
      px      :     0.008686
      py      :     0.003776

 14 H s       :     0.698613  s :     0.698613
      pz      :     0.012365  p :     0.031784
      px      :     0.004908
      py      :     0.014511

 15 H s       :     0.836085  s :     0.836085
      pz      :     0.007719  p :     0.017594
      px      :     0.003261
      py      :     0.006614

 16 H s       :     0.824746  s :     0.824746
      pz      :     0.005164  p :     0.018323
      px      :     0.008840
      py      :     0.004319

 17 H s       :     0.821885  s :     0.821885
      pz      :     0.007804  p :     0.018326
      px      :     0.004202
      py      :     0.006321

 18 H s       :     0.823406  s :     0.823406
      pz      :     0.004887  p :     0.018331
      px      :     0.005097
      py      :     0.008347

 19 H s       :     0.825214  s :     0.825214
      pz      :     0.006628  p :     0.018523
      px      :     0.006457
      py      :     0.005438

 20 H s       :     0.821712  s :     0.821712
      pz      :     0.005595  p :     0.018448
      px      :     0.008717
      py      :     0.004136

 21 H s       :     0.823244  s :     0.823244
      pz      :     0.007350  p :     0.018233
      px      :     0.004206
      py      :     0.006677


------------------------
MULLIKEN OVERLAP CHARGES
------------------------
B(  0-C ,  1-C ) :   0.5031 B(  0-C ,  2-C ) :  -0.1643 B(  0-C ,  3-N ) :  -0.1438 
B(  0-C ,  7-H ) :   0.8147 B(  0-C ,  8-H ) :   0.8369 B(  0-C ,  9-H ) :   0.8537 
B(  1-C ,  2-C ) :   0.5142 B(  1-C ,  3-N ) :   0.0914 B(  1-C ,  4-C ) :  -0.0829 
B(  1-C ,  6-C ) :  -0.0587 B(  1-C ,  7-H ) :  -0.0685 B(  1-C ,  8-H ) :  -0.1026 
B(  1-C ,  9-H ) :  -0.0865 B(  1-C , 10-H ) :   0.7591 B(  1-C , 11-H ) :  -0.0915 
B(  1-C , 13-H ) :  -0.1153 B(  1-C , 14-H ) :  -0.0777 B(  2-C ,  3-N ) :  -0.1090 
B(  2-C , 10-H ) :  -0.0576 B(  2-C , 11-H ) :   0.8564 B(  2-C , 12-H ) :   0.7966 
B(  2-C , 13-H ) :   0.8495 B(  3-N ,  4-C ) :   0.2401 B(  3-N ,  5-C ) :  -0.1306 
B(  3-N ,  6-C ) :  -0.1145 B(  3-N , 10-H ) :  -0.0960 B(  3-N , 14-H ) :   0.7229 
B(  3-N , 15-H ) :  -0.1178 B(  4-C ,  5-C ) :   0.5241 B(  4-C ,  6-C ) :   0.4245 
B(  4-C , 14-H ) :  -0.1001 B(  4-C , 15-H ) :   0.8501 B(  4-C , 16-H ) :  -0.1233 
B(  4-C , 18-H ) :  -0.0777 B(  4-C , 19-H ) :  -0.0647 B(  4-C , 20-H ) :  -0.0938 
B(  4-C , 21-H ) :  -0.0751 B(  5-C ,  6-C ) :  -0.1575 B(  5-C , 16-H ) :   0.8460 
B(  5-C , 17-H ) :   0.8402 B(  5-C , 18-H ) :   0.8244 B(  6-C , 15-H ) :  -0.0797 
B(  6-C , 19-H ) :   0.8093 B(  6-C , 20-H ) :   0.8295 B(  6-C , 21-H ) :   0.8457 



                     *******************************
                     * LOEWDIN POPULATION ANALYSIS *
                     *******************************

----------------------
LOEWDIN ATOMIC CHARGES
----------------------
   0 C :   -0.393923
   1 C :   -0.015620
   2 C :   -0.401227
   3 N :   -0.855248
   4 C :   -0.019080
   5 C :   -0.397510
   6 C :   -0.410505
   7 H :    0.157668
   8 H :    0.160647
   9 H :    0.159730
  10 H :    0.161507
  11 H :    0.157757
  12 H :    0.155865
  13 H :    0.155987
  14 H :    0.260908
  15 H :    0.181179
  16 H :    0.156334
  17 H :    0.157464
  18 H :    0.157874
  19 H :    0.155996
  20 H :    0.157159
  21 H :    0.157038

-------------------------------
LOEWDIN REDUCED ORBITAL CHARGES
-------------------------------
  0 C s       :     2.970834  s :     2.970834
      pz      :     1.133605  p :     3.361363
      px      :     1.105407
      py      :     1.122350
      dz2     :     0.008893  d :     0.061725
      dxz     :     0.015755
      dyz     :     0.013764
      dx2y2   :     0.011960
      dxy     :     0.011353

  1 C s       :     2.833773  s :     2.833773
      pz      :     1.034954  p :     3.055811
      px      :     0.981014
      py      :     1.039843
      dz2     :     0.017932  d :     0.126036
      dxz     :     0.029107
      dyz     :     0.029631
      dx2y2   :     0.021370
      dxy     :     0.027996

  2 C s       :     2.975611  s :     2.975611
      pz      :     1.144348  p :     3.363797
      px      :     1.126199
      py      :     1.093250
      dz2     :     0.004853  d :     0.061819
      dxz     :     0.015945
      dyz     :     0.017384
      dx2y2   :     0.010344
      dxy     :     0.013293

  3 N s       :     3.189060  s :     3.189060
      pz      :     1.372128  p :     4.106680
      px      :     1.211299
      py      :     1.523253
      dz2     :     0.087765  d :     0.559508
      dxz     :     0.141875
      dyz     :     0.103386
      dx2y2   :     0.107734
      dxy     :     0.118747

  4 C s       :     2.831137  s :     2.831137
      pz      :     1.038615  p :     3.062196
      px      :     0.981465
      py      :     1.042117
      dz2     :     0.012059  d :     0.125747
      dxz     :     0.033025
      dyz     :     0.028383
      dx2y2   :     0.021875
      dxy     :     0.030404

  5 C s       :     2.973553  s :     2.973553
      pz      :     1.122005  p :     3.362162
      px      :     1.109698
      py      :     1.130458
      dz2     :     0.005793  d :     0.061795
      dxz     :     0.015997
      dyz     :     0.018408
      dx2y2   :     0.009258
      dxy     :     0.012339

  6 C s       :     2.976172  s :     2.976172
      pz      :     1.138705  p :     3.372840
      px      :     1.125741
      py      :     1.108394
      dz2     :     0.003243  d :     0.061493
      dxz     :     0.016419
      dyz     :     0.019387
      dx2y2   :     0.009537
      dxy     :     0.012906

  7 H s       :     0.798640  s :     0.798640
      pz      :     0.009461  p :     0.043692
      px      :     0.011028
      py      :     0.023203

  8 H s       :     0.795174  s :     0.795174
      pz      :     0.013579  p :     0.044180
      px      :     0.021949
      py      :     0.008653

  9 H s       :     0.796282  s :     0.796282
      pz      :     0.021991  p :     0.043988
      px      :     0.009130
      py      :     0.012867

 10 H s       :     0.797615  s :     0.797615
      pz      :     0.019805  p :     0.040878
      px      :     0.008100
      py      :     0.012972

 11 H s       :     0.798271  s :     0.798271
      pz      :     0.020884  p :     0.043972
      px      :     0.009141
      py      :     0.013947

 12 H s       :     0.799827  s :     0.799827
      pz      :     0.013963  p :     0.044308
      px      :     0.016296
      py      :     0.014049

 13 H s       :     0.799756  s :     0.799756
      pz      :     0.014106  p :     0.044257
      px      :     0.021330
      py      :     0.008820

 14 H s       :     0.653002  s :     0.653002
      pz      :     0.033113  p :     0.086090
      px      :     0.013027
      py      :     0.039950

 15 H s       :     0.778257  s :     0.778257
      pz      :     0.017080  p :     0.040564
      px      :     0.008142
      py      :     0.015342

 16 H s       :     0.799436  s :     0.799436
      pz      :     0.012456  p :     0.044230
      px      :     0.021933
      py      :     0.009840

 17 H s       :     0.798789  s :     0.798789
      pz      :     0.018927  p :     0.043747
      px      :     0.009378
      py      :     0.015441

 18 H s       :     0.798423  s :     0.798423
      pz      :     0.011360  p :     0.043703
      px      :     0.012057
      py      :     0.020286

 19 H s       :     0.799786  s :     0.799786
      pz      :     0.015715  p :     0.044218
      px      :     0.015773
      py      :     0.012730

 20 H s       :     0.798173  s :     0.798173
      pz      :     0.013360  p :     0.044668
      px      :     0.021521
      py      :     0.009787

 21 H s       :     0.799126  s :     0.799126
      pz      :     0.018144  p :     0.043836
      px      :     0.009482
      py      :     0.016210


---------------------------------
LOEWDIN BOND ORDERS (THRESH 0.050000)
---------------------------------
B(  0-C ,  1-C ) :   1.0490 B(  0-C ,  2-C ) :   0.0710 B(  0-C ,  3-N ) :   0.1607 
B(  0-C ,  7-H ) :   0.9210 B(  0-C ,  8-H ) :   0.9181 B(  0-C ,  9-H ) :   0.9169 
B(  1-C ,  2-C ) :   1.0423 B(  1-C ,  3-N ) :   1.3135 B(  1-C ,  4-C ) :   0.0711 
B(  1-C , 10-H ) :   0.7973 B(  2-C ,  3-N ) :   0.1699 B(  2-C , 11-H ) :   0.9199 
B(  2-C , 12-H ) :   0.9186 B(  2-C , 13-H ) :   0.9190 B(  3-N ,  4-C ) :   1.3358 
B(  3-N ,  5-C ) :   0.1753 B(  3-N ,  6-C ) :   0.1528 B(  3-N , 10-H ) :   0.0966 
B(  3-N , 14-H ) :   0.8859 B(  3-N , 15-H ) :   0.0941 B(  4-C ,  5-C ) :   1.0451 
B(  4-C ,  6-C ) :   1.0412 B(  4-C , 15-H ) :   0.7927 B(  5-C ,  6-C ) :   0.0726 
B(  5-C , 16-H ) :   0.9198 B(  5-C , 17-H ) :   0.9186 B(  5-C , 18-H ) :   0.9211 
B(  6-C , 19-H ) :   0.9205 B(  6-C , 20-H ) :   0.9198 B(  6-C , 21-H ) :   0.9213 


------------------------------------------
LOEWDIN REDUCED ORBITAL POPULATIONS PER MO
-------------------------------------------
THRESHOLD FOR PRINTING IS 0.1%%
                      0         1         2         3         4         5   
                 -14.12704 -10.04961 -10.04853 -10.00832 -10.00487 -10.00484
                   2.00000   2.00000   2.00000   2.00000   2.00000   2.00000
                  --------  --------  --------  --------  --------  --------
 0 C  s               0.0       0.0       0.0      99.7       0.0       0.0
 1 C  s               0.0      99.4       0.0       0.0       0.0       0.0
 3 N  s              99.8       0.0       0.0       0.0       0.0       0.0
 3 N  dxz             0.0       0.2       0.1       0.0       0.0       0.0
 4 C  s               0.0       0.0      99.4       0.0       0.0       0.0
 5 C  s               0.0       0.0       0.0       0.0      98.8       0.9
 6 C  s               0.0       0.0       0.0       0.0       0.9      98.9

                      6         7         8         9        10        11   
                 -10.00359  -0.86600  -0.74575  -0.68599  -0.64472  -0.64221
                   2.00000   2.00000   2.00000   2.00000   2.00000   2.00000
                  --------  --------  --------  --------  --------  --------
 0 C  s               0.0       1.9       9.6       6.9      21.5       1.3
 0 C  pz              0.0       0.2       0.4       0.3       0.3       0.0
 0 C  px              0.0       1.1       0.5       0.1       0.0       0.0
 0 C  py              0.0       0.4       0.6       0.1       0.7       0.0
 1 C  s               0.0      11.5      12.8       2.7       0.0       0.0
 1 C  pz              0.0       1.6       0.2       1.2       3.7       0.3
 1 C  px              0.0       3.1       2.4       6.9       0.4       0.2
 1 C  py              0.1       0.2       0.0       0.1      11.2       0.2
 1 C  dxz             0.0       0.2       0.0       0.2       0.1       0.0
 1 C  dxy             0.0       0.0       0.0       0.0       0.2       0.0
 2 C  s              99.7       1.8       7.6       9.9      20.9       0.4
 2 C  pz              0.0       0.3       0.2       0.0       0.2       0.0
 2 C  px              0.0       0.6       0.1       0.0       0.0       0.0
 2 C  py              0.0       0.8       1.2       0.3       0.6       0.0
 3 N  s               0.0      38.0       0.0      11.2       0.0       0.0
 3 N  pz              0.0       1.3       0.0       0.9       0.4       0.4
 3 N  px              0.0       0.1       9.6       0.0       0.0       0.0
 3 N  py              0.0       0.4       0.4       0.7       1.0       0.2
 3 N  dz2             0.0       0.0       0.0       0.1       0.1       0.1
 3 N  dxz             0.0       0.0       2.0       0.0       0.2       0.2
 3 N  dx2y2           0.0       0.6       0.0       0.8       0.0       0.0
 3 N  dxy             0.0       0.2       0.0       0.1       0.4       0.7
 4 C  s               0.0      11.7      12.3       3.2       0.0       0.0
 4 C  pz              0.0       1.1       0.2       0.8       0.1       6.2
 4 C  px              0.0       3.3       2.0       7.2       0.3       0.2
 4 C  py              0.0       0.5       0.0       0.1       0.7       8.5
 4 C  dxz             0.0       0.1       0.0       0.2       0.0       0.1
 4 C  dxy             0.0       0.0       0.0       0.0       0.0       0.2
 5 C  s               0.0       1.7       8.7       8.8       0.2      21.1
 5 C  pz              0.0       0.3       0.6       0.4       0.0       0.4
 5 C  px              0.0       0.9       0.5       0.1       0.0       0.0
 5 C  py              0.0       0.4       0.5       0.1       0.0       0.5
 6 C  s               0.0       1.8       7.1       9.1       1.9      22.3
 6 C  pz              0.0       0.4       0.3       0.0       0.0       0.4
 6 C  px              0.0       0.7       0.1       0.1       0.0       0.0
 6 C  py              0.0       0.7       1.0       0.3       0.0       0.6
 7 H  s               0.0       0.2       1.3       1.1       5.6       0.3
 7 H  py              0.0       0.0       0.1       0.1       0.4       0.0
 8 H  s               0.0       0.2       1.4       1.6       4.8       0.3
 8 H  pz              0.0       0.0       0.0       0.0       0.1       0.0
 8 H  px              0.0       0.0       0.1       0.1       0.3       0.0
 9 H  s               0.0       0.2       1.4       1.2       4.8       0.3
 9 H  pz              0.0       0.0       0.1       0.1       0.3       0.0
 9 H  py              0.0       0.0       0.0       0.0       0.1       0.0
10 H  s               0.0       1.0       1.6       0.6       0.0       0.0
10 H  pz              0.0       0.1       0.1       0.0       0.0       0.0
11 H  s               0.0       0.2       1.1       1.8       4.6       0.1
11 H  pz              0.0       0.0       0.1       0.1       0.3       0.0
12 H  s               0.0       0.2       1.0       1.8       5.5       0.1
12 H  pz              0.0       0.0       0.0       0.0       0.1       0.0
12 H  px              0.0       0.0       0.0       0.1       0.2       0.0
12 H  py              0.0       0.0       0.0       0.0       0.1       0.0
13 H  s               0.0       0.1       1.1       2.1       4.6       0.1
13 H  pz              0.0       0.0       0.0       0.1       0.1       0.0
13 H  px              0.0       0.0       0.1       0.1       0.3       0.0
14 H  s               0.0       6.3       0.0       3.2       0.2       0.0
14 H  pz              0.0       0.4       0.0       0.2       0.0       0.0
14 H  py              0.0       0.5       0.0       0.3       0.0       0.0
15 H  s               0.0       1.1       1.6       0.8       0.0       0.0
16 H  s               0.0       0.1       1.3       1.9       0.0       4.8
16 H  px              0.0       0.0       0.1       0.1       0.0       0.3
17 H  s               0.0       0.2       1.3       1.6       0.0       4.8
17 H  pz              0.0       0.0       0.1       0.1       0.0       0.2
17 H  py              0.0       0.0       0.0       0.0       0.0       0.2
18 H  s               0.0       0.2       1.2       1.5       0.1       5.5
18 H  px              0.0       0.0       0.0       0.0       0.0       0.1
18 H  py              0.0       0.0       0.1       0.1       0.0       0.3
19 H  s               0.0       0.2       0.9       1.6       0.4       5.8
19 H  pz              0.0       0.0       0.0       0.0       0.0       0.2
19 H  px              0.0       0.0       0.0       0.0       0.0       0.2
19 H  py              0.0       0.0       0.0       0.0       0.0       0.1
20 H  s               0.0       0.1       1.1       2.0       0.4       5.1
20 H  px              0.0       0.0       0.1       0.1       0.0       0.3
21 H  s               0.0       0.2       1.0       1.6       0.5       4.9
21 H  pz              0.0       0.0       0.0       0.1       0.0       0.2
21 H  py              0.0       0.0       0.0       0.1       0.0       0.2

                     12        13        14        15        16        17   
                  -0.54617  -0.52938  -0.44909  -0.42224  -0.41007  -0.38920
                   2.00000   2.00000   2.00000   2.00000   2.00000   2.00000
                  --------  --------  --------  --------  --------  --------
 0 C  s               4.4       0.9       0.1       0.6       0.1       0.1
 0 C  pz              0.7       2.2       7.8       0.4       0.3       3.6
 0 C  px              3.4       0.8       0.0       3.7       3.0       0.1
 0 C  py              0.8       0.2       0.9       3.9      13.0       2.2
 1 C  s               5.1       7.5       0.5       0.5       0.6       0.0
 1 C  pz              0.1       3.7      15.1       2.2       0.9       0.0
 1 C  px              1.6       1.1       2.2       2.8       5.6       4.4
 1 C  py              0.3       0.6       6.8       0.6       5.7       0.6
 2 C  s               1.5       4.6       0.0       0.0       0.5       0.0
 2 C  pz              0.1       0.0       5.0       0.8       9.8       0.0
 2 C  px              0.5       2.7       1.3       2.2       0.2       6.0
 2 C  py              1.4       4.5       2.7       0.5       6.6       2.4
 3 N  s               0.0       2.2       0.4       0.3       0.0       0.3
 3 N  pz              0.3      14.0       0.8       7.3       0.3       6.5
 3 N  px             11.2       1.1      13.0       1.1       0.7       0.6
 3 N  py              2.7       2.5       2.4       5.7       7.4       0.1
 3 N  dz2             0.0       0.3       0.0       0.3       0.5       0.0
 3 N  dxz             1.8       0.0       0.4       0.1       0.1       0.0
 3 N  dyz             0.5       0.2       0.3       0.1       0.0       0.1
 3 N  dx2y2           0.0       0.3       0.0       0.4       1.3       0.4
 3 N  dxy             0.0       0.7       0.0       0.0       0.1       0.4
 4 C  s               8.8       3.3       0.1       1.6       0.1       0.1
 4 C  pz              0.4       5.0       5.4       0.7       6.1       0.8
 4 C  px              2.9       0.4       0.0      13.8       0.4       0.9
 4 C  py              0.8       2.5       4.3       0.0       0.2       6.3
 5 C  s               5.7       0.3       0.0       0.5       0.1       0.0
 5 C  pz              2.0       1.6       1.1       9.0       1.2       0.3
 5 C  px              3.9       0.2       0.5       0.2       2.7       4.1
 5 C  py              0.5       0.1       2.4       4.4       1.9      14.6
 6 C  s               3.0       1.1       0.2       0.5       0.1       0.2
 6 C  pz              0.2       0.2       2.9       2.2       2.1      14.3
 6 C  px              1.4       0.7       1.1       0.8       0.7       0.0
 6 C  py              2.5       2.0       0.3      11.0       1.5       0.5
 7 H  s               1.6       0.6       0.0       1.1       6.6       1.9
 7 H  py              0.1       0.0       0.0       0.0       0.1       0.0
 8 H  s               2.6       0.4       0.6       1.8       0.2       0.3
 9 H  s               2.0       1.1       2.8       0.2       0.8       0.5
10 H  s               1.9       5.7       7.2       0.2       1.3       0.0
10 H  pz              0.1       0.3       0.2       0.0       0.0       0.0
10 H  px              0.0       0.0       0.1       0.0       0.0       0.0
10 H  py              0.0       0.1       0.1       0.0       0.0       0.0
11 H  s               0.7       3.2       1.5       0.2       0.1       0.1
11 H  pz              0.0       0.2       0.0       0.0       0.0       0.0
12 H  s               0.8       1.5       0.1       1.2       5.9       2.1
12 H  px              0.0       0.1       0.0       0.0       0.1       0.0
13 H  s               0.8       2.6       1.8       0.2       0.9       2.2
14 H  s               0.3       6.8       1.0       3.2       1.8       2.2
14 H  pz              0.0       0.1       0.0       0.0       0.1       0.0
14 H  px              0.1       0.0       0.1       0.0       0.0       0.0
14 H  py              0.0       0.4       0.0       0.1       0.0       0.1
15 H  s               4.6       4.8       2.3       0.3       1.6       1.7
15 H  pz              0.2       0.2       0.0       0.0       0.0       0.1
15 H  px              0.0       0.0       0.0       0.2       0.0       0.0
15 H  py              0.1       0.1       0.0       0.0       0.0       0.0
16 H  s               3.1       0.0       0.9       0.1       2.4       0.0
16 H  px              0.1       0.0       0.0       0.0       0.1       0.0
17 H  s               3.1       0.7       0.5       0.8       0.3       4.2
17 H  pz              0.1       0.0       0.0       0.0       0.0       0.2
17 H  py              0.1       0.0       0.0       0.1       0.0       0.0
18 H  s               2.0       0.1       0.2       4.8       0.0       5.6
18 H  py              0.1       0.0       0.0       0.1       0.0       0.1
19 H  s               1.4       0.3       0.1       5.0       0.2       3.5
19 H  px              0.1       0.0       0.0       0.1       0.0       0.1
20 H  s               1.6       0.4       1.4       0.0       0.0       1.9
21 H  s               1.8       1.5       0.2       0.7       1.9       1.5

                     18        19        20        21        22        23   
                  -0.37074  -0.36344  -0.34823  -0.34471  -0.33533  -0.31452
                   2.00000   2.00000   2.00000   2.00000   2.00000   2.00000
                  --------  --------  --------  --------  --------  --------
 0 C  pz              0.3       1.0      18.8       0.9       4.0       6.0
 0 C  px              0.3      23.2       0.1       0.1       3.1       3.0
 0 C  py              3.8       0.3       8.9       0.7       0.2       0.3
 0 C  dz2             0.0       0.0       0.1       0.0       0.0       0.0
 0 C  dxz             0.0       0.2       0.1       0.0       0.0       0.1
 0 C  dx2y2           0.0       0.1       0.0       0.0       0.0       0.2
 0 C  dxy             0.0       0.0       0.0       0.0       0.0       0.1
 1 C  s               0.1       0.2       0.0       0.0       0.0       0.1
 1 C  pz              0.6       1.6       1.0       0.0       0.7       5.1
 1 C  px              0.0       0.5       0.3       0.0       1.4       1.2
 1 C  py              0.1       3.3       1.1       0.0       0.3       0.2
 1 C  dz2             0.0       0.0       0.2       0.0       0.0       0.0
 1 C  dxz             0.0       0.1       0.0       0.0       0.1       0.1
 1 C  dx2y2           0.1       0.1       0.0       0.0       0.2       0.2
 2 C  pz              2.3       3.2      14.0       1.1       4.6       5.3
 2 C  px              5.7       0.3       4.6       0.1      26.1       0.5
 2 C  py              0.0       3.0       3.7       0.3       2.6       0.6
 2 C  dxz             0.0       0.0       0.0       0.0       0.4       0.0
 2 C  dyz             0.0       0.0       0.2       0.0       0.0       0.0
 2 C  dx2y2           0.0       0.0       0.0       0.0       0.2       0.1
 3 N  s               0.3       1.9       0.4       0.0       0.4       0.0
 3 N  pz              1.6       0.0       2.3       0.2       7.3       0.3
 3 N  px              0.1       0.0       0.0       0.0       0.1       9.2
 3 N  py              2.8       0.0       0.5       0.3       1.6       1.6
 3 N  dz2             0.1       0.8       0.1       0.0       0.0       0.0
 3 N  dxz             0.7       0.0       0.0       0.2       0.2       0.2
 3 N  dyz             0.2       0.1       0.2       0.0       0.2       0.0
 3 N  dx2y2           0.1       0.1       0.1       0.1       0.0       0.0
 3 N  dxy             0.4       0.8       0.0       0.0       0.6       0.0
 4 C  s               0.1       0.3       0.0       0.0       0.0       0.1
 4 C  pz              4.8       0.6       0.1       0.1       0.1       6.1
 4 C  px              0.7       0.3       0.5       0.0       1.8       0.7
 4 C  py              7.2       0.4       0.0       0.2       0.0       0.1
 4 C  dz2             0.0       0.0       0.1       0.2       0.0       0.0
 4 C  dx2y2           0.1       0.2       0.1       0.0       0.2       0.2
 4 C  dxy             0.0       0.0       0.0       0.0       0.0       0.1
 5 C  s               0.2       0.0       0.0       0.0       0.0       0.0
 5 C  pz              2.2       1.6       1.4      14.7       0.3       9.0
 5 C  px              7.3      14.6       1.8       0.7       0.5       4.3
 5 C  py              0.1       0.1       0.3      11.0       0.2       0.4
 5 C  dx2y2           0.0       0.0       0.0       0.1       0.0       0.2
 5 C  dxy             0.0       0.0       0.0       0.0       0.0       0.2
 6 C  pz              0.4       1.0       0.5      18.0       0.0       7.5
 6 C  px             29.3       3.1       0.9       0.9       5.0       0.0
 6 C  py              0.3       2.7       0.1       9.8       0.1       0.6
 6 C  dxz             0.1       0.1       0.0       0.1       0.0       0.0
 6 C  dyz             0.2       0.0       0.0       0.1       0.0       0.1
 6 C  dxy             0.0       0.0       0.0       0.1       0.0       0.1
 7 H  s               1.5       3.1       1.0       0.2       1.4       2.1
 7 H  pz              0.0       0.0       0.2       0.0       0.0       0.0
 7 H  py              0.0       0.1       0.0       0.0       0.0       0.0
 8 H  s               0.0      10.5       4.3       0.1       3.3       5.1
 8 H  pz              0.0       0.1       0.0       0.0       0.0       0.0
 8 H  px              0.0       0.1       0.2       0.0       0.1       0.0
 9 H  s               0.9       0.2      12.9       0.8       0.5       1.3
 9 H  pz              0.0       0.0       0.1       0.0       0.0       0.0
 9 H  px              0.0       0.1       0.1       0.0       0.0       0.0
10 H  s               0.1       0.1       0.1       0.0       0.2       2.1
11 H  s               1.5       3.4      10.2       0.6       0.9       1.6
11 H  pz              0.0       0.1       0.1       0.0       0.0       0.0
11 H  px              0.0       0.0       0.0       0.0       0.3       0.0
12 H  s               2.3       0.0       2.9       0.0       5.0       0.9
12 H  pz              0.0       0.0       0.0       0.0       0.2       0.0
12 H  py              0.0       0.0       0.2       0.0       0.0       0.0
13 H  s               0.6       0.3       0.1       0.4      18.0       1.7
13 H  pz              0.1       0.0       0.1       0.0       0.1       0.0
13 H  px              0.0       0.0       0.1       0.0       0.1       0.0
14 H  s               0.0       0.2       0.7       0.0       2.7       0.0
14 H  px              0.0       0.0       0.0       0.0       0.0       0.1
15 H  s               0.0       0.1       0.2       0.0       0.1       2.3
16 H  s               1.6       6.9       1.7       6.0       0.0       6.4
16 H  px              0.0       0.0       0.0       0.2       0.0       0.1
17 H  s               1.8       0.0       0.4      10.9       0.3       1.2
18 H  s               0.0       2.9       0.2       0.3       0.1       4.2
18 H  pz              0.0       0.0       0.0       0.2       0.0       0.0
18 H  py              0.0       0.1       0.0       0.0       0.0       0.1
19 H  s               4.7       0.8       0.4       0.2       1.2       2.5
19 H  pz              0.1       0.0       0.0       0.1       0.0       0.0
19 H  py              0.1       0.0       0.0       0.1       0.0       0.0
20 H  s               8.0       2.6       0.1       6.9       2.0       0.9
20 H  pz              0.2       0.0       0.0       0.0       0.0       0.0
20 H  px              0.0       0.0       0.0       0.2       0.0       0.0
21 H  s               2.6       0.9       0.4      11.6       0.1       2.1
21 H  px              0.1       0.0       0.0       0.1       0.0       0.0

                     24        25        26        27        28        29   
                  -0.30749  -0.29895  -0.29027  -0.28468  -0.18333   0.08659
                   2.00000   2.00000   2.00000   2.00000   2.00000   0.00000
                  --------  --------  --------  --------  --------  --------
 0 C  s               0.1       0.1       0.2       0.9       0.1       5.3
 0 C  pz              3.3       0.6       0.4       5.0       0.0       0.6
 0 C  px              1.8       0.1       6.2       4.5       0.1       1.2
 0 C  py              2.0      14.0       0.3       2.6       0.1       1.9
 0 C  dxz             0.0       0.1       0.0       0.0       0.0       0.3
 0 C  dyz             0.1       0.1       0.1       0.0       0.0       0.1
 0 C  dx2y2           0.0       0.2       0.1       0.0       0.0       0.0
 0 C  dxy             0.0       0.1       0.0       0.1       0.0       0.2
 1 C  s               0.0       0.0       0.0       0.2       0.4       3.9
 1 C  pz              3.6       0.5       0.1       8.6       1.0       2.2
 1 C  px              2.4       0.2       9.5       2.7       0.0       1.5
 1 C  py              2.1      15.9       0.1       0.8       1.7       2.1
 1 C  dz2             0.0       0.0       0.0       0.1       0.4       0.0
 1 C  dxz             0.1       0.2       0.1       0.0       0.0       0.3
 1 C  dyz             0.1       0.1       0.2       0.2       0.6       0.0
 1 C  dx2y2           0.0       0.1       0.0       0.0       0.1       0.0
 1 C  dxy             0.1       0.2       0.0       0.4       0.3       0.0
 2 C  s               0.0       0.7       0.0       0.0       0.9       6.6
 2 C  pz              2.9       0.7       0.2       6.0       0.4       0.6
 2 C  px              0.2       0.4       2.0       2.1       0.6       0.1
 2 C  py              3.4      16.0       0.7       1.5       1.7       1.0
 2 C  dyz             0.1       0.0       0.0       0.3       0.0       0.0
 2 C  dx2y2           0.0       0.0       0.1       0.0       0.0       0.3
 2 C  dxy             0.0       0.1       0.0       0.2       0.0       0.2
 3 N  s               0.2       0.0       0.1       0.1       3.6       4.1
 3 N  pz              2.0       0.4       0.6       3.1      18.5       2.1
 3 N  px              1.7       0.4       7.1       1.0       3.4       0.0
 3 N  py              2.8       0.0       0.0       1.5      41.5       0.6
 3 N  dz2             0.1       0.0       0.1       1.1       0.4       0.1
 3 N  dxz             0.0       0.0       0.3       0.1       0.3       0.0
 3 N  dyz             0.5       0.0       0.9       0.5       1.0       0.4
 3 N  dx2y2           0.0       0.1       0.1       0.8       0.0       3.1
 3 N  dxy             0.0       1.1       0.1       0.1       0.1       1.3
 4 C  s               0.0       0.0       0.1       0.3       0.1       3.4
 4 C  pz              0.0       0.4       7.6       4.1       1.0       1.4
 4 C  px              0.0       1.7      11.0       0.1       0.7       1.2
 4 C  py              5.6       5.4       0.4       7.6       1.1       0.7
 4 C  dxz             0.1       0.0       0.2       0.2       0.3       0.2
 4 C  dyz             0.0       0.2       0.5       0.3       0.1       0.0
 4 C  dxy             0.0       0.0       0.1       0.0       0.8       0.0
 5 C  s               0.0       0.0       1.0       0.1       0.5       3.7
 5 C  pz              0.6       0.2       7.7       1.1       0.5       0.9
 5 C  px              1.4       1.1       9.3       0.1       1.2       0.6
 5 C  py              9.4       4.4       2.7       2.2       0.3       0.9
 5 C  dz2             0.0       0.0       0.0       0.1       0.0       0.1
 5 C  dxz             0.1       0.0       0.1       0.1       0.0       0.2
 5 C  dyz             0.2       0.1       0.1       0.1       0.0       0.0
 6 C  s               0.1       0.4       0.0       0.4       0.7       8.5
 6 C  pz              0.8       0.5       2.6       1.0       1.6       0.9
 6 C  px              3.9       1.9       3.6       0.7       1.3       0.7
 6 C  py              9.5       5.6       0.1       3.2       2.9       1.5
 6 C  dxz             0.3       0.0       0.1       0.1       0.0       0.0
 6 C  dyz             0.0       0.0       0.3       0.1       0.0       0.0
 6 C  dx2y2           0.0       0.0       0.0       0.0       0.0       0.3
 6 C  dxy             0.0       0.0       0.1       0.0       0.0       0.3
 7 H  s               1.3       8.0       0.4       0.4       0.0       2.1
 7 H  px              0.0       0.1       0.0       0.1       0.0       0.7
 7 H  py              0.0       0.0       0.0       0.0       0.0       0.3
 8 H  s               0.0       0.0       2.0       0.2       0.0       1.4
 8 H  pz              0.0       0.0       0.1       0.1       0.0       0.3
 8 H  px              0.0       0.0       0.0       0.0       0.0       0.2
 8 H  py              0.0       0.1       0.0       0.0       0.0       0.1
[...]
19 H  px              1.8       3.8       1.0       0.2       0.5       0.0
19 H  py              0.7       1.7       0.1       0.1       0.5       0.1
20 H  s               0.3       0.6       0.1       0.6       0.3       0.1
20 H  pz              0.5       0.0       0.1       0.3       0.2       0.1
20 H  px              0.1       1.8       0.1       1.1       0.5       0.1
20 H  py              0.0       0.4       0.1       0.2       0.2       0.0
21 H  s               0.1       2.8       0.5       0.2       1.7       0.0
21 H  pz              0.0       2.5       1.4       0.1       2.1       0.1
21 H  px              0.0       0.4       0.3       0.2       0.2       0.0
21 H  py              0.2       3.1       0.3       0.3       2.2       0.0

                    204       205       206       207       208       209   
                   4.03818   4.24541  21.92893  21.93904  22.01994  22.02881
                   0.00000   0.00000   0.00000   0.00000   0.00000   0.00000
                  --------  --------  --------  --------  --------  --------
 0 C  s               0.1       0.0       1.1      60.9       1.9      31.2
 0 C  px              0.2       0.0       0.0       0.0       0.0       0.0
 0 C  dxz             0.2       0.1       0.0       0.0       0.0       0.0
 0 C  dyz             0.1       0.0       0.0       0.0       0.0       0.0
 1 C  s               1.3       0.1       1.4       3.4       4.7       2.0
 1 C  pz              2.5       0.0       0.0       0.0       0.0       0.0
 1 C  px              4.9       1.2       0.0       0.0       0.0       0.0
 1 C  py              0.5       0.1       0.0       0.0       0.0       0.0
 1 C  dz2             0.1       0.0       0.0       0.0       0.0       0.0
 1 C  dxz             6.9       0.6       0.0       0.0       0.0       0.0
 1 C  dyz             0.0       0.5       0.0       0.0       0.0       0.0
 1 C  dx2y2           2.5       0.7       0.0       0.0       0.0       0.0
 1 C  dxy             0.5       0.1       0.0       0.0       0.0       0.0
 2 C  s               0.0       0.0      18.3      17.1       9.1      54.6
 2 C  dxz             0.1       0.0       0.0       0.0       0.0       0.0
 2 C  dx2y2           0.2       0.0       0.0       0.0       0.0       0.0
 3 N  s               0.0       1.2       0.0       0.0       0.0       0.0
 3 N  pz              0.3      10.0       0.0       0.0       0.0       0.0
 3 N  px             27.1       0.1       0.0       0.0       0.0       0.0
 3 N  py              1.1       6.5       0.0       0.0       0.0       0.0
 3 N  dz2             0.1       0.3       0.0       0.0       0.0       0.0
 3 N  dxz            26.9       1.2       0.0       0.0       0.0       0.0
 3 N  dyz             2.1      19.0       0.0       0.0       0.0       0.0
 3 N  dx2y2           0.0      16.4       0.0       0.0       0.0       0.0
 3 N  dxy             0.2       4.3       0.0       0.0       0.0       0.0
 4 C  s               1.0       0.2       0.1       4.1       0.0       0.8
 4 C  pz              1.7       0.5       0.0       0.0       0.0       0.0
 4 C  px              4.1       1.3       0.0       0.0       0.0       0.0
 4 C  py              0.9       0.1       0.0       0.0       0.0       0.0
 4 C  dz2             0.3       0.1       0.0       0.0       0.0       0.0
 4 C  dxz             4.9       0.9       0.0       0.0       0.0       0.0
 4 C  dyz             0.1       0.0       0.0       0.0       0.0       0.0
 4 C  dx2y2           2.3       1.4       0.0       0.0       0.0       0.0
 4 C  dxy             0.9       0.5       0.0       0.0       0.0       0.0
 5 C  s               0.0       0.0      38.9      14.0      25.4      10.7
 5 C  px              0.1       0.0       0.0       0.0       0.0       0.0
 5 C  dz2             0.1       0.0       0.0       0.0       0.0       0.0
 5 C  dxz             0.2       0.0       0.0       0.0       0.0       0.0
 6 C  s               0.0       0.0      39.9       0.0      58.5       0.4
 6 C  dx2y2           0.1       0.0       0.0       0.0       0.0       0.0
 8 H  px              0.1       0.0       0.0       0.0       0.0       0.0
10 H  s               0.5       0.0       0.0       0.0       0.0       0.0
10 H  pz              0.2       0.0       0.0       0.0       0.0       0.0
10 H  px              0.5       0.0       0.0       0.0       0.0       0.0
10 H  py              0.3       0.0       0.0       0.0       0.0       0.0
14 H  s               0.1      11.4       0.0       0.0       0.0       0.0
14 H  pz              0.0       8.5       0.0       0.0       0.0       0.0
14 H  px              0.3       0.6       0.0       0.0       0.0       0.0
14 H  py              0.1      10.4       0.0       0.0       0.0       0.0
15 H  s               0.4       0.2       0.0       0.0       0.0       0.0
15 H  pz              0.1       0.2       0.0       0.0       0.0       0.0
15 H  px              0.5       0.1       0.0       0.0       0.0       0.0
15 H  py              0.3       0.1       0.0       0.0       0.0       0.0
16 H  px              0.1       0.0       0.0       0.0       0.0       0.0

                    210       211       212   
                  22.08964  22.12504  32.05352
                   0.00000   0.00000   0.00000
                  --------  --------  --------
 0 C  s               3.3       1.2       0.0
 1 C  s              33.6      54.6       0.1
 2 C  s               0.2       0.3       0.0
 3 N  s               0.0       0.1      99.8
 4 C  s              55.8      38.9       0.0
 5 C  s               6.6       4.1       0.0
 6 C  s               0.2       0.6       0.0


                      *****************************
                      * MAYER POPULATION ANALYSIS *
                      *****************************

  NA   - Mulliken gross atomic population
  ZA   - Total nuclear charge
  QA   - Mulliken gross atomic charge
  VA   - Mayer's total valence
  BVA  - Mayer's bonded valence
  FA   - Mayer's free valence

  ATOM       NA         ZA         QA         VA         BVA        FA
  0 C      6.5282     6.0000    -0.5282     3.8002     3.8002     0.0000
  1 C      5.9706     6.0000     0.0294     3.4852     3.4852    -0.0000
  2 C      6.5340     6.0000    -0.5340     3.8238     3.8238    -0.0000
  3 N      7.3705     7.0000    -0.3705     2.4984     2.4984     0.0000
  4 C      6.0051     6.0000    -0.0051     3.5646     3.5646    -0.0000
  5 C      6.5256     6.0000    -0.5256     3.8162     3.8162    -0.0000
  6 C      6.5225     6.0000    -0.5225     3.7690     3.7690     0.0000
  7 H      0.8413     1.0000     0.1587     0.9594     0.9594     0.0000
  8 H      0.8385     1.0000     0.1615     0.9611     0.9611     0.0000
  9 H      0.8376     1.0000     0.1624     0.9612     0.9612    -0.0000
 10 H      0.8647     1.0000     0.1353     0.9562     0.9562     0.0000
 11 H      0.8404     1.0000     0.1596     0.9620     0.9620     0.0000
 12 H      0.8451     1.0000     0.1549     0.9605     0.9605     0.0000
 13 H      0.8414     1.0000     0.1586     0.9619     0.9619    -0.0000
 14 H      0.7304     1.0000     0.2696     0.9172     0.9172     0.0000
 15 H      0.8537     1.0000     0.1463     0.9587     0.9587    -0.0000
 16 H      0.8431     1.0000     0.1569     0.9615     0.9615    -0.0000
 17 H      0.8402     1.0000     0.1598     0.9600     0.9600    -0.0000
 18 H      0.8417     1.0000     0.1583     0.9598     0.9598     0.0000
 19 H      0.8437     1.0000     0.1563     0.9611     0.9611    -0.0000
 20 H      0.8402     1.0000     0.1598     0.9611     0.9611     0.0000
 21 H      0.8415     1.0000     0.1585     0.9631     0.9631     0.0000

  Mayer bond orders larger than 0.100000
B(  0-C ,  1-C ) :   0.9147 B(  0-C ,  7-H ) :   0.9715 B(  0-C ,  8-H ) :   0.9757 
B(  0-C ,  9-H ) :   0.9779 B(  1-C ,  2-C ) :   0.9322 B(  1-C ,  3-N ) :   0.8112 
B(  1-C , 10-H ) :   0.9223 B(  2-C , 11-H ) :   0.9794 B(  2-C , 12-H ) :   0.9666 
B(  2-C , 13-H ) :   0.9794 B(  3-N ,  4-C ) :   0.8690 B(  3-N , 14-H ) :   0.9055 
B(  4-C ,  5-C ) :   0.9316 B(  4-C ,  6-C ) :   0.8995 B(  4-C , 15-H ) :   0.9500 
B(  5-C , 16-H ) :   0.9784 B(  5-C , 17-H ) :   0.9733 B(  5-C , 18-H ) :   0.9771 
B(  6-C , 19-H ) :   0.9694 B(  6-C , 20-H ) :   0.9743 B(  6-C , 21-H ) :   0.9759 


-------
TIMINGS
-------

Total SCF time: 0 days 0 hours 0 min 30 sec 

Total time                  ....      30.338 sec
Sum of individual times     ....      29.510 sec  ( 97.3%)

SCF preparation             ....       0.666 sec  (  2.2%)
Fock matrix formation       ....      27.690 sec  ( 91.3%)
  Startup                   ....       0.068 sec  (  0.2% of F)
  Split-RI-J                ....       4.333 sec  ( 15.6% of F)
  XC integration            ....      17.056 sec  ( 61.6% of F)
    XC Preparation          ....       0.000 sec  (  0.0% of XC)
    Basis function eval.    ....       3.290 sec  ( 19.3% of XC)
    Density eval.           ....       4.827 sec  ( 28.3% of XC)
    XC-Functional eval.     ....       2.153 sec  ( 12.6% of XC)
    XC-Potential eval.      ....       5.478 sec  ( 32.1% of XC)
  CPCM terms                ....       5.634 sec  ( 20.3% of F)
Diagonalization             ....       0.000 sec  (  0.0%)
Density matrix formation    ....       0.269 sec  (  0.9%)
Total Energy calculation    ....       0.057 sec  (  0.2%)
Population analysis         ....       0.134 sec  (  0.4%)
Orbital Transformation      ....       0.068 sec  (  0.2%)
Orbital Orthonormalization  ....       0.000 sec  (  0.0%)
DIIS solution               ....       0.525 sec  (  1.7%)
  MO trafo                  ....       0.000 sec  (  0.0 % of DIIS)
  Orb grad                  ....       0.000 sec  (  0.0 % of DIIS)
  Energy W gradient         ....       0.000 sec  (  0.0 % of DIIS)
  DIIS error                ....       0.023 sec  (  4.4 % of DIIS)
  DIIS work                 ....       0.440 sec  ( 83.8 % of DIIS)
  Form Q                    ....       0.000 sec  (  0.0 % of DIIS)
  Form QpQm                 ....       0.000 sec  (  0.0 % of DIIS)
  Exp/Cayley                ....       0.000 sec  (  0.0 % of DIIS)
  Orb update                ....       0.000 sec  (  0.0 % of DIIS)
  Wake-sleep                ....       0.027 sec  (  5.2 % of DIIS)
SOSCF solution              ....       0.100 sec  (  0.3%)
  MO trafo                  ....       0.055 sec  ( 54.3 % of SOSCF)
  Orb grad                  ....       0.002 sec  (  1.5 % of SOSCF)
  Rot update                ....       0.012 sec  ( 11.6 % of SOSCF)
  Step                      ....       0.033 sec  ( 32.4 % of SOSCF)
Finished LeanSCF after  30.5 sec

Maximum memory used throughout the entire LEANSCF-calculation: 33.1 MB


-------------------------------------------------------------------------------
                          DFT DISPERSION CORRECTION                            
                                                                               
                                DFTD4 V3.4.0                                   
-------------------------------------------------------------------------------
The R2SCAN3C composite method is recognized
Using three-body term ABC
Active option DFTDOPT                   ...         5   

-------------------------   ----------------
Dispersion correction           -0.005937338
-------------------------   ----------------

------------------   -----------------
gCP correction             0.014386243
------------------   -----------------

-------------------------   --------------------
FINAL SINGLE POINT ENERGY      -292.321775903856
-------------------------   --------------------


------------------------------------------------------------------------------
                              ORCA PROPERTY CALCULATIONS
------------------------------------------------------------------------------

GBWName                                 ... sp_solv.gbw
Number of atoms                         ...     22
Number of basis functions               ...    213
Max core memory                         ...   1024 MB

Electric properties:
Dipole moment                           ... YES
Quadrupole moment                       ...  NO
Static polarizability (Dipole/Dipole)   ...  NO
Static polarizability (Dipole/Quad.)    ...  NO
Static polarizability (Quad./Quad.)     ...  NO
Static polarizability (Velocity)        ...  NO

Atomic electric properties:
Dipole moment                           ...  NO
Quadrupole moment                       ...  NO
Static polarizability                   ...  NO

Choice of electric origin               ... Center of mass
Position of electric origin             ...    -0.000000     0.000001    -0.000002

General magnetic properties:
Magnetizability                         ...  NO

EPR properties:
g-Tensor (aka g-matrix)                 ...  NO
Zero-Field splitting spin-orbit         ...  NO
Zero-field splitting spin-spin          ...  NO
Hyperfine couplings                     ...  NO (   0 nuclei)
Quadrupole couplings                    ...  NO (   0 nuclei)
Contact density                         ...  NO (   0 nuclei)

NMR properties:
Chemical shifts                         ...  NO (   0 nuclei)
Spin-rotation constants                 ...  NO (   0 nuclei)
Spin-spin couplings                     ...  NO (   0 nuclei,    0 pairs)

Choice of magnetic origin               ... GIAO
Position of magnetic origin             ...     0.000000     0.000000     0.000000

Properties with geometric perturbations:
SCF Hessian                             ...  NO
IR spectrum                             ...  NO
VCD spectrum                            ...  NO
X-ray spectroscopy properties:
SCF XES/XAS/RIXS spectra                ...  NO


-------------
DIPOLE MOMENT
-------------

Method             : SCF
Type of density    : Electron Density
Multiplicity       :   1
Irrep              :   0
Energy             :  -292.3302248081350854 Eh
Relativity type    : 
Basis              : AO
                                X                 Y                 Z
Electronic contribution:      0.043001114      -0.066492304      -0.455988082
Nuclear contribution   :     -0.172091878       0.555690701       0.740325390
                        -----------------------------------------
Total Dipole Moment    :     -0.129090764       0.489198397       0.284337308
                        -----------------------------------------
Magnitude (a.u.)       :      0.580368160
Magnitude (Debye)      :      1.475178629



--------------------
Rotational spectrum 
--------------------
 
Rotational constants in cm-1:             0.137377             0.048247             0.044808 
Rotational constants in MHz :          4118.472667          1446.403402          1343.298216 

Dipole components along the rotational axes: 
x,y,z [a.u.] :     0.064062    -0.516694    -0.256419 
x,y,z [Debye]:     0.162833    -1.313331    -0.651766 

 

Dipole moment calculation done in   0.0 sec 

Maximum memory used throughout the entire PROP-calculation: 13.4 MB

--------------------------------
SUGGESTED CITATIONS FOR THIS RUN
--------------------------------

Below you find a list of papers that are relevant to this ORCA run
We neither can nor want to force you to cite these papers, but we appreciate if you do
You receive ORCA, which is the product of decades of hard work by many enthusiastic individuals, for free
The only thing we kindly ask in return is that you cite our papers,
We deeply appreciate it, if you show your appreciation for ORCA by not just citing the generic ORCA reference.

Please note that relegating all ORCA citations to the supporting information does *not* help us.
SI sections are not indexed - citations you put there will not count into any citation statistics
But we need these citations in order to attract the funding resources that allow us to do what we are doing

Therefore, if you are a happy ORCA user, please consider citing a few of the papers listed below in the main body of your paper

In addition to the list printed below, the program has created the file sp_solv.bibtex that contains the list in bibtex format
You can import this file easily into all common literature databanks and citation aid programs


List of essential papers. We consider these as the minimum necessary citations

  1. Neese,F.
     Software update: the ORCA program system, version 5.0
     WIRES Comput. Molec. Sci., 2022 12(1)e1606
     doi.org/10.1002/wcms.1606
  2. Grimme,S.; Hansen,A.; Ehlert,S.; Mewes,J.
     r2SCAN-3c: A 'Swiss army knife' composite electronic-structure method
     J. Chem. Phys., 2021 154 064103
     doi.org/10.1063/5.0040021

List of papers to cite with high priority. The work reported in these papers was absolutely
necessary for this run to complete.
Our perspective: the developers of density functionals and basis sets usually get cited in chemistry papers
Good! But without the algorithms to do something with them, the functionals or basis sets would not do anything.
Hence, in our opinion, the algorithm design and method developments papers are equally worthy of getting cited

  1. Neese,F.
     An improvement of the resolution of the identity approximation for the formation of the Coulomb matrix
     J. Comp. Chem., 2003 24(14)1740-1747
     doi.org/10.1002/jcc.10318
  2. Garcia-Rates,M.; Neese,F.
     Effect of the Solute Cavity on the Solvation Energy and its Derivatives within the Framework of the Gaussian Charge Scheme
     J. Comput. Chem., 2020 41 922-939
     doi.org/10.1002/jcc.26139
  3. Neese,F.
     The SHARK Integral Generation and Digestion System
     J. Comp. Chem., 2022  1-16
     doi.org/10.1002/jcc.26942
  4. Lehtola,S.; Steigemann,C.; Oliveira,M.; Marques,M.
     Recent developments in Libxc - A comprehensive library of functionals for density functional theory
     Software X, 2018 7 
     doi.org/10.1016/j.softx.2017.11.002
  5. Caldeweyher,E.; Bannwarth,C.; Grimme,S.
     Extension of the D3 dispersion coefficient model
     J. Chem. Phys., 2017 147 034112-XXXX
     doi.org/10.1063/1.4993215
  6. Caldeweyher,E.; Ehlert,S.; Hansen,A.; Neugebauer,H.; Spicher,S.; Bannwarth,C.; Grimme,S.
     A generally applicable atomic-charge dependent London dispersion correction
     J. Chem. Phys., 2019 150 154122-XXXX
     doi.org/10.1063/1.5090222
  7. Caldeweyher,E.; Mewes,J.; Ehlert,S.; Grimme,S.
     Extension and evaluation of the D4 London-dispersion model for periodic systems
     Phys. Chem. Chem. Phys., 2020 22(16)8499-8512
     doi.org/10.1039/D0CP00502A

List of suggested additional citations. These are papers that are important in the 'surrounding' of 
of this run, or papers that preceded the highly important papers. If you like your results we are grateful for a citation.

  1. Neese,F.
     The ORCA program system
     WIRES Comput. Molec. Sci., 2012 2(1)73-78
     doi.org/10.1002/wcms.81
  2. Neese,F.
     Software update: the ORCA program system, version 4.0
     WIRES Comput. Molec. Sci., 2018 8(1)1-6
     doi.org/10.1002/wcms.1327
  3. Neese,F.; Wennmohs,F.; Becker,U.; Riplinger,C.
     The ORCA quantum chemistry program package
     J. Chem. Phys., 2020 152 Art. No. L224108
     doi.org/10.1063/5.0004608

List of optional additional citations

  1. Neese,F.
     Approximate second-order SCF convergence for spin unrestricted wavefunctions
     Chem. Phys. Lett., 2000 325(1-3)93-98
     doi.org/10.1016/s0009-2614(00)00662-x

Timings for individual modules:

Sum of individual times          ...       32.289 sec (=   0.538 min)
Startup calculation              ...        1.338 sec (=   0.022 min)   4.1 %
SCF iterations                   ...       30.831 sec (=   0.514 min)  95.5 %
Property calculations            ...        0.120 sec (=   0.002 min)   0.4 %
                             ****ORCA TERMINATED NORMALLY****
TOTAL RUN TIME: 0 days 0 hours 0 minutes 33 seconds 136 msec
