      -----------------------------------------------------------      
     |                   =====================                   |     
     |                           x T B                           |     
     |                   =====================                   |     
     |                         S. Grimme                         |     
     |          Mulliken Center for Theoretical Chemistry        |     
     |                    University of Bonn                     |     
      -----------------------------------------------------------      

   * xtb version 6.7.1 (edcfbbe) compiled by 'albert@albert-system' on 2024-07-22

   xtb is free software: you can redistribute it and/or modify it under
   the terms of the GNU Lesser General Public License as published by
   the Free Software Foundation, either version 3 of the License, or
   (at your option) any later version.
   
   xtb is distributed in the hope that it will be useful,
   but WITHOUT ANY WARRANTY; without even the implied warranty of
   MERCHANTABILITY or FITNESS FOR A PARTICULAR PURPOSE.  See the
   GNU Lesser General Public License for more details.
   
   Cite this work as:
   * C. Bannwarth, E. Caldeweyher, S. Ehlert, A. Hansen, P. Pracht,
     J. Seibert, S. Spicher, S. Grimme, WIREs Comput. Mol. Sci., 2020, 11,
     e01493. DOI: 10.1002/wcms.1493
   
   for GFN2-xTB:
   * C. Bannwarth, S. Ehlert and S. Grimme., J. Chem. Theory Comput., 2019,
     15, 1652-1671. DOI: 10.1021/acs.jctc.8b01176
   for GFN1-xTB:
   * S. Grimme, C. Bannwarth, P. Shushkov, J. Chem. Theory Comput., 2017,
     13, 1989-2009. DOI: 10.1021/acs.jctc.7b00118
   for GFN0-xTB:
   * P. Pracht, E. Caldeweyher, S. Ehlert, S. Grimme, ChemRxiv, 2019, preprint.
     DOI: 10.26434/chemrxiv.8326202.v1
   for GFN-FF:
   * S. Spicher and S. Grimme, Angew. Chem. Int. Ed., 2020, 59, 15665-15673.
     DOI: 10.1002/anie.202004239
   
   for ALPB and GBSA implicit solvation:
   * S. Ehlert, M. Stahn, S. Spicher, S. Grimme, J. Chem. Theory Comput.,
     2021, 17, 4250-4261. DOI: 10.1021/acs.jctc.1c00471
   
   for ddCOSMO and CPCM-X implicit solvation:
   * M. Stahn, S. Ehlert, S. Grimme, J. Phys. Chem. A,
     2023, XX, XXXX-XXXX. DOI: 10.1021/acs.jpca.3c04382
   
   for DFT-D4:
   * E. Caldeweyher, C. Bannwarth and S. Grimme, J. Chem. Phys., 2017,
     147, 034112. DOI: 10.1063/1.4993215
   * E. Caldeweyher, S. Ehlert, A. Hansen, H. Neugebauer, S. Spicher,
     C. Bannwarth and S. Grimme, J. Chem. Phys., 2019, 150, 154122.
     DOI: 10.1063/1.5090222
   * E. Caldeweyher, J.-M. Mewes, S. Ehlert and S. Grimme, Phys. Chem. Chem. Phys.
     2020, 22, 8499-8512. DOI: 10.1039/D0CP00502A
   
   for sTDA-xTB:
   * S. Grimme and C. Bannwarth, J. Chem. Phys., 2016, 145, 054103.
     DOI: 10.1063/1.4959605
   
   in the mass-spec context:
   * V. Asgeirsson, C. Bauer and S. Grimme, Chem. Sci., 2017, 8, 4879.
     DOI: 10.1039/c7sc00601b
   * J. Koopman and S. Grimme, ACS Omega 2019, 4, 12, 15120-15133.
     DOI: 10.1021/acsomega.9b02011
   
   for metadynamics refer to:
   * S. Grimme, J. Chem. Theory Comput., 2019, 155, 2847-2862
     DOI: 10.1021/acs.jctc.9b00143
   
   for SPH calculations refer to:
   * S. Spicher and S. Grimme, J. Chem. Theory Comput., 2021, 17, 1701-1714
     DOI: 10.1021/acs.jctc.0c01306
   
   for ONIOM refer to:
   * C. Plett, A. Katbashev, S. Ehlert, S. Grimme, M. Bursch,
     Phys. Chem. Chem. Phys., 2023, 25, 17860-17868. DOI: 10.1039/D3CP02178E
   
   for DIPRO refer to:
   * J. Kohn, N. Gildemeister, S. Grimme, D. Fazzi, A. Hansen,
     J. Chem. Phys., 2023, just accepted.
   
   for PTB refer to:
   * S. Grimme, M. Mueller, A. Hansen, J. Chem. Phys., 2023, 158, 124111.
     DOI: 10.1063/5.0137838
   
   with help from (in alphabetical order)
   P. Atkinson, C. Bannwarth, F. Bohle, G. Brandenburg, E. Caldeweyher
   M. Checinski, S. Dohm, S. Ehlert, S. Ehrlich, I. Gerasimov, C. Hölzer
   A. Katbashev, J. Kohn, J. Koopman, C. Lavigne, S. Lehtola, F. März, M. Müller,
   F. Musil, H. Neugebauer, J. Pisarek, C. Plett, P. Pracht, F. Pultar,
   J. Seibert, P. Shushkov, S. Spicher, M. Stahn, M. Steiner, T. Strunk,
   J. Stückrath, T. Rose, and J. Unsleber
   
 * started run on 2025/04/11 at 15:56:47.764     
   ID    Z sym.   atoms
    1    6 C      1-7, 9-15, 18, 19
    2    8 O      8, 16, 20
    3    7 N      17
    4    1 H      21-33

           -------------------------------------------------
          |                Calculation Setup                |
           -------------------------------------------------

          program call               : /srv/scratch/z5358697/.xtb/bin/xtb solv.coord --gfn2 --sp --chrg 0 --norestart --parallel 1 --alpb water reference -I xtb_sp-xcontrol-inp
          hostname                   : k030
          coordinate file            : solv.coord
          omp threads                :                     1


           -------------------------------------------------
          |                 G F N 2 - x T B                 |
           -------------------------------------------------

        Reference                      10.1021/acs.jctc.8b01176
      * Hamiltonian:
        H0-scaling (s, p, d)           1.850000    2.230000    2.230000
        zeta-weighting                 0.500000
      * Dispersion:
        s8                             2.700000
        a1                             0.520000
        a2                             5.000000
        s9                             5.000000
      * Repulsion:
        kExp                           1.500000    1.000000
        rExp                           1.000000
      * Coulomb:
        alpha                          2.000000
        third order                    shell-resolved
        anisotropic                    true
        a3                             3.000000
        a5                             4.000000
        cn-shift                       1.200000
        cn-exp                         4.000000
        max-rad                        5.000000

      * Solvation model:               ALPB
        Solvent                        water
        Parameter file                 internal GFN2-xTB/ALPB
        Dielectric constant                8.0200E+01
        Reference state                gsolv=reference [X=1]
        Free energy shift                  2.8945E-03 Eh       1.8164E+00 kcal/mol
        Temperature                        2.9815E+02 K
        Density                            1.0000E+00 kg/L
        Solvent mass                       1.8000E+01 g/mol
        Interaction kernel             P16
        Born radius scaling (c1)           1.4744E+00
        Born radii integrator          GBOBC
        Born offset                        0.0000E+00 a0       0.0000E+00 AA
        H-bond correction              true
        Ion screening                  false
        Surface tension                    1.0000E-05 Eh       1.5569E+01 dyn/cm
        Grid points                               974 per atom

          ...................................................
          :                      SETUP                      :
          :.................................................:
          :  # basis functions                  93          :
          :  # atomic orbitals                  93          :
          :  # shells                           53          :
          :  # electrons                       100          :
          :  max. iterations                   250          :
          :  Hamiltonian                  GFN2-xTB          :
          :  restarted?                      false          :
          :  GBSA solvation                   true          :
          :  PC potential                    false          :
          :  electronic temp.          300.0000000     K    :
          :  accuracy                    1.0000000          :
          :  -> integral cutoff          0.2500000E+02      :
          :  -> integral neglect         0.1000000E-07      :
          :  -> SCF convergence          0.1000000E-05 Eh   :
          :  -> wf. convergence          0.1000000E-03 e    :
          :  Broyden damping             0.4000000          :
          :  net charge                          0          :
          :  unpaired electrons                  0          :
          ...................................................

 iter      E             dE          RMSdq      gap      omega  full diag
   1    -56.7227938 -0.567228E+02  0.524E+00    0.97       0.0  T
   2    -56.8116482 -0.888544E-01  0.304E+00    1.57       1.0  T
   3    -56.8034819  0.816632E-02  0.161E+00    1.26       1.0  T
   4    -56.8271648 -0.236830E-01  0.521E-01    1.38       1.0  T
   5    -56.8343349 -0.717002E-02  0.124E-01    1.31       1.0  T
   6    -56.8345103 -0.175426E-03  0.583E-02    1.33       1.0  T
   7    -56.8345304 -0.201186E-04  0.244E-02    1.32       1.0  T
   8    -56.8345322 -0.178614E-05  0.865E-03    1.32       2.0  T
   9    -56.8345329 -0.750515E-06  0.392E-03    1.32       4.4  T
  10    -56.8345331 -0.118472E-06  0.150E-03    1.32      11.6  T
  11    -56.8345331 -0.772222E-08  0.763E-04    1.32      22.8  T
  12    -56.8345331 -0.303567E-08  0.317E-04    1.32      54.9  T

   *** convergence criteria satisfied after 12 iterations ***

         #    Occupation            Energy/Eh            Energy/eV
      -------------------------------------------------------------
         1        2.0000           -0.7137643             -19.4225
       ...           ...                  ...                  ...
        44        2.0000           -0.4285335             -11.6610
        45        2.0000           -0.4232293             -11.5167
        46        2.0000           -0.4210169             -11.4565
        47        2.0000           -0.4202764             -11.4363
        48        2.0000           -0.4084786             -11.1153
        49        2.0000           -0.3883116             -10.5665
        50        2.0000           -0.3725725             -10.1382 (HOMO)
        51                         -0.3239365              -8.8148 (LUMO)
        52                         -0.2718886              -7.3985
        53                         -0.2424363              -6.5970
        54                         -0.2310319              -6.2867
        55                         -0.1850532              -5.0356
       ...                                ...                  ...
        93                          0.7093899              19.3035
      -------------------------------------------------------------
                  HL-Gap            0.0486360 Eh            1.3235 eV
             Fermi-level           -0.3482545 Eh           -9.4765 eV

 SCC (total)                   0 d,  0 h,  0 min,  0.071 sec
 SCC setup                      ...        0 min,  0.003 sec (  3.792%)
 Dispersion                     ...        0 min,  0.000 sec (  0.595%)
 classical contributions        ...        0 min,  0.000 sec (  0.085%)
 integral evaluation            ...        0 min,  0.006 sec (  8.863%)
 iterations                     ...        0 min,  0.042 sec ( 59.465%)
 molecular gradient             ...        0 min,  0.019 sec ( 26.794%)
 printout                       ...        0 min,  0.000 sec (  0.376%)

         :::::::::::::::::::::::::::::::::::::::::::::::::::::
         ::                     SUMMARY                     ::
         :::::::::::::::::::::::::::::::::::::::::::::::::::::
         :: total energy             -56.017590213370 Eh    ::
         :: total w/o Gsasa/hb       -56.014937666566 Eh    ::
         :: gradient norm              0.000067759779 Eh/a0 ::
         :: HOMO-LUMO gap              1.323453015148 eV    ::
         ::.................................................::
         :: SCC energy               -56.834541722269 Eh    ::
         :: -> isotropic ES            0.109332733839 Eh    ::
         :: -> anisotropic ES         -0.003108499472 Eh    ::
         :: -> anisotropic XC          0.019127110627 Eh    ::
         :: -> dispersion             -0.036834662571 Eh    ::
         :: -> Gsolv                  -0.020401719343 Eh    ::
         ::    -> Gelec               -0.017749172540 Eh    ::
         ::    -> Gsasa                0.001315931881 Eh    ::
         ::    -> Ghb                 -0.006863027844 Eh    ::
         ::    -> Gshift               0.002894549160 Eh    ::
         :: repulsion energy           0.816951508899 Eh    ::
         :: add. restraining           0.000000000000 Eh    ::
         :: total charge               0.000000000000 e     ::
         :::::::::::::::::::::::::::::::::::::::::::::::::::::

           -------------------------------------------------
          |                Property Printout                |
           -------------------------------------------------

    * Orbital Energies and Occupations

         #    Occupation            Energy/Eh            Energy/eV
      -------------------------------------------------------------
         1        2.0000           -0.7137643             -19.4225
       ...           ...                  ...                  ...
        38        2.0000           -0.4608529             -12.5404
        39        2.0000           -0.4570010             -12.4356
        40        2.0000           -0.4543314             -12.3630
        41        2.0000           -0.4494418             -12.2299
        42        2.0000           -0.4447490             -12.1022
        43        2.0000           -0.4356493             -11.8546
        44        2.0000           -0.4285335             -11.6610
        45        2.0000           -0.4232293             -11.5167
        46        2.0000           -0.4210169             -11.4565
        47        2.0000           -0.4202764             -11.4363
        48        2.0000           -0.4084786             -11.1153
        49        2.0000           -0.3883116             -10.5665
        50        2.0000           -0.3725725             -10.1382 (HOMO)
        51                         -0.3239365              -8.8148 (LUMO)
        52                         -0.2718886              -7.3985
        53                         -0.2424363              -6.5970
        54                         -0.2310319              -6.2867
        55                         -0.1850532              -5.0356
        56                         -0.1830466              -4.9810
        57                         -0.1101508              -2.9974
        58                         -0.0612342              -1.6663
        59                          0.0036813               0.1002
        60                          0.0523783               1.4253
        61                          0.0754469               2.0530
       ...                                ...                  ...
        93                          0.7093899              19.3035
      -------------------------------------------------------------
                  HL-Gap            0.0486360 Eh            1.3235 eV
             Fermi-level           -0.3482545 Eh           -9.4765 eV

     #   Z          covCN         q      C6AA      α(0)
     1   6 C        2.917    -0.026    28.644     8.776
     2   6 C        2.918    -0.024    28.612     8.772
     3   6 C        2.924    -0.020    28.517     8.757
     4   6 C        2.976    -0.012    28.321     8.729
     5   6 C        2.976    -0.018    28.444     8.748
     6   6 C        2.923    -0.018    28.470     8.750
     7   6 C        2.835     0.224    23.289     7.908
     8   8 O        0.858    -0.452    22.746     6.394
     9   6 C        2.972    -0.018    28.453     8.750
    10   6 C        2.925    -0.029    28.733     8.790
    11   6 C        2.912    -0.025    28.631     8.774
    12   6 C        2.919    -0.051    29.260     8.870
    13   6 C        2.897     0.092    25.953     8.353
    14   6 C        2.971    -0.058    29.425     8.898
    15   6 C        2.831     0.211    23.538     7.950
    16   8 O        0.858    -0.484    23.428     6.489
    17   7 N        2.691    -0.139    24.019     7.279
    18   6 C        3.735    -0.025    21.102     6.556
    19   6 C        3.673     0.067    19.682     6.358
    20   8 O        1.655    -0.496    22.813     6.448
    21   1 H        0.926     0.067     2.122     2.278
    22   1 H        0.926     0.068     2.107     2.270
    23   1 H        0.926     0.068     2.108     2.270
    24   1 H        0.926     0.063     2.167     2.302
    25   1 H        0.926     0.058     2.223     2.331
    26   1 H        0.926     0.066     2.128     2.281
    27   1 H        0.926     0.079     1.987     2.205
    28   1 H        0.860     0.227     0.979     1.550
    29   1 H        0.924     0.080     1.977     2.199
    30   1 H        0.924     0.078     2.004     2.214
    31   1 H        0.924     0.067     2.122     2.278
    32   1 H        0.924     0.039     2.459     2.452
    33   1 H        0.805     0.342     0.608     1.224

 Mol. C6AA /au·bohr⁶  :      14294.381343
 Mol. C8AA /au·bohr⁸  :     351939.379292
 Mol. α(0) /au        :        188.205461


Wiberg/Mayer (AO) data.
largest (>0.10) Wiberg bond orders for each atom

 ---------------------------------------------------------------------------
     #   Z sym  total        # sym  WBO       # sym  WBO       # sym  WBO
 ---------------------------------------------------------------------------
     1   6 C    3.980 --     6 C    1.448     2 C    1.421    21 H    0.967
     2   6 C    3.982 --     3 C    1.444     1 C    1.421    22 H    0.967
     3   6 C    3.981 --     2 C    1.444     4 C    1.392    23 H    0.964
     4   6 C    3.988 --     3 C    1.392     5 C    1.326    15 C    1.041
     5   6 C    3.988 --     6 C    1.384     4 C    1.326     7 C    1.050
     6   6 C    3.983 --     1 C    1.448     5 C    1.384    24 H    0.965
     7   6 C    3.924 --     8 O    1.702     5 C    1.050     9 C    1.048
     8   8 O    1.980 --     7 C    1.702
     9   6 C    3.987 --    10 C    1.437    14 C    1.278     7 C    1.048
    10   6 C    3.981 --     9 C    1.437    11 C    1.352    25 H    0.965
    11   6 C    3.986 --    12 C    1.532    10 C    1.352    26 H    0.967
    12   6 C    3.981 --    11 C    1.532    13 C    1.251    27 H    0.958
    13   6 C    3.973 --    17 N    1.318    12 C    1.251    14 C    1.235
    14   6 C    3.978 --     9 C    1.278    13 C    1.235    15 C    1.148
    15   6 C    3.940 --    16 O    1.602    14 C    1.148     4 C    1.041
    16   8 O    1.979 --    15 C    1.602
    17   7 N    3.501 --    13 C    1.318    18 C    1.005    28 H    0.878
    18   6 C    3.965 --    17 N    1.005    19 C    0.974    30 H    0.965
                            29 H    0.961
    19   6 C    3.949 --    20 O    1.001    18 C    0.974    32 H    0.971
                            31 H    0.969
    20   8 O    1.931 --    19 C    1.001    33 H    0.869
    21   1 H    0.995 --     1 C    0.967
    22   1 H    0.994 --     2 C    0.967
    23   1 H    0.995 --     3 C    0.964
    24   1 H    0.996 --     6 C    0.965
    25   1 H    0.996 --    10 C    0.965
    26   1 H    0.994 --    11 C    0.967
    27   1 H    0.993 --    12 C    0.958
    28   1 H    0.948 --    17 N    0.878
    29   1 H    0.993 --    18 C    0.961
    30   1 H    0.993 --    18 C    0.965
    31   1 H    0.994 --    19 C    0.969
    32   1 H    0.998 --    19 C    0.971
    33   1 H    0.883 --    20 O    0.869
 ---------------------------------------------------------------------------

Topologies differ in total number of bonds
Writing topology from bond orders to xtbtopo.mol

molecular dipole:
                 x           y           z       tot (Debye)
 q only:        1.293      -1.070      -0.398
   full:        0.972      -1.112      -0.373       3.872
molecular quadrupole (traceless):
                xx          xy          yy          xz          yz          zz
 q only:       13.244      10.946     -10.067      -6.608      -1.165      -3.177
  q+dip:       12.239      11.362      -6.270      -8.026      -1.858      -5.969
   full:        9.122      10.923      -9.617      -7.077      -2.008       0.495


           -------------------------------------------------
          | TOTAL ENERGY              -56.017590213370 Eh   |
          | GRADIENT NORM               0.000067759779 Eh/α |
          | HOMO-LUMO GAP               1.323453015148 eV   |
           -------------------------------------------------

------------------------------------------------------------------------
 * finished run on 2025/04/11 at 15:56:47.947     
------------------------------------------------------------------------
 total:
 * wall-time:     0 d,  0 h,  0 min,  0.183 sec
 *  cpu-time:     0 d,  0 h,  0 min,  0.066 sec
 * ratio c/w:     0.361 speedup
 SCF:
 * wall-time:     0 d,  0 h,  0 min,  0.071 sec
 *  cpu-time:     0 d,  0 h,  0 min,  0.052 sec
 * ratio c/w:     0.733 speedup

