      -----------------------------------------------------------      
     |                   =====================                   |     
     |                           x T B                           |     
     |                   =====================                   |     
     |                         S. Grimme                         |     
     |          Mulliken Center for Theoretical Chemistry        |     
     |                    University of Bonn                     |     
      -----------------------------------------------------------      

   * xtb version 6.7.1 (edcfbbe) compiled by 'albert@albert-system' on 2024-07-22

   xtb is free software: you can redistribute it and/or modify it under
   the terms of the GNU Lesser General Public License as published by
   the Free Software Foundation, either version 3 of the License, or
   (at your option) any later version.
   
   xtb is distributed in the hope that it will be useful,
   but WITHOUT ANY WARRANTY; without even the implied warranty of
   MERCHANTABILITY or FITNESS FOR A PARTICULAR PURPOSE.  See the
   GNU Lesser General Public License for more details.
   
   Cite this work as:
   * C. Bannwarth, E. Caldeweyher, S. Ehlert, A. Hansen, P. Pracht,
     J. Seibert, S. Spicher, S. Grimme, WIREs Comput. Mol. Sci., 2020, 11,
     e01493. DOI: 10.1002/wcms.1493
   
   for GFN2-xTB:
   * C. Bannwarth, S. Ehlert and S. Grimme., J. Chem. Theory Comput., 2019,
     15, 1652-1671. DOI: 10.1021/acs.jctc.8b01176
   for GFN1-xTB:
   * S. Grimme, C. Bannwarth, P. Shushkov, J. Chem. Theory Comput., 2017,
     13, 1989-2009. DOI: 10.1021/acs.jctc.7b00118
   for GFN0-xTB:
   * P. Pracht, E. Caldeweyher, S. Ehlert, S. Grimme, ChemRxiv, 2019, preprint.
     DOI: 10.26434/chemrxiv.8326202.v1
   for GFN-FF:
   * S. Spicher and S. Grimme, Angew. Chem. Int. Ed., 2020, 59, 15665-15673.
     DOI: 10.1002/anie.202004239
   
   for ALPB and GBSA implicit solvation:
   * S. Ehlert, M. Stahn, S. Spicher, S. Grimme, J. Chem. Theory Comput.,
     2021, 17, 4250-4261. DOI: 10.1021/acs.jctc.1c00471
   
   for ddCOSMO and CPCM-X implicit solvation:
   * M. Stahn, S. Ehlert, S. Grimme, J. Phys. Chem. A,
     2023, XX, XXXX-XXXX. DOI: 10.1021/acs.jpca.3c04382
   
   for DFT-D4:
   * E. Caldeweyher, C. Bannwarth and S. Grimme, J. Chem. Phys., 2017,
     147, 034112. DOI: 10.1063/1.4993215
   * E. Caldeweyher, S. Ehlert, A. Hansen, H. Neugebauer, S. Spicher,
     C. Bannwarth and S. Grimme, J. Chem. Phys., 2019, 150, 154122.
     DOI: 10.1063/1.5090222
   * E. Caldeweyher, J.-M. Mewes, S. Ehlert and S. Grimme, Phys. Chem. Chem. Phys.
     2020, 22, 8499-8512. DOI: 10.1039/D0CP00502A
   
   for sTDA-xTB:
   * S. Grimme and C. Bannwarth, J. Chem. Phys., 2016, 145, 054103.
     DOI: 10.1063/1.4959605
   
   in the mass-spec context:
   * V. Asgeirsson, C. Bauer and S. Grimme, Chem. Sci., 2017, 8, 4879.
     DOI: 10.1039/c7sc00601b
   * J. Koopman and S. Grimme, ACS Omega 2019, 4, 12, 15120-15133.
     DOI: 10.1021/acsomega.9b02011
   
   for metadynamics refer to:
   * S. Grimme, J. Chem. Theory Comput., 2019, 155, 2847-2862
     DOI: 10.1021/acs.jctc.9b00143
   
   for SPH calculations refer to:
   * S. Spicher and S. Grimme, J. Chem. Theory Comput., 2021, 17, 1701-1714
     DOI: 10.1021/acs.jctc.0c01306
   
   for ONIOM refer to:
   * C. Plett, A. Katbashev, S. Ehlert, S. Grimme, M. Bursch,
     Phys. Chem. Chem. Phys., 2023, 25, 17860-17868. DOI: 10.1039/D3CP02178E
   
   for DIPRO refer to:
   * J. Kohn, N. Gildemeister, S. Grimme, D. Fazzi, A. Hansen,
     J. Chem. Phys., 2023, just accepted.
   
   for PTB refer to:
   * S. Grimme, M. Mueller, A. Hansen, J. Chem. Phys., 2023, 158, 124111.
     DOI: 10.1063/5.0137838
   
   with help from (in alphabetical order)
   P. Atkinson, C. Bannwarth, F. Bohle, G. Brandenburg, E. Caldeweyher
   M. Checinski, S. Dohm, S. Ehlert, S. Ehrlich, I. Gerasimov, C. Hölzer
   A. Katbashev, J. Kohn, J. Koopman, C. Lavigne, S. Lehtola, F. März, M. Müller,
   F. Musil, H. Neugebauer, J. Pisarek, C. Plett, P. Pracht, F. Pultar,
   J. Seibert, P. Shushkov, S. Spicher, M. Stahn, M. Steiner, T. Strunk,
   J. Stückrath, T. Rose, and J. Unsleber
   
 * started run on 2025/04/11 at 15:54:53.548     
   ID    Z sym.   atoms
    1    6 C      1, 2, 4-13, 15, 16
    2    1 H      3, 19-31
    3    8 O      14, 17, 18

           -------------------------------------------------
          |                Calculation Setup                |
           -------------------------------------------------

          program call               : /srv/scratch/z5358697/.xtb/bin/xtb gas.coord --gfn2 --sp --chrg 0 --norestart --parallel 1
          hostname                   : k061
          coordinate file            : gas.coord
          omp threads                :                     1


           -------------------------------------------------
          |                 G F N 2 - x T B                 |
           -------------------------------------------------

        Reference                      10.1021/acs.jctc.8b01176
      * Hamiltonian:
        H0-scaling (s, p, d)           1.850000    2.230000    2.230000
        zeta-weighting                 0.500000
      * Dispersion:
        s8                             2.700000
        a1                             0.520000
        a2                             5.000000
        s9                             5.000000
      * Repulsion:
        kExp                           1.500000    1.000000
        rExp                           1.000000
      * Coulomb:
        alpha                          2.000000
        third order                    shell-resolved
        anisotropic                    true
        a3                             3.000000
        a5                             4.000000
        cn-shift                       1.200000
        cn-exp                         4.000000
        max-rad                        5.000000


          ...................................................
          :                      SETUP                      :
          :.................................................:
          :  # basis functions                  82          :
          :  # atomic orbitals                  82          :
          :  # shells                           48          :
          :  # electrons                        88          :
          :  max. iterations                   250          :
          :  Hamiltonian                  GFN2-xTB          :
          :  restarted?                      false          :
          :  GBSA solvation                  false          :
          :  PC potential                    false          :
          :  electronic temp.          300.0000000     K    :
          :  accuracy                    1.0000000          :
          :  -> integral cutoff          0.2500000E+02      :
          :  -> integral neglect         0.1000000E-07      :
          :  -> SCF convergence          0.1000000E-05 Eh   :
          :  -> wf. convergence          0.1000000E-03 e    :
          :  Broyden damping             0.4000000          :
          :  net charge                          0          :
          :  unpaired electrons                  0          :
          ...................................................

 iter      E             dE          RMSdq      gap      omega  full diag
   1    -49.9700362 -0.499700E+02  0.459E+00    2.97       0.0  T
   2    -50.0322786 -0.622424E-01  0.263E+00    2.95       1.0  T
   3    -50.0258447  0.643388E-02  0.128E+00    2.96       1.0  T
   4    -50.0404666 -0.146219E-01  0.340E-01    2.94       1.0  T
   5    -50.0428025 -0.233588E-02  0.109E-01    2.96       1.0  T
   6    -50.0429679 -0.165420E-03  0.555E-02    2.95       1.0  T
   7    -50.0429867 -0.187751E-04  0.284E-02    2.95       1.0  T
   8    -50.0429989 -0.121870E-04  0.817E-03    2.95       2.2  T
   9    -50.0429993 -0.430269E-06  0.312E-03    2.95       5.8  T
  10    -50.0429994 -0.109021E-06  0.160E-03    2.95      11.2  T
  11    -50.0429995 -0.273808E-07  0.621E-04    2.95      28.9  T
  12    -50.0429995 -0.126980E-08  0.254E-04    2.95      70.7  T

   *** convergence criteria satisfied after 12 iterations ***

         #    Occupation            Energy/Eh            Energy/eV
      -------------------------------------------------------------
         1        2.0000           -0.7474143             -20.3382
       ...           ...                  ...                  ...
        38        2.0000           -0.4370011             -11.8914
        39        2.0000           -0.4284904             -11.6598
        40        2.0000           -0.4210822             -11.4582
        41        2.0000           -0.4134439             -11.2504
        42        2.0000           -0.4085592             -11.1175
        43        2.0000           -0.3918111             -10.6617
        44        2.0000           -0.3679972             -10.0137 (HOMO)
        45                         -0.2595593              -7.0630 (LUMO)
        46                         -0.2353461              -6.4041
        47                         -0.2195596              -5.9745
        48                         -0.1871937              -5.0938
        49                         -0.1423967              -3.8748
       ...                                ...                  ...
        82                          0.6977939              18.9879
      -------------------------------------------------------------
                  HL-Gap            0.1084379 Eh            2.9507 eV
             Fermi-level           -0.3137782 Eh           -8.5383 eV

 SCC (total)                   0 d,  0 h,  0 min,  0.042 sec
 SCC setup                      ...        0 min,  0.000 sec (  0.892%)
 Dispersion                     ...        0 min,  0.000 sec (  1.020%)
 classical contributions        ...        0 min,  0.000 sec (  0.180%)
 integral evaluation            ...        0 min,  0.006 sec ( 14.327%)
 iterations                     ...        0 min,  0.019 sec ( 45.551%)
 molecular gradient             ...        0 min,  0.016 sec ( 37.425%)
 printout                       ...        0 min,  0.000 sec (  0.556%)

         :::::::::::::::::::::::::::::::::::::::::::::::::::::
         ::                     SUMMARY                     ::
         :::::::::::::::::::::::::::::::::::::::::::::::::::::
         :: total energy             -49.330660637922 Eh    ::
         :: gradient norm              0.034818208279 Eh/a0 ::
         :: HOMO-LUMO gap              2.950745519643 eV    ::
         ::.................................................::
         :: SCC energy               -50.043040715890 Eh    ::
         :: -> isotropic ES            0.065983077625 Eh    ::
         :: -> anisotropic ES          0.004401984432 Eh    ::
         :: -> anisotropic XC          0.014648049331 Eh    ::
         :: -> dispersion             -0.030691183998 Eh    ::
         :: repulsion energy           0.712380077968 Eh    ::
         :: add. restraining           0.000000000000 Eh    ::
         :: total charge               0.000000000000 e     ::
         :::::::::::::::::::::::::::::::::::::::::::::::::::::

           -------------------------------------------------
          |                Property Printout                |
           -------------------------------------------------

    * Orbital Energies and Occupations

         #    Occupation            Energy/Eh            Energy/eV
      -------------------------------------------------------------
         1        2.0000           -0.7474143             -20.3382
       ...           ...                  ...                  ...
        32        2.0000           -0.4711186             -12.8198
        33        2.0000           -0.4697294             -12.7820
        34        2.0000           -0.4659220             -12.6784
        35        2.0000           -0.4626630             -12.5897
        36        2.0000           -0.4523615             -12.3094
        37        2.0000           -0.4379525             -11.9173
        38        2.0000           -0.4370011             -11.8914
        39        2.0000           -0.4284904             -11.6598
        40        2.0000           -0.4210822             -11.4582
        41        2.0000           -0.4134439             -11.2504
        42        2.0000           -0.4085592             -11.1175
        43        2.0000           -0.3918111             -10.6617
        44        2.0000           -0.3679972             -10.0137 (HOMO)
        45                         -0.2595593              -7.0630 (LUMO)
        46                         -0.2353461              -6.4041
        47                         -0.2195596              -5.9745
        48                         -0.1871937              -5.0938
        49                         -0.1423967              -3.8748
        50                         -0.0552591              -1.5037
        51                          0.0223192               0.6073
        52                          0.0472408               1.2855
        53                          0.0790811               2.1519
        54                          0.0987367               2.6868
        55                          0.1099005               2.9905
       ...                                ...                  ...
        82                          0.6977939              18.9879
      -------------------------------------------------------------
                  HL-Gap            0.1084379 Eh            2.9507 eV
             Fermi-level           -0.3137782 Eh           -8.5383 eV

     #   Z          covCN         q      C6AA      α(0)
     1   6 C        3.755    -0.104    22.551     6.771
     2   6 C        3.858    -0.042    21.278     6.560
     3   1 H        0.924     0.061     2.182     2.310
     4   6 C        2.976     0.011    27.766     8.643
     5   6 C        2.919    -0.037    28.931     8.820
     6   6 C        2.917    -0.037    28.928     8.820
     7   6 C        2.986     0.013    27.723     8.637
     8   6 C        2.920    -0.065    29.618     8.924
     9   6 C        2.858     0.143    24.890     8.177
    10   6 C        2.914    -0.062    29.537     8.912
    11   6 C        2.919    -0.036    28.903     8.816
    12   6 C        2.986     0.005    27.896     8.664
    13   6 C        2.922    -0.041    29.020     8.834
    14   8 O        1.705    -0.275    18.558     5.816
    15   6 C        3.640     0.037    20.307     6.481
    16   6 C        2.700     0.362    20.854     7.474
    17   8 O        0.856    -0.428    22.256     6.325
    18   8 O        1.659    -0.360    20.085     6.050
    19   1 H        0.925     0.057     2.233     2.337
    20   1 H        0.925     0.046     2.372     2.408
    21   1 H        0.925     0.043     2.407     2.426
    22   1 H        0.926     0.042     2.419     2.432
    23   1 H        0.926     0.036     2.507     2.476
    24   1 H        0.926     0.048     2.350     2.397
    25   1 H        0.926     0.036     2.498     2.472
    26   1 H        0.926     0.037     2.485     2.465
    27   1 H        0.926     0.036     2.500     2.473
    28   1 H        0.924     0.042     2.427     2.436
    29   1 H        0.925     0.063     2.167     2.302
    30   1 H        0.924     0.041     2.432     2.439
    31   1 H        0.803     0.328     0.642     1.259

 Mol. C6AA /au·bohr⁶  :      11188.172890
 Mol. C8AA /au·bohr⁸  :     267705.609400
 Mol. α(0) /au        :        165.357895


Wiberg/Mayer (AO) data.
largest (>0.10) Wiberg bond orders for each atom

 ---------------------------------------------------------------------------
     #   Z sym  total        # sym  WBO       # sym  WBO       # sym  WBO
 ---------------------------------------------------------------------------
     1   6 C    3.991 --     2 C    0.993    20 H    0.986    21 H    0.986
                            19 H    0.983
     2   6 C    3.991 --     1 C    0.993     4 C    0.967     3 H    0.961
                            16 C    0.954
     3   1 H    0.996 --     2 C    0.961
     4   6 C    3.978 --    13 C    1.527     5 C    1.289     2 C    0.967
     5   6 C    3.992 --     6 C    1.571     4 C    1.289    22 H    0.966
     6   6 C    3.991 --     5 C    1.571     7 C    1.266    23 H    0.968
                            13 C    0.113
     7   6 C    3.989 --     8 C    1.308     6 C    1.266    12 C    1.241
     8   6 C    3.986 --     9 C    1.449     7 C    1.308    24 H    0.966
                            11 C    0.115
     9   6 C    3.932 --     8 C    1.449    10 C    1.274    14 O    1.059
    10   6 C    3.989 --    11 C    1.553     9 C    1.274    25 H    0.966
    11   6 C    3.988 --    10 C    1.553    12 C    1.283    26 H    0.968
                             8 C    0.115
    12   6 C    3.990 --    11 C    1.283    13 C    1.280     7 C    1.241
    13   6 C    3.991 --     4 C    1.527    12 C    1.280    27 H    0.965
                             6 C    0.113
    14   8 O    2.217 --     9 C    1.059    15 C    0.983
    15   6 C    3.947 --    14 O    0.983    29 H    0.980    30 H    0.978
                            28 H    0.978
    16   6 C    3.908 --    17 O    1.742    18 O    1.154     2 C    0.954
    17   8 O    2.014 --    16 C    1.742    18 O    0.172
    18   8 O    2.221 --    16 C    1.154    31 H    0.863    17 O    0.172
    19   1 H    0.997 --     1 C    0.983
    20   1 H    0.998 --     1 C    0.986
    21   1 H    0.997 --     1 C    0.986
    22   1 H    0.998 --     5 C    0.966
    23   1 H    0.998 --     6 C    0.968
    24   1 H    0.997 --     8 C    0.966
    25   1 H    0.998 --    10 C    0.966
    26   1 H    0.998 --    11 C    0.968
    27   1 H    0.998 --    13 C    0.965
    28   1 H    0.998 --    15 C    0.978
    29   1 H    0.996 --    15 C    0.980
    30   1 H    0.998 --    15 C    0.978
    31   1 H    0.892 --    18 O    0.863
 ---------------------------------------------------------------------------

Topologies differ in total number of bonds
Writing topology from bond orders to xtbtopo.mol

molecular dipole:
                 x           y           z       tot (Debye)
 q only:        0.468      -0.202       0.662
   full:        0.458      -0.128       0.563       1.874
molecular quadrupole (traceless):
                xx          xy          yy          xz          yz          zz
 q only:        8.234      13.594      -0.924      -7.810       4.481      -7.311
  q+dip:       11.642      16.302       1.559      -7.250       5.846     -13.201
   full:       10.797      16.321      -0.995      -7.181       6.179      -9.802


           -------------------------------------------------
          | TOTAL ENERGY              -49.330660637922 Eh   |
          | GRADIENT NORM               0.034818208279 Eh/α |
          | HOMO-LUMO GAP               2.950745519643 eV   |
           -------------------------------------------------

------------------------------------------------------------------------
 * finished run on 2025/04/11 at 15:54:53.638     
------------------------------------------------------------------------
 total:
 * wall-time:     0 d,  0 h,  0 min,  0.089 sec
 *  cpu-time:     0 d,  0 h,  0 min,  0.056 sec
 * ratio c/w:     0.630 speedup
 SCF:
 * wall-time:     0 d,  0 h,  0 min,  0.043 sec
 *  cpu-time:     0 d,  0 h,  0 min,  0.042 sec
 * ratio c/w:     0.992 speedup

