21
 energy: -635.157541686454 gnorm: 0.022502424626 xtb: 6.7.1 (edcfbbe)
C            2.02895667899908        1.27866723356661       -0.35341423595661
C            1.20257300073289        0.00429761070190       -0.41346642258322
C            2.06779955881630       -1.24492198225166       -0.37553096416641
S            0.02373855871052       -0.02846707741261        1.01200115894844
C           -1.63902654212630       -0.00381820210169        0.21467601719513
C           -1.86473739122631        1.27982071906712       -0.56681702235117
C           -1.87865923943248       -1.25513374925618       -0.61378661647199
H            1.38442497951348        2.15429908415463       -0.37039026116413
H            2.61443758915853        1.30131072227665        0.56297811364947
H            2.70607456149913        1.32382214518662       -1.20393326383349
H            0.58397120935877        0.00199718820089       -1.31147503868115
H            2.65282835317554       -1.26669276566130        0.54118131833981
H            2.74675351161716       -1.25355096005548       -1.22570458594314
H            1.45010727284258       -2.13921017864794       -0.40959071108150
H           -2.29109773231525       -0.01661316250736        1.09245974048410
H           -1.21948450144039        1.32606156828761       -1.44160530123881
H           -2.89851359578441        1.32593466288756       -0.90218221409978
H           -1.66232313573662        2.14427127445018        0.06118036062711
H           -1.68692603544752       -2.14431672065020       -0.01782763430790
H           -1.23274217444626       -1.27700657156588       -1.48905727675984
H           -2.91238474169055       -1.27684670256580       -0.95170890062173
21
 energy: -635.158587406600 gnorm: 0.006847108669 xtb: 6.7.1 (edcfbbe)
C            2.03103954563949        1.27888841282710       -0.35602146682889
C            1.19649430859531        0.00422099405053       -0.39229729295072
C            2.06941108802249       -1.24487623474368       -0.37768537354083
S            0.02647860958321       -0.03037752164599        1.05076614180612
C           -1.62988450316922       -0.00416199618755        0.22363853484428
C           -1.86837932334886        1.27838334284237       -0.56356685584191
C           -1.88244443362200       -1.25387725351083       -0.61063064019114
H            1.39415222024256        2.16592888388892       -0.38249089341771
H            2.62961302764985        1.31492728742270        0.55876028150820
H            2.71265830461662        1.31311415838498       -1.21195702658861
H            0.58085568660969        0.00215669377303       -1.29686916853399
H            2.66777249045880       -1.28019002989187        0.53732533535739
H            2.75309847208082       -1.24201220776171       -1.23256668687555
H            1.45946917554415       -2.14998913826117       -0.42244274854883
H           -2.30360082677357       -0.01666509743136        1.08866152199826
H           -1.21689610931454        1.32902111973770       -1.44037243492234
H           -2.90445261190149        1.31454192786750       -0.91510844143028
H           -1.68296695502245        2.15836489129299        0.05636298004510
H           -1.70742628001531       -2.15794986253284       -0.02325908623634
H           -1.23072560758456       -1.28026204493341       -1.48836384065932
H           -2.91849568045634       -1.26528196836262       -0.96389763122335
21
 energy: -635.158750924364 gnorm: 0.003657400434 xtb: 6.7.1 (edcfbbe)
C            2.03554402451531        1.28055515593108       -0.35644628110117
C            1.20098609128418        0.00412196145821       -0.38437020337640
C            2.07390362060318       -1.24660167045585       -0.37807756052194
S            0.02261988012435       -0.02987618333319        1.05589474156473
C           -1.63920125396465       -0.00434873773717        0.23278852299897
C           -1.87046967496427        1.27770269509850       -0.55992231572922
C           -1.88450445750341       -1.25335416020178       -0.60720340965273
H            1.40238123032991        2.17257873449030       -0.39245793912528
H            2.64224587015109        1.32841221437348        0.55581574790318
H            2.71724945084861        1.30394837730001       -1.21617742557255
H            0.57882117543470        0.00195822539071       -1.28568467517361
H            2.67995299901687       -1.29379328985503        0.53471628661920
H            2.75823432914033       -1.23278915000391       -1.23586871399124
H            1.46741378903543       -2.15607143189099       -0.43322675607810
H           -2.32171386813202       -0.01684534858789        1.09236646304835
H           -1.21199123140002        1.33160006142859       -1.43455707681712
H           -2.90530300660992        1.30360041563442       -0.92475512613751
H           -1.70049147514690        2.16637211431363        0.05582122029695
H           -1.72425315481713       -2.16577231022297       -0.02458029096013
H           -1.22628650882098       -1.28290651181899       -1.48323585976499
H           -2.91936650526518       -1.25458654346502       -0.97285520118186
21
 energy: -635.158788062499 gnorm: 0.002031096121 xtb: 6.7.1 (edcfbbe)
C            2.03599299468446        1.27983117625834       -0.35639797159831
C            1.20102913837700        0.00419349519608       -0.38364156483314
C            2.07411577054892       -1.24586677591353       -0.37784825305980
S            0.02422725796175       -0.02971871379746        1.05943697106910
C           -1.63783742648077       -0.00436993600130        0.23303653551474
C           -1.87127604473229        1.27689141768411       -0.55962215523684
C           -1.88512799208837       -1.25257141420622       -0.60693900793812
H            1.40385042453048        2.17196163049123       -0.39678498566261
H            2.64338469917629        1.33131688333651        0.55482083222971
H            2.71740651486444        1.29871942448963       -1.21621808831113
H            0.57670529044087        0.00196903205640       -1.28308981063793
H            2.68045776036424       -1.29694731072932        0.53414670340770
H            2.75846533626749       -1.22751663597675       -1.23529411750918
H            1.46858831410114       -2.15523960119953       -0.43785707175824
H           -2.31859669816725       -0.01699767034901        1.09351328856155
H           -1.20883638154937        1.33380786836310       -1.43070946899652
H           -2.90425114449576        1.29771174327400       -0.92950823702740
H           -1.70889229179498        2.16568085944270        0.05722871413358
H           -1.73221555201248       -2.16515708515611       -0.02340392308890
H           -1.22323328490442       -1.28504925165131       -1.47973507103711
H           -2.91818526490914       -1.24874452895933       -0.97714960466698
21
 energy: -635.158819265141 gnorm: 0.000864887934 xtb: 6.7.1 (edcfbbe)
C            2.03721503749171        1.27907042536020       -0.35807118698024
C            1.20261195002779        0.00432573211609       -0.38254673493682
C            2.07500168651080       -1.24504782953456       -0.37919688793180
S            0.02508530616055       -0.02946491538240        1.06218881043513
C           -1.63862240365323       -0.00438831975372        0.23412845814781
C           -1.87265032101269        1.27607762247086       -0.55812134778684
C           -1.88617292552497       -1.25182560620682       -0.60549051942886
H            1.40579653815195        2.17055838644354       -0.40558750130082
H            2.64270909162366        1.33495095929832        0.55303952469044
H            2.71973514743388        1.29193881536268       -1.21645971133711
H            0.57608706220319        0.00208000506337       -1.27979691329678
H            2.67856315710421       -1.30117693208997        0.53323168127522
H            2.76115073013605       -1.22052188559459       -1.23439701196768
H            1.47014927929459       -2.15349327629202       -0.44732793574345
H           -2.31638624618880       -0.01723406529831        1.09629144425091
H           -1.20136800766837        1.33896585264953       -1.42137402706498
H           -2.90124448725953        1.28851354730494       -0.93888297283837
H           -1.72420896682466        2.16410930409960        0.06202203639684
H           -1.74687056748603       -2.16375803880447       -0.01888943169023
H           -1.21587325676624       -1.29025709491577       -1.47097368165376
H           -2.91493615333575       -1.23951812866614       -0.98580334515430
21
 energy: -635.158829717598 gnorm: 0.001034153125 xtb: 6.7.1 (edcfbbe)
C            2.03707421975168        1.27908247969756       -0.36013417030816
C            1.20290799327115        0.00438204580633       -0.38469304961217
C            2.07487982574624       -1.24497224396315       -0.38116652603147
S            0.02616986709739       -0.02928273685755        1.06119919366501
C           -1.63942572531867       -0.00441719442201        0.23545224791282
C           -1.87269973437835        1.27622208894949       -0.55605771064159
C           -1.88624844248597       -1.25207850099754       -0.60340548091726
H            1.40553572639405        2.17013099926642       -0.41154366727648
H            2.63948740755460        1.33682704861443        0.55271214016019
H            2.72219790263910        1.29020186277650       -1.21623007177507
H            0.57594395061018        0.00217397870494       -1.28162598978436
H            2.67456361065227       -1.30353922648914        0.53347574925878
H            2.76432844662055       -1.21835018013680       -1.23341316016885
H            1.47004475852392       -2.15290012758348       -0.45410639684265
H           -2.31620284053428       -0.01728605939476        1.09847117346525
H           -1.19403722359163        1.34466775673744       -1.41293550497886
H           -2.89752423444226        1.28409613502417       -0.94622450249278
H           -1.73426984590635        2.16340901424309        0.06733916401586
H           -1.75717313967491       -2.16319159138714       -0.01343724401410
H           -1.20856551661188       -1.29644417460446       -1.46269595774794
H           -2.91121531773790       -1.23482694015459       -0.99299835827095
21
 energy: -635.158833929769 gnorm: 0.000319391224 xtb: 6.7.1 (edcfbbe)
C            2.03602927944948        1.27962702201197       -0.36152627503061
C            1.20205051123728        0.00437895064739       -0.38660617389724
C            2.07412933410161       -1.24534062985611       -0.38271318343764
S            0.02674250521886       -0.02966512506036        1.05958541878749
C           -1.63907502988480       -0.00442940727137        0.23582079851634
C           -1.87184017454468        1.27689803305370       -0.55502548132534
C           -1.88580604182290       -1.25287313140130       -0.60216334729699
H            1.40387532296010        2.17046707298276       -0.41318846519687
H            2.63630565625961        1.33731585134343        0.55308895910646
H            2.72315892757347        1.29212992670243       -1.21618153838959
H            0.57556147414221        0.00221715992774       -1.28411949310355
H            2.67127272189316       -1.30419160490518        0.53392368592892
H            2.76601230947840       -1.21953890175111       -1.23318293779795
H            1.46898041968194       -2.15321413233740       -0.45657861216870
H           -2.31599954506180       -0.01710013375611        1.09901498339516
H           -1.18973322686936        1.34846800559147       -1.40890678424811
H           -2.89493579468587        1.28448752357386       -0.94945925084060
H           -1.73682012228029        2.16317433240021        0.07057306183456
H           -1.76101836189802       -2.16304114461778       -0.00960523154056
H           -1.20426557874510       -1.30122113452645       -1.45821375554744
H           -2.90885306972095       -1.23464424564020       -0.99655503381264
21
 energy: -635.158833929769 gnorm: 0.000319391224 xtb: 6.7.1 (edcfbbe)
C            2.03602927944948        1.27962702201197       -0.36152627503061
C            1.20205051123728        0.00437895064739       -0.38660617389724
C            2.07412933410161       -1.24534062985611       -0.38271318343764
S            0.02674250521886       -0.02966512506036        1.05958541878749
C           -1.63907502988480       -0.00442940727137        0.23582079851634
C           -1.87184017454468        1.27689803305370       -0.55502548132534
C           -1.88580604182290       -1.25287313140130       -0.60216334729699
H            1.40387532296010        2.17046707298276       -0.41318846519687
H            2.63630565625961        1.33731585134343        0.55308895910646
H            2.72315892757347        1.29212992670243       -1.21618153838959
H            0.57556147414221        0.00221715992774       -1.28411949310355
H            2.67127272189316       -1.30419160490518        0.53392368592892
H            2.76601230947840       -1.21953890175111       -1.23318293779795
H            1.46898041968194       -2.15321413233740       -0.45657861216870
H           -2.31599954506180       -0.01710013375611        1.09901498339516
H           -1.18973322686936        1.34846800559147       -1.40890678424811
H           -2.89493579468587        1.28448752357386       -0.94945925084060
H           -1.73682012228029        2.16317433240021        0.07057306183456
H           -1.76101836189802       -2.16304114461778       -0.00960523154056
H           -1.20426557874510       -1.30122113452645       -1.45821375554744
H           -2.90885306972095       -1.23464424564020       -0.99655503381264
