 Entering Gaussian System
 *********************************************
 Gaussian 98:
 frequency output generated by the xtb code
 *********************************************
                         Standard orientation:
 --------------------------------------------------------------------
  Center     Atomic     Atomic              Coordinates (Angstroms)
  Number     Number      Type              X           Y           Z
 --------------------------------------------------------------------
    1          6             0       -2.317824   -1.419395   -0.279926
    2          6             0       -2.522992    0.054893    0.046320
    3          6             0       -1.326280    0.636958    0.807024
    4          6             0       -0.099159    0.653529   -0.067250
    5          8             0       -0.019882    1.207028   -1.145430
    6          8             0        0.903714   -0.020722    0.476502
    7          6             0        2.141624   -0.092132   -0.251045
    8          6             0        3.061096   -1.056661    0.472446
    9          1             0       -3.189093   -1.818769   -0.792057
   10          1             0       -1.452134   -1.548651   -0.926971
   11          1             0       -2.156082   -1.993156    0.629404
   12          1             0       -3.418328    0.174467    0.656773
   13          1             0       -2.657651    0.620961   -0.877382
   14          1             0       -1.109695    0.052617    1.700293
   15          1             0       -1.543823    1.668391    1.088529
   16          1             0        1.924704   -0.421505   -1.272704
   17          1             0        2.568798    0.914717   -0.301937
   18          1             0        3.239400   -0.709123    1.485623
   19          1             0        2.607905   -2.042647    0.515035
   20          1             0        4.005720   -1.118696   -0.057589
 --------------------------------------------------------------------
     1 basis functions        1 primitive gaussians
     1 alpha electrons        1 beta electrons
 
 Harmonic frequencies (cm**-1), IR intensities (km*mol⁻¹),
 Raman scattering activities (A**4/amu), Raman depolarization ratios,
 reduced masses (AMU), force constants (mDyne/A) and normal coordinates:
                      1                      2                      3
                        a                      a                      a 
 Frequencies --    16.2755                21.1002                76.8225
 Red. masses --     8.7443                11.2873                 8.2787
 Frc consts  --     0.0000                 0.0000                 0.0000
 IR Inten    --     0.4017                 3.9123                 0.6511
 Raman Activ --     0.0000                 0.0000                 0.0000
 Depolar     --     0.0000                 0.0000                 0.0000
 Atom AN      X      Y      Z        X      Y      Z        X      Y      Z
   1   6    -0.34   0.19  -0.20    -0.25   0.08  -0.10    -0.41  -0.18   0.34
   2   6    -0.08   0.17   0.07    -0.05   0.08   0.03     0.01   0.01  -0.25
   3   6     0.07  -0.16   0.09     0.04  -0.13   0.03    -0.02  -0.11  -0.12
   4   6     0.01  -0.17   0.01     0.02  -0.12  -0.01     0.06  -0.01  -0.01
   5   8    -0.04  -0.18   0.02    -0.14  -0.45  -0.19     0.18   0.26   0.14
   6   8     0.06  -0.19  -0.05     0.20   0.30   0.19     0.01  -0.16  -0.09
   7   6     0.01  -0.12  -0.11     0.20   0.33   0.20     0.09   0.13   0.04
   8   6     0.31   0.38   0.18    -0.00  -0.12  -0.14     0.11   0.05  -0.08
   9   1    -0.12   0.12  -0.07    -0.09   0.07  -0.04    -0.09  -0.00   0.02
  10   1    -0.11   0.05  -0.07    -0.08   0.01  -0.03    -0.04  -0.21   0.23
  11   1    -0.12   0.00  -0.09    -0.09  -0.00  -0.04    -0.31   0.02   0.18
  12   1    -0.01   0.06   0.04    -0.01   0.04   0.02    -0.04   0.15  -0.16
  13   1    -0.01   0.10   0.05    -0.00   0.05   0.02     0.13  -0.07  -0.14
  14   1     0.01  -0.10  -0.01     0.01  -0.07  -0.01    -0.03  -0.06  -0.04
  15   1     0.07  -0.05   0.09     0.05  -0.04   0.05    -0.00  -0.04  -0.01
  16   1     0.01  -0.16   0.01     0.06   0.23   0.02     0.07   0.10  -0.02
  17   1    -0.07  -0.01  -0.15     0.11   0.08   0.19     0.00   0.05   0.09
  18   1     0.09   0.24   0.01    -0.01  -0.17   0.01    -0.02  -0.05   0.01
  19   1     0.16   0.09   0.17    -0.04  -0.02  -0.17     0.07  -0.00  -0.11
  20   1     0.08   0.12   0.03     0.01  -0.01  -0.03     0.05   0.09   0.01
                      4                      5                      6
                        a                      a                      a 
 Frequencies --   131.8574               161.7321               191.3120
 Red. masses --     7.0753                 9.2001                 5.2622
 Frc consts  --     0.0000                 0.0000                 0.0000
 IR Inten    --     1.6139                 5.3541                 3.8904
 Raman Activ --     0.0000                 0.0000                 0.0000
 Depolar     --     0.0000                 0.0000                 0.0000
 Atom AN      X      Y      Z        X      Y      Z        X      Y      Z
   1   6    -0.06   0.02   0.02    -0.21  -0.14  -0.03    -0.18  -0.08  -0.02
   2   6    -0.11  -0.05   0.29     0.03  -0.13   0.09    -0.16  -0.08   0.02
   3   6     0.09   0.00  -0.07     0.13  -0.25   0.02    -0.09   0.06  -0.18
   4   6    -0.00  -0.04  -0.21     0.06   0.14  -0.10     0.04  -0.02   0.00
   5   8     0.06   0.17  -0.13    -0.12   0.31  -0.06     0.35   0.04   0.05
   6   8    -0.10  -0.25  -0.32     0.18   0.33  -0.16    -0.03  -0.05   0.16
   7   6     0.15   0.11   0.11     0.16  -0.04  -0.09    -0.02   0.09   0.13
   8   6    -0.03  -0.00   0.20    -0.19  -0.13   0.26     0.12   0.02  -0.15
   9   1    -0.09  -0.03   0.16    -0.09   0.01  -0.00    -0.19  -0.10   0.28
  10   1    -0.13   0.07  -0.16    -0.08  -0.07  -0.03    -0.25   0.01  -0.27
  11   1     0.18  -0.01  -0.04    -0.07  -0.07  -0.02     0.27   0.02  -0.03
  12   1     0.03  -0.07   0.19     0.03  -0.02   0.06    -0.00  -0.04   0.07
  13   1    -0.16   0.01   0.12    -0.01  -0.02   0.04    -0.13  -0.03   0.01
  14   1     0.07   0.02  -0.02     0.10  -0.14  -0.05    -0.04   0.08  -0.01
  15   1     0.04   0.01  -0.03     0.02  -0.10   0.10    -0.03   0.03  -0.12
  16   1     0.16   0.11  -0.02     0.04  -0.07  -0.01    -0.02   0.06   0.03
  17   1     0.02   0.05   0.17     0.11  -0.04  -0.08    -0.02   0.03   0.06
  18   1    -0.25  -0.14   0.15     0.07   0.10   0.01     0.32   0.10  -0.13
  19   1     0.07  -0.05  -0.19    -0.23   0.05   0.27    -0.08   0.07   0.18
  20   1     0.10   0.17   0.24    -0.10  -0.29   0.03    -0.10  -0.18  -0.26
                      7                      8                      9
                        a                      a                      a 
 Frequencies --   229.9800               265.6864               344.5553
 Red. masses --     5.9507                 7.1537                10.6816
 Frc consts  --     0.0000                 0.0000                 0.0000
 IR Inten    --     2.0023                 6.1278                12.7098
 Raman Activ --     0.0000                 0.0000                 0.0000
 Depolar     --     0.0000                 0.0000                 0.0000
 Atom AN      X      Y      Z        X      Y      Z        X      Y      Z
   1   6    -0.15  -0.11  -0.04    -0.14  -0.10  -0.11     0.02   0.01   0.02
   2   6     0.04  -0.06  -0.12    -0.19  -0.19   0.30     0.15   0.02   0.03
   3   6    -0.02  -0.04  -0.02    -0.03   0.09  -0.14     0.16  -0.14   0.07
   4   6     0.06   0.11   0.11     0.05   0.08  -0.06     0.07  -0.07   0.03
   5   8     0.06   0.02   0.07     0.39   0.04  -0.07     0.44  -0.20   0.00
   6   8     0.16   0.34   0.23     0.01   0.17   0.17    -0.03  -0.12   0.04
   7   6    -0.10  -0.21  -0.17    -0.09  -0.08  -0.00    -0.24   0.24  -0.19
   8   6    -0.01  -0.02  -0.03     0.04   0.00  -0.07    -0.49   0.24  -0.02
   9   1    -0.17  -0.07   0.23     0.08   0.09  -0.33    -0.02   0.02   0.03
  10   1    -0.20  -0.06  -0.22     0.13   0.01   0.19    -0.01  -0.02  -0.02
  11   1     0.19   0.02  -0.02    -0.33  -0.16  -0.06     0.01   0.00   0.00
  12   1     0.00   0.02  -0.05     0.02  -0.14   0.22     0.03   0.03  -0.01
  13   1     0.04  -0.03  -0.05    -0.22  -0.02   0.13     0.07   0.02   0.01
  14   1    -0.02  -0.02  -0.01     0.04   0.10  -0.00     0.07  -0.10  -0.03
  15   1    -0.04  -0.02   0.01    -0.04   0.04  -0.10     0.06  -0.06   0.10
  16   1    -0.14  -0.18   0.01    -0.08  -0.06   0.02    -0.08   0.08  -0.06
  17   1     0.01  -0.09  -0.21    -0.01  -0.03  -0.07    -0.10   0.08  -0.05
  18   1    -0.27  -0.10   0.07    -0.03  -0.03  -0.00    -0.21   0.10  -0.00
  19   1     0.18  -0.10  -0.23     0.08  -0.03  -0.07    -0.22   0.10   0.00
  20   1     0.12   0.25   0.18     0.03   0.09  -0.01    -0.10  -0.02   0.08
                     10                     11                     12
                        a                      a                      a 
 Frequencies --   387.8130               413.3015               593.5158
 Red. masses --     7.8794                10.1824                11.0726
 Frc consts  --     0.0000                 0.0000                 0.0000
 IR Inten    --     2.7089                 1.2087                15.6579
 Raman Activ --     0.0000                 0.0000                 0.0000
 Depolar     --     0.0000                 0.0000                 0.0000
 Atom AN      X      Y      Z        X      Y      Z        X      Y      Z
   1   6     0.21   0.22   0.21     0.03   0.06   0.03     0.03   0.06   0.02
   2   6    -0.36   0.16  -0.05    -0.31   0.02  -0.05     0.14   0.05   0.02
   3   6    -0.10  -0.40  -0.13    -0.24   0.07  -0.12     0.29  -0.11  -0.31
   4   6    -0.06  -0.07  -0.15     0.05  -0.25   0.17     0.05  -0.48  -0.23
   5   8     0.18   0.09  -0.07    -0.01  -0.06   0.31    -0.29   0.27   0.13
   6   8    -0.02   0.15   0.07     0.38  -0.03  -0.08     0.07   0.02   0.28
   7   6    -0.04  -0.07   0.05     0.27   0.10  -0.32    -0.18   0.01   0.12
   8   6     0.07  -0.04  -0.02    -0.12   0.02   0.05    -0.10   0.06  -0.03
   9   1     0.16  -0.13   0.05     0.07  -0.07  -0.02     0.00   0.04  -0.00
  10   1     0.12   0.16   0.11     0.05   0.08   0.05     0.01  -0.00   0.01
  11   1     0.12   0.16   0.11     0.02   0.05   0.02    -0.02   0.01   0.01
  12   1    -0.08   0.02   0.02    -0.07  -0.03   0.02     0.09   0.03   0.08
  13   1    -0.13   0.05  -0.01    -0.14  -0.01  -0.01    -0.02   0.02   0.02
  14   1    -0.00  -0.32  -0.17    -0.19   0.13   0.07     0.03   0.11   0.01
  15   1     0.08  -0.16   0.22    -0.02   0.08  -0.20     0.20   0.05  -0.28
  16   1    -0.04  -0.05   0.03     0.07   0.01  -0.08    -0.11  -0.03   0.05
  17   1     0.01  -0.03  -0.04     0.09   0.02  -0.10    -0.05   0.00  -0.03
  18   1     0.03  -0.02  -0.00    -0.14   0.05   0.02    -0.02   0.00  -0.01
  19   1     0.06  -0.03  -0.01    -0.13   0.05   0.02    -0.01   0.01  -0.02
  20   1     0.01   0.03  -0.03     0.03  -0.11   0.14    -0.04   0.04  -0.03
                     13                     14                     15
                        a                      a                      a 
 Frequencies --   691.1981               817.5568               819.8068
 Red. masses --    10.1979                 4.5992                 2.1832
 Frc consts  --     0.0000                 0.0000                 0.0000
 IR Inten    --    15.1144                15.9034                 5.8775
 Raman Activ --     0.0000                 0.0000                 0.0000
 Depolar     --     0.0000                 0.0000                 0.0000
 Atom AN      X      Y      Z        X      Y      Z        X      Y      Z
   1   6    -0.01  -0.01   0.01     0.09   0.01  -0.06    -0.02   0.01   0.01
   2   6    -0.06   0.02  -0.14     0.24   0.08  -0.18    -0.04  -0.02   0.03
   3   6     0.16   0.02  -0.32    -0.07   0.11   0.02     0.02  -0.05  -0.02
   4   6     0.37   0.42   0.26    -0.25  -0.19  -0.02     0.04   0.01   0.01
   5   8    -0.30  -0.09  -0.03     0.09  -0.04   0.14    -0.00   0.00  -0.00
   6   8     0.08  -0.29   0.13    -0.08   0.16  -0.07     0.04   0.07   0.03
   7   6    -0.06  -0.00   0.02     0.03  -0.02  -0.07    -0.12  -0.21  -0.13
   8   6    -0.06   0.05  -0.02     0.04  -0.05   0.01    -0.06  -0.07  -0.06
   9   1     0.01  -0.05   0.02    -0.10   0.09   0.13     0.02  -0.02  -0.02
  10   1     0.02  -0.05   0.05    -0.02  -0.41   0.02     0.00   0.08  -0.00
  11   1    -0.03   0.08   0.06    -0.15   0.21   0.15     0.03  -0.03  -0.02
  12   1     0.13  -0.09   0.21     0.19  -0.34   0.22    -0.03   0.06  -0.03
  13   1    -0.30   0.02   0.02    -0.32   0.18   0.11     0.06  -0.03  -0.02
  14   1    -0.00  -0.13  -0.16    -0.07  -0.10  -0.06     0.01   0.03   0.02
  15   1    -0.02  -0.06   0.08     0.03   0.00   0.13     0.00  -0.00  -0.05
  16   1    -0.02   0.03  -0.01     0.02   0.07  -0.04    -0.04   0.44  -0.19
  17   1    -0.05   0.02   0.04     0.06  -0.02   0.06     0.19  -0.12   0.44
  18   1    -0.04   0.03  -0.01    -0.01   0.05  -0.02    -0.14   0.38  -0.12
  19   1    -0.03   0.02   0.00     0.06  -0.03   0.06     0.28  -0.13   0.30
  20   1    -0.01  -0.00   0.01     0.02   0.01   0.02     0.04   0.13   0.07
                     16                     17                     18
                        a                      a                      a 
 Frequencies --   882.0521               915.0518               920.7440
 Red. masses --     8.1026                 7.9902                 7.1458
 Frc consts  --     0.0000                 0.0000                 0.0000
 IR Inten    --    17.7932                 4.9194                 0.5378
 Raman Activ --     0.0000                 0.0000                 0.0000
 Depolar     --     0.0000                 0.0000                 0.0000
 Atom AN      X      Y      Z        X      Y      Z        X      Y      Z
   1   6    -0.04   0.14  -0.02    -0.01  -0.30  -0.05     0.09   0.12   0.21
   2   6     0.02  -0.04  -0.05    -0.19   0.13  -0.05     0.23  -0.04   0.10
   3   6     0.07  -0.31   0.01     0.08   0.39   0.10    -0.08  -0.01  -0.41
   4   6     0.08   0.11   0.18     0.07  -0.18  -0.04    -0.15   0.01   0.17
   5   8     0.07  -0.14   0.10    -0.02   0.00   0.08     0.02  -0.15   0.24
   6   8     0.09   0.16  -0.43     0.29   0.03  -0.20    -0.11   0.13  -0.18
   7   6    -0.20  -0.03   0.19    -0.16  -0.05   0.17     0.01   0.02  -0.03
   8   6    -0.17   0.04   0.09    -0.20   0.06   0.05     0.01  -0.03   0.05
   9   1     0.03  -0.08   0.03     0.03  -0.10  -0.05    -0.07   0.35  -0.05
  10   1     0.03   0.00   0.05     0.00  -0.00  -0.03    -0.07   0.15  -0.09
  11   1    -0.00   0.17   0.08     0.03  -0.14  -0.06     0.01  -0.31  -0.16
  12   1     0.05  -0.03   0.05    -0.06   0.04  -0.03     0.11   0.14   0.06
  13   1     0.00   0.11   0.06    -0.09  -0.08  -0.08    -0.02  -0.26  -0.12
  14   1    -0.04   0.18   0.18    -0.03  -0.15  -0.13    -0.08  -0.16  -0.19
  15   1    -0.09  -0.02  -0.32     0.24   0.07   0.31     0.01  -0.04   0.04
  16   1     0.08  -0.07   0.03     0.05  -0.04   0.03     0.05  -0.02  -0.01
  17   1     0.03  -0.04   0.01     0.05  -0.04   0.02     0.03  -0.01  -0.01
  18   1     0.17  -0.09   0.02     0.12  -0.04   0.00     0.06  -0.04   0.01
  19   1     0.12  -0.07  -0.03     0.10  -0.05  -0.02     0.04  -0.03  -0.00
  20   1    -0.17   0.23  -0.23    -0.15   0.21  -0.19    -0.03   0.04  -0.05
                     19                     20                     21
                        a                      a                      a 
 Frequencies --   968.6104              1060.2089              1071.4058
 Red. masses --     9.1443                 6.5628                 8.5185
 Frc consts  --     0.0000                 0.0000                 0.0000
 IR Inten    --     3.1320                19.3544                87.1019
 Raman Activ --     0.0000                 0.0000                 0.0000
 Depolar     --     0.0000                 0.0000                 0.0000
 Atom AN      X      Y      Z        X      Y      Z        X      Y      Z
   1   6    -0.14  -0.25  -0.11     0.15  -0.12   0.04    -0.11   0.20  -0.01
   2   6    -0.08   0.13  -0.06    -0.12   0.16  -0.02     0.03  -0.25  -0.02
   3   6     0.38   0.05  -0.09    -0.00  -0.14   0.12     0.04   0.18  -0.07
   4   6    -0.20   0.03   0.16     0.19   0.06   0.04    -0.14  -0.08  -0.04
   5   8     0.04  -0.15   0.24     0.02   0.00  -0.07    -0.01  -0.01   0.08
   6   8    -0.35   0.19  -0.09     0.04   0.08  -0.20     0.35  -0.04  -0.13
   7   6     0.04   0.07  -0.13    -0.38   0.15   0.04    -0.42   0.19   0.02
   8   6     0.16  -0.09   0.03     0.28  -0.16   0.05     0.22  -0.18   0.11
   9   1     0.13  -0.36  -0.08    -0.06   0.17   0.02     0.02  -0.06   0.00
  10   1     0.07   0.13   0.06    -0.04  -0.13  -0.07     0.02   0.10   0.04
  11   1     0.09   0.04   0.02    -0.04  -0.16  -0.05     0.01   0.14   0.05
  12   1     0.07   0.19   0.09    -0.05  -0.04  -0.02    -0.01  -0.05  -0.04
  13   1    -0.02   0.06  -0.00    -0.09  -0.02  -0.04     0.06  -0.05  -0.00
  14   1     0.18   0.04  -0.02    -0.32   0.01   0.13     0.32  -0.01  -0.13
  15   1     0.20   0.04  -0.05     0.31   0.08  -0.11    -0.30  -0.07   0.13
  16   1    -0.00   0.02  -0.03    -0.17   0.10  -0.00    -0.13   0.10  -0.02
  17   1    -0.03   0.03  -0.02    -0.18   0.08  -0.02    -0.14   0.07  -0.03
  18   1    -0.01  -0.02   0.02    -0.06  -0.02   0.03     0.00  -0.05   0.04
  19   1    -0.02   0.00   0.01    -0.05   0.01   0.05     0.01  -0.03   0.06
  20   1     0.08  -0.11   0.09     0.15  -0.20   0.18     0.09  -0.12   0.10
                     22                     23                     24
                        a                      a                      a 
 Frequencies --  1083.3911              1115.8165              1123.0034
 Red. masses --     4.5376                 8.3011                 8.4563
 Frc consts  --     0.0000                 0.0000                 0.0000
 IR Inten    --     3.0220                16.6604                43.8256
 Raman Activ --     0.0000                 0.0000                 0.0000
 Depolar     --     0.0000                 0.0000                 0.0000
 Atom AN      X      Y      Z        X      Y      Z        X      Y      Z
   1   6     0.21   0.11  -0.05    -0.08   0.24   0.10    -0.10   0.20   0.10
   2   6    -0.34  -0.12   0.09    -0.08  -0.29  -0.26    -0.03  -0.25  -0.24
   3   6     0.17   0.02  -0.15     0.24   0.07   0.19     0.18   0.04   0.24
   4   6    -0.01   0.09   0.10    -0.00  -0.04   0.00     0.14  -0.07  -0.04
   5   8    -0.03  -0.08   0.12     0.02  -0.03   0.06    -0.00   0.05  -0.09
   6   8    -0.10   0.01   0.01    -0.05   0.14  -0.13    -0.20  -0.02   0.16
   7   6     0.07   0.02  -0.07     0.04  -0.29   0.27     0.07   0.23  -0.34
   8   6    -0.03  -0.01   0.04     0.03   0.22  -0.25    -0.04  -0.18   0.25
   9   1    -0.13   0.24   0.12    -0.00   0.08  -0.02     0.01   0.04  -0.03
  10   1    -0.04  -0.30  -0.06    -0.02   0.15   0.00    -0.02   0.17   0.01
  11   1    -0.13   0.07   0.05     0.00   0.01  -0.01     0.02   0.00  -0.02
  12   1    -0.32  -0.20  -0.28     0.01  -0.15  -0.01     0.03  -0.14   0.01
  13   1     0.15  -0.00  -0.00    -0.18  -0.22  -0.13    -0.18  -0.20  -0.12
  14   1     0.38   0.07  -0.07     0.01   0.01   0.06    -0.12   0.00   0.10
  15   1     0.26   0.05  -0.03     0.09   0.03   0.02     0.10   0.03   0.02
  16   1     0.03  -0.01  -0.01     0.08  -0.05   0.05    -0.03   0.05  -0.07
  17   1     0.03  -0.00  -0.01    -0.01  -0.06   0.12    -0.02   0.07  -0.08
  18   1     0.04  -0.02   0.00    -0.18   0.07  -0.04     0.20  -0.09   0.04
  19   1     0.04  -0.02  -0.00    -0.22   0.16  -0.06     0.20  -0.14   0.03
  20   1    -0.03   0.05  -0.04     0.08  -0.15   0.11    -0.10   0.15  -0.13
                     25                     26                     27
                        a                      a                      a 
 Frequencies --  1137.1300              1166.7345              1204.4609
 Red. masses --     5.1993                 8.5526                 7.3144
 Frc consts  --     0.0000                 0.0000                 0.0000
 IR Inten    --    21.8429               290.6342               185.2462
 Raman Activ --     0.0000                 0.0000                 0.0000
 Depolar     --     0.0000                 0.0000                 0.0000
 Atom AN      X      Y      Z        X      Y      Z        X      Y      Z
   1   6    -0.01   0.02   0.02     0.14  -0.13   0.16     0.12  -0.10   0.09
   2   6    -0.01  -0.02  -0.05    -0.16   0.22  -0.28    -0.18   0.16  -0.09
   3   6     0.04  -0.00   0.03     0.18  -0.14   0.15     0.12   0.05   0.05
   4   6    -0.09   0.05   0.01    -0.45   0.15  -0.03     0.44  -0.28  -0.03
   5   8     0.01  -0.02   0.00     0.04   0.03  -0.07    -0.04  -0.02   0.10
   6   8    -0.02  -0.14  -0.11     0.26  -0.16   0.14    -0.27   0.18  -0.10
   7   6     0.17   0.32   0.30    -0.03  -0.02  -0.05     0.06   0.02   0.02
   8   6    -0.11  -0.20  -0.20    -0.01   0.02   0.05    -0.01  -0.04  -0.04
   9   1     0.00   0.01  -0.01    -0.03   0.19  -0.03    -0.03   0.12  -0.00
  10   1    -0.00   0.02  -0.00    -0.05  -0.01  -0.08    -0.04  -0.05  -0.06
  11   1     0.00  -0.01  -0.01    -0.01  -0.26  -0.10    -0.03  -0.16  -0.05
  12   1     0.02  -0.01   0.01     0.09   0.07   0.11    -0.03   0.03   0.00
  13   1    -0.04  -0.03  -0.02    -0.20   0.04  -0.06    -0.04   0.13   0.03
  14   1     0.02   0.01   0.02     0.26   0.15   0.10     0.14   0.04   0.01
  15   1     0.04   0.01  -0.02    -0.16  -0.03  -0.13    -0.58  -0.14   0.06
  16   1    -0.31  -0.16   0.23     0.06   0.01  -0.03     0.00  -0.03   0.02
  17   1     0.27  -0.04  -0.34     0.04  -0.02   0.02    -0.10   0.05  -0.01
  18   1    -0.17   0.29  -0.14     0.04  -0.04   0.02    -0.02   0.05  -0.03
  19   1     0.18  -0.13   0.23    -0.01   0.01  -0.03     0.03  -0.02   0.04
  20   1     0.06   0.10   0.09    -0.03   0.02  -0.04     0.02  -0.00   0.03
                     28                     29                     30
                        a                      a                      a 
 Frequencies --  1234.2303              1245.5609              1305.9942
 Red. masses --     2.3649                 3.4633                 4.4456
 Frc consts  --     0.0000                 0.0000                 0.0000
 IR Inten    --     8.5042                13.0655                71.2247
 Raman Activ --     0.0000                 0.0000                 0.0000
 Depolar     --     0.0000                 0.0000                 0.0000
 Atom AN      X      Y      Z        X      Y      Z        X      Y      Z
   1   6    -0.00  -0.01   0.02    -0.17  -0.07   0.28     0.04  -0.00  -0.04
   2   6    -0.00   0.01  -0.02     0.17   0.05  -0.18     0.04  -0.04  -0.10
   3   6     0.00   0.02   0.00    -0.18  -0.01  -0.07    -0.43  -0.08   0.10
   4   6     0.07  -0.04  -0.00     0.07   0.01   0.02     0.18  -0.04   0.02
   5   8    -0.00  -0.01   0.02    -0.01  -0.02   0.02    -0.02   0.00  -0.00
   6   8    -0.09  -0.06  -0.09    -0.00   0.01  -0.02    -0.00   0.05  -0.09
   7   6    -0.02  -0.07  -0.04    -0.00  -0.00   0.01     0.17  -0.11   0.04
   8   6     0.10   0.22   0.15    -0.00  -0.01  -0.01    -0.03  -0.02   0.04
   9   1     0.00   0.01  -0.01     0.06  -0.00  -0.12    -0.02   0.04   0.00
  10   1    -0.01   0.01  -0.01    -0.04   0.31   0.00     0.01  -0.01  -0.01
  11   1     0.01  -0.03  -0.01     0.12  -0.23  -0.10    -0.01   0.05   0.03
  12   1    -0.01  -0.03  -0.01    -0.08  -0.49  -0.13     0.19   0.26   0.18
  13   1    -0.00   0.03   0.01     0.08   0.43   0.21    -0.11  -0.10  -0.07
  14   1     0.02   0.00  -0.00     0.19   0.03  -0.05     0.48   0.16   0.01
  15   1    -0.06  -0.01   0.01     0.20   0.05  -0.01     0.26   0.06   0.04
  16   1    -0.56   0.25   0.02     0.02  -0.01   0.00    -0.27   0.12   0.02
  17   1     0.54  -0.25  -0.03    -0.05   0.02   0.01    -0.28   0.11   0.01
  18   1     0.10  -0.21   0.11    -0.01   0.01  -0.01     0.00   0.04  -0.01
  19   1    -0.15   0.12  -0.18     0.01  -0.01   0.01    -0.02  -0.00  -0.03
  20   1    -0.03  -0.08  -0.05     0.00   0.00   0.00    -0.04   0.06  -0.05
                     31                     32                     33
                        a                      a                      a 
 Frequencies --  1322.7874              1333.9382              1395.6469
 Red. masses --     4.3642                 4.5700                 3.3447
 Frc consts  --     0.0000                 0.0000                 0.0000
 IR Inten    --    19.7083                 9.8468                 7.7195
 Raman Activ --     0.0000                 0.0000                 0.0000
 Depolar     --     0.0000                 0.0000                 0.0000
 Atom AN      X      Y      Z        X      Y      Z        X      Y      Z
   1   6     0.02  -0.01  -0.01     0.12  -0.01   0.07     0.00  -0.01  -0.00
   2   6     0.01  -0.04  -0.07    -0.23  -0.44  -0.19     0.00   0.00  -0.00
   3   6    -0.24  -0.04   0.06     0.07   0.13  -0.01    -0.01  -0.01  -0.00
   4   6     0.21  -0.05  -0.02    -0.05  -0.00   0.01     0.04  -0.01  -0.01
   5   8    -0.02   0.00   0.00     0.01   0.01  -0.02    -0.00  -0.00   0.00
   6   8    -0.11  -0.01   0.08     0.01  -0.00   0.00    -0.04  -0.00   0.03
   7   6    -0.33   0.20  -0.06     0.02  -0.01   0.00    -0.09   0.05  -0.01
   8   6     0.04   0.05  -0.09    -0.00  -0.00   0.01     0.31  -0.27   0.17
   9   1    -0.01   0.03   0.00    -0.07   0.19   0.03    -0.00   0.01  -0.00
  10   1    -0.00   0.01  -0.01    -0.02   0.07  -0.05    -0.00   0.01  -0.00
  11   1    -0.01   0.03   0.02    -0.06   0.02   0.04    -0.01   0.01   0.01
  12   1     0.10   0.15   0.10     0.17   0.36   0.19     0.00   0.00   0.00
  13   1    -0.05  -0.02  -0.02     0.27   0.47   0.26    -0.01  -0.01  -0.00
  14   1     0.25   0.10   0.02    -0.19  -0.07  -0.02     0.01   0.02   0.01
  15   1     0.13   0.02   0.05     0.09   0.03   0.07     0.00  -0.00   0.02
  16   1     0.45  -0.22  -0.03    -0.02   0.01   0.00     0.14   0.00  -0.04
  17   1     0.46  -0.19   0.00    -0.02   0.01  -0.00     0.11  -0.05  -0.07
  18   1     0.02  -0.09   0.02    -0.00   0.01  -0.00    -0.36   0.33  -0.03
  19   1     0.06  -0.01   0.07    -0.01   0.00  -0.00    -0.42   0.17  -0.15
  20   1     0.09  -0.13   0.12    -0.01   0.01  -0.01    -0.15   0.33  -0.38
                     34                     35                     36
                        a                      a                      a 
 Frequencies --  1411.5447              1430.9943              1462.9190
 Red. masses --     3.1717                 2.0905                 1.5171
 Frc consts  --     0.0000                 0.0000                 0.0000
 IR Inten    --     1.7022                 5.1564                 4.9012
 Raman Activ --     0.0000                 0.0000                 0.0000
 Depolar     --     0.0000                 0.0000                 0.0000
 Atom AN      X      Y      Z        X      Y      Z        X      Y      Z
   1   6    -0.03   0.42   0.09    -0.03   0.06   0.02    -0.00  -0.00  -0.00
   2   6    -0.05  -0.07  -0.04    -0.01   0.00  -0.01    -0.00  -0.00  -0.00
   3   6    -0.04   0.03   0.05     0.05  -0.10  -0.28     0.00  -0.00  -0.00
   4   6     0.02  -0.00   0.00    -0.05   0.01  -0.02    -0.00   0.00  -0.00
   5   8    -0.00   0.00  -0.00     0.00  -0.00   0.01     0.00  -0.00   0.00
   6   8    -0.00   0.00   0.00     0.01  -0.01  -0.00     0.00  -0.00  -0.00
   7   6    -0.00   0.00  -0.00     0.01  -0.01   0.01     0.02   0.04   0.02
   8   6     0.01  -0.01   0.00    -0.01   0.00  -0.00     0.07   0.16   0.12
   9   1     0.22  -0.44   0.00     0.04  -0.05  -0.03    -0.00   0.01   0.00
  10   1    -0.10  -0.48  -0.02    -0.01  -0.09   0.01     0.01  -0.01   0.01
  11   1    -0.01  -0.43  -0.28     0.05  -0.06  -0.05     0.01  -0.00  -0.00
  12   1     0.07   0.04   0.10     0.02  -0.04   0.03     0.00  -0.00   0.00
  13   1     0.11   0.05   0.01     0.05  -0.01  -0.01     0.00   0.00  -0.00
  14   1     0.03  -0.08  -0.06    -0.14   0.55   0.37    -0.00   0.01   0.00
  15   1     0.03   0.04  -0.08     0.06  -0.18   0.62     0.00  -0.00   0.01
  16   1     0.01  -0.01   0.00    -0.01   0.01  -0.00    -0.01  -0.05   0.03
  17   1     0.00  -0.00   0.00    -0.01   0.01  -0.01    -0.01   0.02   0.02
  18   1    -0.01   0.01  -0.00     0.01  -0.01   0.00    -0.45   0.06   0.07
  19   1    -0.01   0.00  -0.00     0.00  -0.00   0.01     0.41  -0.18  -0.17
  20   1    -0.00   0.01  -0.01     0.00   0.00   0.01    -0.25  -0.55  -0.39
                     37                     38                     39
                        a                      a                      a 
 Frequencies --  1466.2486              1476.3938              1481.0828
 Red. masses --     1.8812                 1.9369                 1.5744
 Frc consts  --     0.0000                 0.0000                 0.0000
 IR Inten    --     0.6182                 1.3769                 4.0379
 Raman Activ --     0.0000                 0.0000                 0.0000
 Depolar     --     0.0000                 0.0000                 0.0000
 Atom AN      X      Y      Z        X      Y      Z        X      Y      Z
   1   6     0.00  -0.00   0.00     0.01  -0.05  -0.02    -0.00   0.00   0.00
   2   6    -0.01   0.00  -0.00    -0.22   0.17  -0.05    -0.00   0.00   0.00
   3   6     0.00   0.00  -0.00    -0.02   0.01   0.01    -0.00  -0.00  -0.00
   4   6    -0.01   0.01  -0.01     0.01  -0.02   0.02     0.00  -0.00   0.00
   5   8     0.01  -0.01   0.01     0.00   0.01  -0.02     0.00   0.00  -0.00
   6   8     0.05   0.00  -0.04    -0.00   0.00  -0.00     0.00  -0.00  -0.00
   7   6     0.01   0.15  -0.22    -0.00  -0.00   0.00    -0.06   0.00   0.03
   8   6     0.03  -0.04   0.01     0.00   0.00  -0.00    -0.11  -0.07   0.17
   9   1     0.00   0.01  -0.01    -0.03   0.03   0.01     0.01  -0.00  -0.01
  10   1    -0.00  -0.00  -0.01    -0.00   0.08  -0.02    -0.01  -0.00  -0.01
  11   1     0.00   0.01   0.00    -0.04   0.06   0.04     0.00   0.00   0.00
  12   1     0.01  -0.01   0.01     0.25  -0.39   0.47     0.00  -0.00   0.01
  13   1     0.01  -0.00  -0.00     0.60  -0.21  -0.23     0.01  -0.00  -0.00
  14   1    -0.01   0.00   0.00     0.00  -0.03  -0.02    -0.00   0.00   0.00
  15   1    -0.00  -0.00   0.00    -0.01   0.01  -0.03     0.00  -0.00   0.00
  16   1    -0.29  -0.57   0.24     0.01   0.01  -0.01     0.04  -0.01  -0.00
  17   1     0.01   0.03   0.67     0.00  -0.00  -0.01     0.04  -0.02  -0.01
  18   1    -0.00   0.04  -0.01    -0.00  -0.01   0.00     0.35   0.52  -0.23
  19   1    -0.06   0.02  -0.02     0.00   0.00   0.01     0.06  -0.07  -0.65
  20   1     0.00   0.05  -0.01    -0.00  -0.00  -0.00     0.08  -0.17   0.19
                     40                     41                     42
                        a                      a                      a 
 Frequencies --  1495.0698              1502.2456              1694.4043
 Red. masses --     1.5432                 1.5592                13.3287
 Frc consts  --     0.0000                 0.0000                 0.0000
 IR Inten    --     2.9412                 0.5580               619.2566
 Raman Activ --     0.0000                 0.0000                 0.0000
 Depolar     --     0.0000                 0.0000                 0.0000
 Atom AN      X      Y      Z        X      Y      Z        X      Y      Z
   1   6    -0.19  -0.03   0.09    -0.10   0.03  -0.19     0.01  -0.00   0.00
   2   6    -0.06  -0.02   0.01    -0.03  -0.00  -0.05    -0.01  -0.00  -0.01
   3   6     0.01   0.01   0.02     0.00   0.00   0.01    -0.04  -0.02   0.07
   4   6     0.01   0.00  -0.00     0.01  -0.00  -0.01     0.10   0.35  -0.71
   5   8    -0.00  -0.00   0.00    -0.00  -0.00   0.01    -0.05  -0.27   0.52
   6   8    -0.00   0.00   0.00    -0.00   0.00  -0.00     0.02  -0.03   0.04
   7   6    -0.00  -0.00   0.00    -0.00   0.00  -0.00     0.01   0.00  -0.01
   8   6     0.00  -0.00  -0.00     0.00  -0.01   0.00    -0.01  -0.00   0.01
   9   1     0.13   0.31  -0.48    -0.31   0.12   0.40    -0.00   0.00   0.00
  10   1    -0.00  -0.37   0.09     0.42  -0.02   0.57    -0.00   0.01  -0.01
  11   1     0.64   0.19   0.01     0.28  -0.23  -0.21    -0.01   0.00   0.00
  12   1     0.01   0.03   0.04     0.02  -0.01   0.02     0.02   0.00   0.03
  13   1     0.04  -0.01  -0.01     0.02   0.03   0.00     0.02  -0.00  -0.01
  14   1    -0.00  -0.04  -0.02     0.01  -0.00  -0.00    -0.06  -0.00   0.02
  15   1    -0.01   0.01  -0.04    -0.00   0.00  -0.00     0.00   0.01  -0.02
  16   1     0.01   0.01  -0.00    -0.00  -0.01   0.00    -0.01   0.02  -0.01
  17   1     0.00  -0.00  -0.01     0.00  -0.00   0.01    -0.02   0.01  -0.01
  18   1     0.00  -0.00   0.00     0.01   0.01  -0.00     0.01  -0.00   0.00
  19   1    -0.01   0.00   0.01    -0.01   0.00  -0.01     0.01  -0.00  -0.00
  20   1     0.00   0.01   0.00     0.00   0.01   0.01    -0.00   0.00  -0.00
                     43                     44                     45
                        a                      a                      a 
 Frequencies --  2925.5614              2947.3956              2982.5665
 Red. masses --     1.9854                 1.4575                 1.9203
 Frc consts  --     0.0000                 0.0000                 0.0000
 IR Inten    --    40.8619                38.9961                31.7414
 Raman Activ --     0.0000                 0.0000                 0.0000
 Depolar     --     0.0000                 0.0000                 0.0000
 Atom AN      X      Y      Z        X      Y      Z        X      Y      Z
   1   6     0.00   0.00  -0.00    -0.00  -0.00   0.00     0.01   0.01  -0.03
   2   6    -0.00  -0.00   0.00    -0.00   0.00  -0.00    -0.06  -0.10   0.25
   3   6    -0.00   0.00   0.00    -0.00   0.00  -0.00    -0.01   0.05  -0.01
   4   6     0.00   0.00   0.00     0.00  -0.00   0.00    -0.00   0.00  -0.00
   5   8    -0.00  -0.00  -0.00     0.00   0.00  -0.00     0.00   0.00  -0.00
   6   8    -0.00  -0.00  -0.00    -0.02   0.00   0.01     0.00  -0.00   0.00
   7   6    -0.11  -0.22  -0.16    -0.03  -0.11   0.17    -0.00   0.00   0.00
   8   6     0.00   0.01   0.01     0.01   0.00  -0.01    -0.00  -0.00  -0.00
   9   1     0.00   0.00   0.00     0.00   0.00   0.00     0.01   0.00  -0.00
  10   1    -0.00   0.00   0.00     0.00  -0.00  -0.00    -0.08   0.01   0.06
  11   1     0.00  -0.00   0.00    -0.00   0.00  -0.00     0.02  -0.05   0.07
  12   1     0.00  -0.00  -0.00     0.00  -0.00  -0.00     0.33  -0.06  -0.20
  13   1    -0.00   0.00  -0.00     0.00  -0.00   0.00    -0.11   0.44  -0.71
  14   1    -0.00  -0.00  -0.00     0.00  -0.00   0.00     0.03  -0.07   0.11
  15   1     0.00  -0.00  -0.00     0.00   0.00   0.00     0.03  -0.12  -0.04
  16   1     0.13   0.19   0.64    -0.14  -0.24  -0.63    -0.00  -0.00  -0.00
  17   1     0.26   0.61  -0.05     0.28   0.64   0.00     0.00   0.00   0.00
  18   1    -0.01  -0.01  -0.04     0.01   0.01   0.03    -0.00  -0.00   0.00
  19   1    -0.01  -0.03   0.00    -0.01  -0.03  -0.00     0.00   0.00   0.00
  20   1     0.00   0.00   0.00    -0.02   0.00   0.01    -0.00   0.00   0.00
                     46                     47                     48
                        a                      a                      a 
 Frequencies --  2984.4794              2996.9155              3013.6905
 Red. masses --     1.7273                 1.5402                 1.7636
 Frc consts  --     0.0000                 0.0000                 0.0000
 IR Inten    --    10.4567                43.1466                25.6664
 Raman Activ --     0.0000                 0.0000                 0.0000
 Depolar     --     0.0000                 0.0000                 0.0000
 Atom AN      X      Y      Z        X      Y      Z        X      Y      Z
   1   6    -0.00  -0.00   0.01    -0.04  -0.00   0.01     0.01  -0.01   0.02
   2   6     0.05   0.00  -0.04     0.19  -0.08  -0.03     0.00   0.02  -0.04
   3   6    -0.05   0.23   0.06     0.02  -0.05  -0.02    -0.05   0.14  -0.21
   4   6    -0.00   0.01   0.00    -0.00  -0.00   0.00    -0.00   0.01  -0.01
   5   8     0.00  -0.00  -0.00    -0.00   0.00  -0.00     0.00  -0.00   0.00
   6   8     0.00  -0.00   0.00     0.00  -0.00  -0.00     0.00  -0.00   0.00
   7   6     0.00   0.00   0.00    -0.00  -0.00   0.00    -0.00   0.00  -0.00
   8   6    -0.00  -0.00  -0.00     0.00  -0.00   0.00    -0.00  -0.00   0.00
   9   1     0.00   0.00   0.00     0.06   0.03   0.04    -0.03  -0.01  -0.01
  10   1     0.01  -0.00  -0.01     0.10  -0.02  -0.08    -0.00  -0.00   0.00
  11   1    -0.00   0.01  -0.02    -0.00  -0.01   0.01    -0.01   0.04  -0.06
  12   1    -0.20   0.02   0.14    -0.67   0.07   0.48    -0.02   0.00   0.01
  13   1     0.01  -0.01   0.01    -0.02   0.22  -0.38     0.01  -0.07   0.11
  14   1    -0.01   0.04  -0.01     0.01  -0.03   0.04     0.18  -0.52   0.78
  15   1     0.20  -0.88  -0.23    -0.04   0.20   0.05    -0.00   0.01  -0.03
  16   1    -0.00  -0.00  -0.00    -0.00  -0.00  -0.00     0.00   0.00   0.00
  17   1    -0.00  -0.00   0.00     0.00   0.00   0.00    -0.00  -0.00  -0.00
  18   1     0.00   0.00   0.00    -0.00  -0.00  -0.00    -0.00  -0.00  -0.00
  19   1     0.00   0.00  -0.00     0.00   0.00   0.00     0.00   0.00   0.00
  20   1    -0.00  -0.00   0.00    -0.00   0.00   0.00     0.00  -0.00  -0.00
                     49                     50                     51
                        a                      a                      a 
 Frequencies --  3022.1094              3036.1939              3045.6681
 Red. masses --     1.8702                 1.8113                 1.4707
 Frc consts  --     0.0000                 0.0000                 0.0000
 IR Inten    --    95.2078                64.3668                39.0940
 Raman Activ --     0.0000                 0.0000                 0.0000
 Depolar     --     0.0000                 0.0000                 0.0000
 Atom AN      X      Y      Z        X      Y      Z        X      Y      Z
   1   6     0.21   0.02  -0.17    -0.13   0.10  -0.21     0.14   0.13   0.08
   2   6     0.04   0.00  -0.04    -0.01   0.02  -0.03     0.01  -0.00   0.00
   3   6     0.00  -0.01  -0.00    -0.00   0.01  -0.01     0.00  -0.00   0.00
   4   6    -0.00  -0.00   0.00    -0.00   0.00  -0.00    -0.00  -0.00   0.00
   5   8     0.00   0.00   0.00     0.00  -0.00   0.00     0.00   0.00  -0.00
   6   8     0.00   0.00   0.00     0.00  -0.00   0.00     0.00  -0.00  -0.00
   7   6     0.00   0.00   0.00     0.00   0.00   0.00    -0.00  -0.00   0.00
   8   6     0.00  -0.00  -0.00    -0.00  -0.00   0.00     0.00   0.00   0.00
   9   1    -0.08  -0.05  -0.09     0.24   0.13   0.12    -0.74  -0.31  -0.43
  10   1    -0.73   0.10   0.54     0.11  -0.00  -0.13     0.18  -0.01  -0.11
  11   1     0.06  -0.11   0.16     0.12  -0.46   0.75     0.06  -0.13   0.25
  12   1    -0.13   0.01   0.09     0.01   0.00  -0.01    -0.03   0.00   0.02
  13   1     0.01  -0.02   0.03     0.01  -0.05   0.08    -0.00   0.01  -0.02
  14   1     0.00   0.00  -0.00     0.01  -0.03   0.05    -0.00   0.01  -0.01
  15   1    -0.00   0.02   0.01     0.00  -0.02  -0.01     0.00   0.00   0.00
  16   1    -0.00  -0.00  -0.00    -0.00   0.00  -0.00    -0.00  -0.00  -0.00
  17   1     0.00   0.00  -0.00    -0.00  -0.00   0.00     0.00   0.00   0.00
  18   1     0.00   0.00   0.00    -0.00  -0.00  -0.00    -0.00   0.00  -0.00
  19   1     0.00   0.00  -0.00     0.00   0.00   0.00    -0.00  -0.00   0.00
  20   1    -0.00   0.00   0.00     0.00  -0.00  -0.00    -0.00   0.00   0.00
                     52                     53                     54
                        a                      a                      a 
 Frequencies --  3055.5854              3058.8212              3064.6951
 Red. masses --     1.9285                 1.4119                 1.8358
 Frc consts  --     0.0000                 0.0000                 0.0000
 IR Inten    --    29.7052                19.4984                23.6793
 Raman Activ --     0.0000                 0.0000                 0.0000
 Depolar     --     0.0000                 0.0000                 0.0000
 Atom AN      X      Y      Z        X      Y      Z        X      Y      Z
   1   6    -0.00   0.00   0.00     0.00  -0.00   0.00    -0.00   0.00  -0.00
   2   6    -0.00   0.00  -0.00    -0.00   0.00  -0.00    -0.00   0.00  -0.00
   3   6     0.00  -0.00   0.00     0.00  -0.00   0.00     0.00   0.00  -0.00
   4   6    -0.00  -0.00  -0.00    -0.00   0.00  -0.00    -0.00   0.00  -0.00
   5   8    -0.00   0.00  -0.00    -0.00   0.00  -0.00    -0.00  -0.00   0.00
   6   8     0.00   0.00   0.00     0.00  -0.00   0.00    -0.00  -0.00   0.00
   7   6    -0.01  -0.02  -0.01     0.00  -0.00   0.01     0.01   0.00  -0.01
   8   6    -0.11  -0.24  -0.11     0.02  -0.04   0.19     0.22  -0.00  -0.16
   9   1    -0.00  -0.00  -0.00    -0.00  -0.00  -0.00     0.00   0.00   0.00
  10   1     0.00  -0.00  -0.00    -0.00   0.00   0.00     0.00  -0.00  -0.00
  11   1     0.00   0.00   0.00    -0.00   0.00  -0.00     0.00  -0.00   0.00
  12   1     0.00  -0.00  -0.00     0.00  -0.00  -0.00     0.00   0.00  -0.00
  13   1     0.00  -0.00   0.00    -0.00  -0.00   0.00     0.00  -0.00   0.00
  14   1    -0.00   0.00  -0.00    -0.00   0.00  -0.00     0.00  -0.00   0.00
  15   1    -0.00   0.00   0.00    -0.00   0.00   0.00    -0.00   0.00  -0.00
  16   1     0.00   0.01   0.03    -0.01  -0.01  -0.03     0.00   0.01   0.02
  17   1     0.02   0.04  -0.00     0.01   0.01   0.00    -0.01  -0.02  -0.00
  18   1     0.06   0.13   0.45    -0.13  -0.29  -0.77     0.05   0.05   0.11
  19   1     0.36   0.75  -0.04     0.21   0.43   0.01    -0.02  -0.09  -0.02
  20   1    -0.04  -0.03  -0.01    -0.15   0.01   0.11    -0.82   0.05   0.47
