
                                 *****************
                                 * O   R   C   A *
                                 *****************

                                            #,                                       
                                            ###                                      
                                            ####                                     
                                            #####                                    
                                            ######                                   
                                           ########,                                 
                                     ,,################,,,,,                         
                               ,,#################################,,                 
                          ,,##########################################,,             
                       ,#########################################, ''#####,          
                    ,#############################################,,   '####,        
                  ,##################################################,,,,####,       
                ,###########''''           ''''###############################       
              ,#####''   ,,,,##########,,,,          '''####'''          '####       
            ,##' ,,,,###########################,,,                        '##       
           ' ,,###''''                  '''############,,,                           
         ,,##''                                '''############,,,,        ,,,,,,###''
      ,#''                                            '''#######################'''  
     '                                                          ''''####''''         
             ,#######,   #######,   ,#######,      ##                                
            ,#'     '#,  ##    ##  ,#'     '#,    #''#        ,####,   ,####,        
            ##       ##  ##   ,#'  ##            #'  '#       #'       #'  '#        
            ##       ##  #######   ##           ,######,      #####,   #    #        
            '#,     ,#'  ##    ##  '#,     ,#' ,#      #,     #,   #   #,  ,#        
             '#######'   ##     ##  '#######'  #'      '#     '####' # '####'        



                #########################################################
                #                        -***-                          #
                #          Department of theory and spectroscopy        #
                #                                                       #
                #                      Frank Neese                      #
                #                                                       #
                #     Directorship, Architecture, Infrastructure        #
                #                    SHARK, DRIVERS                     #
                #        Core code/Algorithms in most modules           #
                #                                                       #
                #        Max Planck Institute fuer Kohlenforschung      #
                #                Kaiser Wilhelm Platz 1                 #
                #                 D-45470 Muelheim/Ruhr                 #
                #                      Germany                          #
                #                                                       #
                #                  All rights reserved                  #
                #                        -***-                          #
                #########################################################


                         Program Version 6.0.1  -  RELEASE   -


 With contributions from (in alphabetic order):
[Max-Planck-Institut fuer Kohlenforschung]                               
  Daniel Aravena         : Magnetic Suceptibility                        
  Michael Atanasov       : Ab Initio Ligand Field Theory (pilot matlab implementation)
  Alexander A. Auer      : GIAO ZORA, VPT2 properties, NMR spectrum      
  Ute Becker             : All parallelization in ORCA, NUMFREQ, NUMCALC 
  Giovanni Bistoni       : ED, misc. LED, open-shell LED, HFLD           
  Martin Brehm           : Molecular dynamics                            
  Dmytro Bykov           : pre 5.0 version of the SCF Hessian            
  Marcos Casanova-Páez   : Triplet and SCS-CIS(D). UHF-(DLPNO)-IP/EA/STEOM-CCSD. UHF-CVS-IP/STEOM-CCSD   
  Vijay G. Chilkuri      : MRCI spin determinant printing, contributions to CSF-ICE 
  Pauline Colinet        : FMM embedding                                 
  Dipayan Datta          : RHF DLPNO-CCSD density                        
  Achintya Kumar Dutta   : EOM-CC, STEOM-CC                              
  Nicolas Foglia         : Exact transition moments, OPA infrastructure, MCD improvements    
  Dmitry Ganyushin       : Spin-Orbit,Spin-Spin,Magnetic field MRCI      
  Miquel Garcia-Rates    : C-PCM and meta-GGA Hessian, CCSD/C-PCM, Gaussian charge scheme 
  Tiago L. C. Gouveia    : GS-ROHF, GS-ROCIS                             
  Yang Guo               : DLPNO-NEVPT2, F12-NEVPT2, CIM, IAO-localization        
  Andreas Hansen         : Spin unrestricted coupled pair/coupled cluster methods 
  Ingolf Harden          : AUTO-CI MPn and infrastructure                
  Benjamin Helmich-Paris : MC-RPA, TRAH-(SCF,CASSCF), AVAS, COSX integrals, SCF dyn. polar. 
  Lee Huntington         : MR-EOM, pCC                                   
  Robert Izsak           : Overlap fitted RIJCOSX, COSX-SCS-MP3, EOM     
  Riya Kayal             : Wick's Theorem for AUTO-CI, AUTO-CI UHF-CCSDT 
  Emily Kempfer          : AUTO-CI, RHF CISDT and CCSDT                  
  Christian Kollmar      : KDIIS, OOCD, Brueckner-CCSD(T), CCSD density, CASPT2, CASPT2-K, improved NEVPT2 
  Axel Koslowski         : Symmetry handling                             
  Simone Kossmann        : meta-GGA functionals, TD-DFT gradient, OOMP2, (MP2 Hessian; deprecated post 5.0) 
  Lucas Lang             : DCDCAS                                        
  Marvin Lechner         : AUTO-CI (C++ implementation), FIC-MRCC        
  Spencer Leger          : CASSCF response                               
  Dagmar Lenk            : GEPOL surface, SMD, ORCA-2-JSON               
  Dimitrios Liakos       : Extrapolation schemes; Compound Job, initial MDCI parallelization 
  Dimitrios Manganas     : Further ROCIS development; embedding schemes. LFT, Crystal Embedding 
  Dimitrios Pantazis     : SARC Basis sets                               
  Anastasios Papadopoulos: AUTO-CI, single reference methods and gradients 
  Taras Petrenko         : pre 6.0 DFT Hessian and TD-DFT gradient, (ASA, deprecated), ECA, 1-Electron XAS/XES, NRVS 
  Peter Pinski           : DLPNO-MP2, DLPNO-MP2 Gradient                 
  Christoph Reimann      : Effective Core Potentials                     
  Marius Retegan         : Local ZFS, SOC                                
  Christoph Riplinger    : Optimizer, TS searches, QM/MM, DLPNO-CCSD(T), (RO)-DLPNO pert. Triples 
  Michael Roemelt        : Original ROCIS implementation                 
  Masaaki Saitow         : Open-shell DLPNO-CCSD energy and density      
  Barbara Sandhoefer     : DKH picture change effects                    
  Kantharuban Sivalingam : CASSCF convergence/infrastructure, NEVPT2 and variants, FIC-MRCI 
  Bernardo de Souza      : ESD, SOC TD-DFT                               
  Georgi L. Stoychev     : AutoAux, RI-MP2 NMR, DLPNO-MP2 response, X2C  
  Van Anh Tran           : RI-MP2 g-tensors                              
  Willem Van den Heuvel  : Paramagnetic NMR                              
  Zikuan Wang            : NOTCH, Electric field optimization            
  Frank Wennmohs         : Technical directorship and infrastructure     
  Hang Xu                : AUTO-CI-Response properties                   
                                                                         
[FACCTs GmbH]                                                            
  Markus Bursch, Miquel Garcia-Rates, Christoph Riplinger, Bernardo de Souza, Georgi L. Stoychev 
                                                                 
  APM, Basis sets (HGBS, AHGBS, def-TZVP (Ac-Lr), def2-XVPD (La-Lu)), CI-OPT, improved COSX, DLPNO-Multilevel,           
  DOCKER, DRACO, updates on ESD, GOAT, IRC, LR-CPCM, MBIS, meta-GGA TD-DFT gradient, ML-optimized integration grids, 
  MM, NACMEs, nearIR, NEB, NEB-TS, NL-DFT gradient (VV10), 2- and 3-layer-ONIOM, interface openCOSMO-RS, QMMM,   
  Crystal-QMMM, SF, symmetry and pop. for TD-DFT, r2SCAN hybrids, SOLVATOR                                   
                                                                         
[Other institutions]                                                     
  V. Asgeirsson          : NEB                                           
  Christoph Bannwarth    : sTDA-DFT, sTD-DFT, PBEh-3c, B97-3c, D3        
  Sebastian Ehlert       : rSCAN, r2SCAN, r2SCAN-3c, D4, dhf basis sets  
  Marvin Friede          : D4 for Fr, Ra, Ac-Lr                          
  Lars Goerigk           : TD-DFT with DH, B97 family of functionals     
  Stefan Grimme          : VdW corrections, initial TS optimization, DFT functionals, gCP, sTDA/sTD-DF 
  Waldemar Hujo          : DFT-NL                                        
  H. Jonsson             : NEB                                           
  Holger Kruse           : gCP                                           
  Marcel Mueller         : wB97X-3c, vDZP basis set                      
  Hagen Neugebauer       : wr2SCAN                                       
  Tobias Risthaus        : range-separated hybrid DFT                    
  Lukas Wittmann         : regularized MP2, r2SCAN double-hybrids, wr2SCAN        
                                                                         
We gratefully acknowledge several colleagues who have allowed us to      
interface, adapt or use parts of their codes:                            
  Ed Valeev, F. Pavosevic, A. Kumar             : LibInt (2-el integral package), F12 methods 
  Garnet Chan, S. Sharma, J. Yang, R. Olivares  : DMRG                   
  Ulf Ekstrom                                   : XCFun DFT Library      
  Mihaly Kallay                                 : mrcc  (arbitrary order and MRCC methods)
  Frank Weinhold                                : gennbo (NPA and NBO analysis)           
  Simon Mueller                                 : openCOSMO-RS                            
  Christopher J. Cramer and Donald G. Truhlar   : smd solvation model                     
  S Lehtola, MJT Oliveira, MAL Marques          : LibXC Library                           
  Liviu Ungur et al                             : ANISO software                          


 Your calculation uses the libint2 library for the computation of 2-el integrals
 For citations please refer to: http://libint.valeyev.net

 Your ORCA version has been built with support for libXC version: 6.2.2
 For citations please refer to: https://libxc.gitlab.io

 This ORCA versions uses:
   CBLAS   interface :  Fast vector & matrix operations
   LAPACKE interface :  Fast linear algebra routines
   SCALAPACK package :  Parallel linear algebra routines
   Shared memory     :  Shared parallel matrices
   BLAS/LAPACK       :  OpenBLAS 0.3.27  USE64BITINT DYNAMIC_ARCH NO_AFFINITY Zen SINGLE_THREADED
        Core in use  :  Zen
   Copyright (c) 2011-2014, The OpenBLAS Project


Your calculation utilizes the geometrical counterpoise correction gCP
Please cite in your paper:
H.Kruse, S. Grimme J.Chem.Phys., 136, (2012), 154101 
   

Your calculation utilizes the atom-pairwise dispersion correction
based on EEQ partial charges (D4)


================================================================================

----- Orbital basis set information -----
Your calculation utilizes the basis: def2-SV(P)
   F. Weigend and R. Ahlrichs, Phys. Chem. Chem. Phys. 7, 3297 (2005).

----- AuxJ basis set information -----
Your calculation utilizes the auxiliary basis: def2/J
   F. Weigend, Phys. Chem. Chem. Phys. 8, 1057 (2006).

================================================================================
                                        WARNINGS
                       Please study these warnings very carefully!
================================================================================


================================================================================
                                       INPUT FILE
================================================================================
NAME = sp.inp
|  1> ! pbe def2-sv(p) def2/J RI DEFGRID1 loosescf d4 GCP(DFT/SV(P)) printgap
|  2> %output
|  3>     printlevel normal
|  4> end
|  5> * xyz 0 1
|  6> C -3.717279603 0.2603013043 -1.8333509338
|  7> C -3.2512688956 -0.5400908004 -0.6148532083
|  8> H -3.5283095914 -1.5916583523 -0.7536705809
|  9> C -1.754743775 -0.4574398244 -0.4492002395
| 10> C -0.9323706737 -1.5362722574 -0.7451778329
| 11> C 0.4396605963 -1.4381288067 -0.6156803604
| 12> C 1.0489503526 -0.2602551894 -0.1867805898
| 13> C 0.2009477453 0.8023363205 0.1079568017
| 14> C -1.1701370734 0.725344577 -0.0160214206
| 15> F 0.7236364813 1.9789648219 0.5673065447
| 16> C 2.5115360113 -0.1666462773 -0.0557339893
| 17> C 3.2051852469 0.9434388469 -0.5302140682
| 18> C 4.581523028 1.0109767892 -0.4125883351
| 19> C 5.2825519359 -0.0250421924 0.1813305929
| 20> C 4.600156706 -1.1329491349 0.6568395212
| 21> C 3.2249641393 -1.2060978548 0.5373114337
| 22> C -3.937988799 -0.1100652802 0.66887232
| 23> O -3.5208642646 -0.377976286 1.7766730831
| 24> O -5.0557610223 0.5625238584 0.4743477856
| 25> H -3.2097877365 -0.1073283979 -2.7205942706
| 26> H -4.7896931083 0.1565645001 -1.9666916891
| 27> H -3.4822903814 1.3137735259 -1.7094815401
| 28> H -1.3679865953 -2.4640722327 -1.0819084918
| 29> H 1.0641183888 -2.2820360404 -0.8635144096
| 30> H -1.7669207702 1.5867619262 0.2408409779
| 31> H 2.6665503181 1.7513090405 -1.0027867012
| 32> H 5.1074703265 1.8762837871 -0.7869791648
| 33> H 6.3563831354 0.0314874996 0.2744239178
| 34> H 5.1414300951 -1.9417092451 1.1240928794
| 35> H 2.6929946687 -2.0626096954 0.9233995028
| 36> H -5.5000601222 0.8080408561 1.3092411829
| 37> *
| 38> 
| 39>                          ****END OF INPUT****
================================================================================

                       ****************************
                       * Single Point Calculation *
                       ****************************

---------------------------------
CARTESIAN COORDINATES (ANGSTROEM)
---------------------------------
  C     -3.717280    0.260301   -1.833351
  C     -3.251269   -0.540091   -0.614853
  H     -3.528310   -1.591658   -0.753671
  C     -1.754744   -0.457440   -0.449200
  C     -0.932371   -1.536272   -0.745178
  C      0.439661   -1.438129   -0.615680
  C      1.048950   -0.260255   -0.186781
  C      0.200948    0.802336    0.107957
  C     -1.170137    0.725345   -0.016021
  F      0.723636    1.978965    0.567307
  C      2.511536   -0.166646   -0.055734
  C      3.205185    0.943439   -0.530214
  C      4.581523    1.010977   -0.412588
  C      5.282552   -0.025042    0.181331
  C      4.600157   -1.132949    0.656840
  C      3.224964   -1.206098    0.537311
  C     -3.937989   -0.110065    0.668872
  O     -3.520864   -0.377976    1.776673
  O     -5.055761    0.562524    0.474348
  H     -3.209788   -0.107328   -2.720594
  H     -4.789693    0.156565   -1.966692
  H     -3.482290    1.313774   -1.709482
  H     -1.367987   -2.464072   -1.081908
  H      1.064118   -2.282036   -0.863514
  H     -1.766921    1.586762    0.240841
  H      2.666550    1.751309   -1.002787
  H      5.107470    1.876284   -0.786979
  H      6.356383    0.031487    0.274424
  H      5.141430   -1.941709    1.124093
  H      2.692995   -2.062610    0.923400
  H     -5.500060    0.808041    1.309241

----------------------------
CARTESIAN COORDINATES (A.U.)
----------------------------
  NO LB      ZA    FRAG     MASS         X           Y           Z
   0 C     6.0000    0    12.011   -7.024640    0.491898   -3.464531
   1 C     6.0000    0    12.011   -6.144008   -1.020624   -1.161904
   2 H     1.0000    0     1.008   -6.667539   -3.007798   -1.424231
   3 C     6.0000    0    12.011   -3.315985   -0.864436   -0.848865
   4 C     6.0000    0    12.011   -1.761925   -2.903134   -1.408182
   5 C     6.0000    0    12.011    0.830838   -2.717670   -1.163467
   6 C     6.0000    0    12.011    1.982229   -0.491811   -0.352964
   7 C     6.0000    0    12.011    0.379736    1.516196    0.204009
   8 C     6.0000    0    12.011   -2.211239    1.370703   -0.030276
   9 F     9.0000    0    18.998    1.367475    3.739702    1.072054
  10 C     6.0000    0    12.011    4.746115   -0.314916   -0.105322
  11 C     6.0000    0    12.011    6.056922    1.782841   -1.001959
  12 C     6.0000    0    12.011    8.657824    1.910469   -0.779679
  13 C     6.0000    0    12.011    9.982576   -0.047323    0.342665
  14 C     6.0000    0    12.011    8.693036   -2.140964    1.241247
  15 C     6.0000    0    12.011    6.094299   -2.279195    1.015371
  16 C     6.0000    0    12.011   -7.441720   -0.207993    1.263986
  17 O     8.0000    0    15.999   -6.653469   -0.714272    3.357426
  18 O     8.0000    0    15.999   -9.554004    1.063016    0.896387
  19 H     1.0000    0     1.008   -6.065620   -0.202821   -5.141178
  20 H     1.0000    0     1.008   -9.051208    0.295864   -3.716509
  21 H     1.0000    0     1.008   -6.580575    2.482672   -3.230452
  22 H     1.0000    0     1.008   -2.585120   -4.656422   -2.044511
  23 H     1.0000    0     1.008    2.010892   -4.312423   -1.631806
  24 H     1.0000    0     1.008   -3.338996    2.998545    0.455123
  25 H     1.0000    0     1.008    5.039050    3.309494   -1.894992
  26 H     1.0000    0     1.008    9.651720    3.545663   -1.487175
  27 H     1.0000    0     1.008   12.011823    0.059503    0.518586
  28 H     1.0000    0     1.008    9.715895   -3.669299    2.124228
  29 H     1.0000    0     1.008    5.089022   -3.897767    1.744972
  30 H     1.0000    0     1.008  -10.393607    1.526976    2.474107

--------------------------------
INTERNAL COORDINATES (ANGSTROEM)
--------------------------------
 C      0   0   0     0.000000000000     0.00000000     0.00000000
 C      1   0   0     1.530532654904     0.00000000     0.00000000
 H      2   1   0     1.096273746048   108.89705221     0.00000000
 C      2   1   3     1.507932202220   111.15962977   119.47906769
 C      4   2   1     1.388445055459   121.45381166   253.30004403
 C      5   4   2     1.381619172622   120.86469512   178.63114630
 C      6   5   4     1.393762992293   121.53341660   359.94981852
 C      7   6   5     1.391071266631   116.37568050     0.30502152
 C      8   7   6     1.378829905478   122.98883257   359.61788570
 F      8   7   6     1.366989514021   119.70927506   178.32704778
 C      7   6   5     1.471425380018   121.04415167   180.14618246
 C     11   7   6     1.392325245872   121.03577861   135.19123855
 C     12  11   7     1.383005016050   120.38076849   180.68403040
 C     13  12  11     1.384744219336   120.24863044   359.87028947
 C     14  13  12     1.385362690389   119.74722254     0.09227718
 C     15  14  13     1.382314108454   120.17728416     0.11374838
 C      2   1   3     1.518043940655   112.79060914   243.44487319
 O     17   2   1     1.213668700656   123.63308289   197.46447715
 O     17   2   1     1.318950600677   113.77255370    18.88765441
 H      1   2   3     1.086232171867   109.33194287   297.86157667
 H      1   2   3     1.085638893887   110.40044648    58.01340531
 H      1   2   3     1.086447091508   110.51504535   178.28174736
 H      5   4   2     1.078870502869   119.70850375   358.69881450
 H      6   5   4     1.078679131924   119.85342943   180.86927678
 H      9   8   7     1.078966599127   118.94791664   179.34368634
 H     12  11   7     1.079864218173   119.80860274     0.00000000
 H     13  12  11     1.079604212097   119.63445477   179.84127151
 H     14  13  12     1.079340269905   120.09768279   180.17672462
 H     15  14  13     1.079534852771   120.04770192   180.23385417
 H     16  15  14     1.079661080080   120.08202078   181.03613184
 H     19  17   2     0.977101464121   112.79709939   178.21619988

---------------------------
INTERNAL COORDINATES (A.U.)
---------------------------
 C      0   0   0     0.000000000000     0.00000000     0.00000000
 C      1   0   0     2.892287556791     0.00000000     0.00000000
 H      2   1   0     2.071657147838   108.89705221     0.00000000
 C      2   1   3     2.849578890717   111.15962977   119.47906769
 C      4   2   1     2.623780906815   121.45381166   253.30004403
 C      5   4   2     2.610881857631   120.86469512   178.63114630
 C      6   5   4     2.633830351027   121.53341660   359.94981852
 C      7   6   5     2.628743726700   116.37568050     0.30502152
 C      8   7   6     2.605610906615   122.98883257   359.61788570
 F      8   7   6     2.583235809441   119.70927506   178.32704778
 C      7   6   5     2.780590994736   121.04415167   180.14618246
 C     11   7   6     2.631113404042   121.03577861   135.19123855
 C     12  11   7     2.613500722175   120.38076849   180.68403040
 C     13  12  11     2.616787340075   120.24863044   359.87028947
 C     14  13  12     2.617956080988   119.74722254     0.09227718
 C     15  14  13     2.612195096034   120.17728416     0.11374838
 C      2   1   3     2.868687307096   112.79060914   243.44487319
 O     17   2   1     2.293501461552   123.63308289   197.46447715
 O     17   2   1     2.492455419451   113.77255370    18.88765441
 H      1   2   3     2.052681322683   109.33194287   297.86157667
 H      1   2   3     2.051560189779   110.40044648    58.01340531
 H      1   2   3     2.053087461946   110.51504535   178.28174736
 H      5   4   2     2.038769784389   119.70850375   358.69881450
 H      6   5   4     2.038408145712   119.85342943   180.86927678
 H      9   8   7     2.038951379999   118.94791664   179.34368634
 H     12  11   7     2.040647634169   119.80860274     0.00000000
 H     13  12  11     2.040156293891   119.63445477   179.84127151
 H     14  13  12     2.039657515433   120.09768279   180.17672462
 H     15  14  13     2.040025223761   120.04770192   180.23385417
 H     16  15  14     2.040263758805   120.08202078   181.03613184
 H     19  17   2     1.846454172242   112.79709939   178.21619988

---------------------
BASIS SET INFORMATION
---------------------
There are 4 groups of distinct atoms

 Group   1 Type C   : 7s4p1d contracted to 3s2p1d pattern {511/31/1}
 Group   2 Type H   : 4s contracted to 2s pattern {31}
 Group   3 Type F   : 7s4p1d contracted to 3s2p1d pattern {511/31/1}
 Group   4 Type O   : 7s4p1d contracted to 3s2p1d pattern {511/31/1}

Atom   0C    basis set group =>   1
Atom   1C    basis set group =>   1
Atom   2H    basis set group =>   2
Atom   3C    basis set group =>   1
Atom   4C    basis set group =>   1
Atom   5C    basis set group =>   1
Atom   6C    basis set group =>   1
Atom   7C    basis set group =>   1
Atom   8C    basis set group =>   1
Atom   9F    basis set group =>   3
Atom  10C    basis set group =>   1
Atom  11C    basis set group =>   1
Atom  12C    basis set group =>   1
Atom  13C    basis set group =>   1
Atom  14C    basis set group =>   1
Atom  15C    basis set group =>   1
Atom  16C    basis set group =>   1
Atom  17O    basis set group =>   4
Atom  18O    basis set group =>   4
Atom  19H    basis set group =>   2
Atom  20H    basis set group =>   2
Atom  21H    basis set group =>   2
Atom  22H    basis set group =>   2
Atom  23H    basis set group =>   2
Atom  24H    basis set group =>   2
Atom  25H    basis set group =>   2
Atom  26H    basis set group =>   2
Atom  27H    basis set group =>   2
Atom  28H    basis set group =>   2
Atom  29H    basis set group =>   2
Atom  30H    basis set group =>   2
---------------------------------
AUXILIARY/J BASIS SET INFORMATION
---------------------------------
There are 4 groups of distinct atoms

 Group   1 Type C   : 12s5p4d2f1g contracted to 6s4p3d1f1g pattern {711111/2111/211/2/1}
 Group   2 Type H   : 5s2p1d contracted to 3s1p1d pattern {311/2/1}
 Group   3 Type F   : 12s5p4d2f1g contracted to 6s4p3d1f1g pattern {711111/2111/211/2/1}
 Group   4 Type O   : 12s5p4d2f1g contracted to 6s4p3d1f1g pattern {711111/2111/211/2/1}

Atom   0C    basis set group =>   1
Atom   1C    basis set group =>   1
Atom   2H    basis set group =>   2
Atom   3C    basis set group =>   1
Atom   4C    basis set group =>   1
Atom   5C    basis set group =>   1
Atom   6C    basis set group =>   1
Atom   7C    basis set group =>   1
Atom   8C    basis set group =>   1
Atom   9F    basis set group =>   3
Atom  10C    basis set group =>   1
Atom  11C    basis set group =>   1
Atom  12C    basis set group =>   1
Atom  13C    basis set group =>   1
Atom  14C    basis set group =>   1
Atom  15C    basis set group =>   1
Atom  16C    basis set group =>   1
Atom  17O    basis set group =>   4
Atom  18O    basis set group =>   4
Atom  19H    basis set group =>   2
Atom  20H    basis set group =>   2
Atom  21H    basis set group =>   2
Atom  22H    basis set group =>   2
Atom  23H    basis set group =>   2
Atom  24H    basis set group =>   2
Atom  25H    basis set group =>   2
Atom  26H    basis set group =>   2
Atom  27H    basis set group =>   2
Atom  28H    basis set group =>   2
Atom  29H    basis set group =>   2
Atom  30H    basis set group =>   2
------------------------------------------------------------------------------
                             ORCA STARTUP CALCULATIONS
                           -- RI-GTO INTEGRALS CHOSEN --
------------------------------------------------------------------------------
------------------------------------------------------------------------------
                   ___                                                        
                  /   \      - P O W E R E D   B Y -                         
                 /     \                                                     
                 |  |  |   _    _      __       _____    __    __             
                 |  |  |  | |  | |    /  \     |  _  \  |  |  /  |          
                  \  \/   | |  | |   /    \    | | | |  |  | /  /          
                 / \  \   | |__| |  /  /\  \   | |_| |  |  |/  /          
                |  |  |   |  __  | /  /__\  \  |    /   |      \           
                |  |  |   | |  | | |   __   |  |    \   |  |\   \          
                \     /   | |  | | |  |  |  |  | |\  \  |  | \   \       
                 \___/    |_|  |_| |__|  |__|  |_| \__\ |__|  \__/        
                                                                              
                      - O R C A' S   B I G   F R I E N D -                    
                                      &                                       
                       - I N T E G R A L  F E E D E R -                       
                                                                              
 v1 FN, 2020, v2 2021, v3 2022-2024                                           
------------------------------------------------------------------------------


----------------------
SHARK INTEGRAL PACKAGE
----------------------

Number of atoms                             ...     31
Number of basis functions                   ...    278
Number of shells                            ...    134
Maximum angular momentum                    ...      2
Integral batch strategy                     ... SHARK/LIBINT Hybrid
RI-J (if used) integral strategy            ... SPLIT-RIJ (Revised 2003 algorithm where possible)
Printlevel                                  ...      1
Contraction scheme used                     ... SEGMENTED contraction
Prescreening option                         ... SCHWARTZ
   Thresh                                   ... 1.000e-09
   Tcut                                     ... 1.000e-10
   Tpresel                                  ... 1.000e-10 
Coulomb Range Separation                    ... NOT USED
Exchange Range Separation                   ... NOT USED
Multipole approximations                    ... NOT USED
Finite Nucleus Model                        ... NOT USED
CABS basis                                  ... NOT available
Auxiliary Coulomb fitting basis             ... AVAILABLE
   # of basis functions in Aux-J            ...   1025
   # of shells in Aux-J                     ...    335
   Maximum angular momentum in Aux-J        ...      4
Auxiliary J/K fitting basis                 ... NOT available
Auxiliary Correlation fitting basis         ... NOT available
Auxiliary 'external' fitting basis          ... NOT available

Checking pre-screening integrals            ... done (  0.0 sec) Dimension = 134
Check shell pair data                       ... done (  0.0 sec)
Shell pair information
Shell pair cut-off parameter TPreSel        ...   1.0e-10
Total number of shell pairs                 ...      9045
Shell pairs after pre-screening             ...      6704
Total number of primitive shell pairs       ...     36319
Primitive shell pairs kept                  ...     17072
          la=0 lb=0:   2332 shell pairs
          la=1 lb=0:   2251 shell pairs
          la=1 lb=1:    570 shell pairs
          la=2 lb=0:    962 shell pairs
          la=2 lb=1:    486 shell pairs
          la=2 lb=2:    103 shell pairs

Calculating one electron integrals          ... done (  0.0 sec)
Calculating RI/J V-Matrix + Cholesky decomp.... done (  0.1 sec)
Calculating Nuclear repulsion               ... done (  0.0 sec) ENN=   1226.465513463461 Eh

Diagonalization of the overlap matrix:
Smallest eigenvalue                        ... 2.232e-04
Time for diagonalization                   ...    0.010 sec
Threshold for overlap eigenvalues          ... 1.000e-07
Number of eigenvalues below threshold      ... 0
Time for construction of square roots      ...    0.008 sec
Total time needed                          ...    0.019 sec

-------------------
DFT GRID GENERATION
-------------------

General Integration Accuracy     IntAcc      ... 4.159
Radial Grid Type                 RadialGrid  ... OptM3 with GC (2021)
Angular Grid (max. ang.)         AngularGrid ... 3 (Lebedev-194)
Angular grid pruning method      GridPruning ... 4 (adaptive)
Weight generation scheme         WeightScheme... mBecke (2022)
Basis function cutoff            BFCut       ... 1.0000e-10
Integration weight cutoff        WCut        ... 1.0000e-14
Partially contracted basis set               ... off
Rotationally invariant grid construction     ... off
Angular grids for H and He will be reduced by one unit

Total number of grid points                  ...    76582
Total number of batches                      ...     1211
Average number of points per batch           ...       63
Average number of grid points per atom       ...     2470
Initializing property integral containers    ... done (  0.0 sec)

SHARK setup successfully completed in   1.0 seconds

Maximum memory used throughout the entire STARTUP-calculation: 40.5 MB
-------------------------------------------------------------------------------
                                 ORCA GUESS
                   Start orbitals & Density for SCF / CASSCF
-------------------------------------------------------------------------------

------------
SCF SETTINGS
------------
Hamiltonian:
 Density Functional     Method          .... DFT(GTOs)
 Exchange Functional    Exchange        .... PBE
   PBE kappa parameter   XKappa         ....  0.804000
   PBE mue parameter    XMuePBE         ....  0.219520
 Correlation Functional Correlation     .... PBE
   PBE beta parameter  CBetaPBE         ....  0.066725
 LDA part of GGA corr.  LDAOpt          .... PW91-LDA
 Gradients option       PostSCFGGA      .... off
   NL short-range parameter             ....  6.400000
 RI-approximation to the Coulomb term is turned on
   Number of AuxJ basis functions       .... 1025


General Settings:
 Integral files         IntName         .... sp
 Hartree-Fock type      HFTyp           .... RHF
 Total Charge           Charge          ....    0
 Multiplicity           Mult            ....    1
 Number of Electrons    NEL             ....  128
 Basis Dimension        Dim             ....  278
 Nuclear Repulsion      ENuc            ....   1226.4655134635 Eh

Convergence Acceleration:
 AO-DIIS                CNVDIIS         .... on
   Start iteration      DIISMaxIt       ....    12
   Startup error        DIISStart       ....  0.200000
   # of expansion vecs  DIISMaxEq       ....     5
   Bias factor          DIISBfac        ....   1.050
   Max. coefficient     DIISMaxC        ....  10.000
 MO-DIIS                CNVKDIIS        .... off
 Trust-Rad. Augm. Hess. CNVTRAH         .... auto
   Auto Start mean grad. ratio tolernc. ....  1.125000
   Auto Start start iteration           ....    50
   Auto Start num. interpolation iter.  ....    10
   Max. Number of Micro iterations      ....    24
   Max. Number of Macro iterations      .... Maxiter - #DIIS iter
   Number of Davidson start vectors     ....     2
   Converg. threshold    (grad. norm)   ....   1.000e-04
   Grad. Scal. Fac. for Micro threshold ....   0.100
   Minimum threshold for Micro iter.    ....   1.000e-02
   NR start threshold (gradient norm)   ....   1.000e-04
   Initial trust radius                 ....   0.400
   Minimum AH scaling param. (alpha)    ....   1.000
   Maximum AH scaling param. (alpha)    .... 1000.000
   Quad. conv. algorithm                .... NR
   White noise on init. David. guess    .... on
   Maximum white noise                  ....   0.010
   Pseudo random numbers                .... off
   Inactive MOs                         .... canonical
   Orbital update algorithm             .... Taylor
   Preconditioner                       .... Diag
   Full preconditioner red. dimension   ....   250
 SOSCF                  CNVSOSCF        .... on
   Start iteration      SOSCFMaxIt      ....   150
   Startup grad/error   SOSCFStart      ....  0.003300
   Hessian update       SOSCFHessUp     .... L-BFGS
 Level Shifting         CNVShift        .... on
   Level shift para.    LevelShift      ....    0.2500
   Turn off err/grad.   ShiftErr        ....    0.0010
 Zerner damping         CNVZerner       .... off
 Static damping         CNVDamp         .... on
   Fraction old density DampFac         ....    0.7000
   Max. Damping (<1)    DampMax         ....    0.9800
   Min. Damping (>=0)   DampMin         ....    0.0000
   Turn off err/grad.   DampErr         ....    0.1000

SCF Procedure:
 Maximum # iterations   MaxIter         ....   125
 SCF integral mode      SCFMode         .... Direct
   Integral package                     .... SHARK and LIBINT hybrid scheme
 Reset frequency        DirectResetFreq ....    20
 Integral Threshold     Thresh          ....  1.000e-09 Eh
 Primitive CutOff       TCut            ....  1.000e-10 Eh

Convergence Tolerance:
 Convergence Check Mode ConvCheckMode   .... Total+1el-Energy
 Convergence forced     ConvForced      .... 0
 Energy Change          TolE            ....  1.000e-05 Eh
 1-El. energy change                    ....  1.000e-02 Eh
 Orbital Gradient       TolG            ....  1.000e-04
 Orbital Rotation angle TolX            ....  1.000e-04
 DIIS Error             TolErr          ....  5.000e-04

------------------------------
INITIAL GUESS: MODEL POTENTIAL
------------------------------
Loading Hartree-Fock densities                     ... done
Calculating cut-offs                               ... done
Initializing the effective Hamiltonian             ... done
Setting up the integral package (SHARK)            ... done
Starting the Coulomb interaction                   ... done (   0.4 sec)
Making the grid                                    ... done (   0.4 sec)
Mapping shells                                     ... done
Starting the XC term evaluation                    ... done (   0.3 sec)
  promolecular density results
     # of electrons  =    127.992704172
     EX              =   -106.924304280
     EC              =     -4.302693992
     EX+EC           =   -111.226998271
Transforming the Hamiltonian                       ... done (   0.0 sec)
Diagonalizing the Hamiltonian                      ... done (   0.0 sec)
Back transforming the eigenvectors                 ... done (   0.0 sec)
Now organizing SCF variables                       ... done
                      ------------------
                      INITIAL GUESS DONE (   1.2 sec)
                      ------------------
             **** ENERGY FILE WAS UPDATED (sp.en.tmp) ****
Finished Guess after   1.2 sec
Maximum memory used throughout the entire GUESS-calculation: 32.0 MB

-------------------------------------------------------------------------------------------
                                      ORCA LEAN-SCF
                              memory conserving SCF solver
-------------------------------------------------------------------------------------------

----------------------------------------D-I-I-S--------------------------------------------
Iteration    Energy (Eh)           Delta-E    RMSDP     MaxDP     DIISErr   Damp  Time(sec)
-------------------------------------------------------------------------------------------
               ***  Starting incremental Fock matrix formation  ***
    1    -827.7384915812831423     0.00e+00  3.62e-03  2.52e-01  2.53e-01  0.700   1.5
    2    -827.9200190431497504    -1.82e-01  2.32e-03  1.54e-01  7.69e-02  0.700   1.4
                               ***Turning on AO-DIIS***
    3    -827.9799268088545432    -5.99e-02  8.84e-04  2.60e-02  2.67e-02  0.700   1.3
    4    -828.0179535500092243    -3.80e-02  1.51e-03  4.21e-02  1.29e-02  0.000   1.3
    5    -828.1042119377489144    -8.63e-02  4.08e-04  1.86e-02  6.94e-03  0.000   1.3
    6    -828.1050607929751095    -8.49e-04  1.44e-04  3.19e-03  3.56e-03  0.000   1.3
                              *** Initializing SOSCF ***
---------------------------------------S-O-S-C-F--------------------------------------
Iteration    Energy (Eh)           Delta-E    RMSDP     MaxDP     MaxGrad    Time(sec)
--------------------------------------------------------------------------------------
    7    -828.1051440818728224    -8.33e-05  5.44e-05  1.65e-03  1.17e-03     1.2
               *** Restarting incremental Fock matrix formation ***
    8    -828.1051524643803532    -8.38e-06  3.52e-05  1.01e-03  1.25e-04     1.5
    9    -828.1051513575525860     1.11e-06  1.68e-05  7.67e-04  2.32e-04     1.2
                 **** Energy Check signals convergence ****

               *****************************************************
               *                     SUCCESS                       *
               *           SCF CONVERGED AFTER   9 CYCLES          *
               *****************************************************

             **** ENERGY FILE WAS UPDATED (sp.en.tmp) ****

----------------
TOTAL SCF ENERGY
----------------

Total Energy       :       -828.10515135755259 Eh          -22533.88677 eV

Components:
Nuclear Repulsion  :       1226.46551346346132 Eh           33373.82331 eV
Electronic Energy  :      -2054.57066482101436 Eh          -55907.71008 eV
One Electron Energy:      -3563.69867865318884 Eh          -96973.17107 eV
Two Electron Energy:       1509.12801383217470 Eh           41065.46098 eV

Virial components:
Potential Energy   :      -1649.60040500665627 Eh          -44887.90908 eV
Kinetic Energy     :        821.49525364910380 Eh           22354.02231 eV
Virial Ratio       :          2.00804617881733

DFT components:
N(Alpha)           :       64.000052207857 electrons
N(Beta)            :       64.000052207857 electrons
N(Total)           :      128.000104415714 electrons
E(X)               :     -108.578270427429 Eh       
E(C)               :       -4.322021244934 Eh       
E(XC)              :     -112.900291672363 Eh       

---------------
SCF CONVERGENCE
---------------

  Last Energy change         ...   -1.1068e-06  Tolerance :   1.0000e-05
  Last MAX-Density change    ...    7.6722e-04  Tolerance :   1.0000e-03
  Last RMS-Density change    ...    1.6834e-05  Tolerance :   1.0000e-04
  Last DIIS Error            ...    1.1704e-03  Tolerance :   5.0000e-04
  Last Orbital Gradient      ...    2.3198e-04  Tolerance :   1.0000e-04
  Last Orbital Rotation      ...    6.0072e-04  Tolerance :   1.0000e-04


----------------
ORBITAL ENERGIES
----------------

  NO   OCC          E(Eh)            E(eV) 
   0   2.0000     -24.267214      -660.3445 
   1   2.0000     -18.809477      -511.8319 
   2   2.0000     -18.739739      -509.9342 
   3   2.0000     -10.018040      -272.6047 
   4   2.0000      -9.973474      -271.3920 
   5   2.0000      -9.922497      -270.0049 
   6   2.0000      -9.914553      -269.7887 
   7   2.0000      -9.909406      -269.6487 
   8   2.0000      -9.906598      -269.5722 
   9   2.0000      -9.900941      -269.4183 
  10   2.0000      -9.898530      -269.3527 
  11   2.0000      -9.896221      -269.2899 
  12   2.0000      -9.893340      -269.2115 
  13   2.0000      -9.892886      -269.1991 
  14   2.0000      -9.892273      -269.1824 
  15   2.0000      -9.892007      -269.1752 
  16   2.0000      -9.891658      -269.1657 
  17   2.0000      -9.888924      -269.0913 
  18   2.0000      -1.091671       -29.7059 
  19   2.0000      -1.017967       -27.7003 
  20   2.0000      -0.915472       -24.9113 
  21   2.0000      -0.797660       -21.7054 
  22   2.0000      -0.777275       -21.1507 
  23   2.0000      -0.739788       -20.1307 
  24   2.0000      -0.696370       -18.9492 
  25   2.0000      -0.676474       -18.4078 
  26   2.0000      -0.670253       -18.2385 
  27   2.0000      -0.648107       -17.6359 
  28   2.0000      -0.608462       -16.5571 
  29   2.0000      -0.584310       -15.8999 
  30   2.0000      -0.562313       -15.3013 
  31   2.0000      -0.544059       -14.8046 
  32   2.0000      -0.536495       -14.5988 
  33   2.0000      -0.524959       -14.2849 
  34   2.0000      -0.486965       -13.2510 
  35   2.0000      -0.468241       -12.7415 
  36   2.0000      -0.457284       -12.4433 
  37   2.0000      -0.436929       -11.8894 
  38   2.0000      -0.427585       -11.6352 
  39   2.0000      -0.418286       -11.3821 
  40   2.0000      -0.414606       -11.2820 
  41   2.0000      -0.407163       -11.0795 
  42   2.0000      -0.398984       -10.8569 
  43   2.0000      -0.393414       -10.7053 
  44   2.0000      -0.390624       -10.6294 
  45   2.0000      -0.380850       -10.3635 
  46   2.0000      -0.374107       -10.1800 
  47   2.0000      -0.368476       -10.0267 
  48   2.0000      -0.356262        -9.6944 
  49   2.0000      -0.345657        -9.4058 
  50   2.0000      -0.339939        -9.2502 
  51   2.0000      -0.335320        -9.1245 
  52   2.0000      -0.327889        -8.9223 
  53   2.0000      -0.317617        -8.6428 
  54   2.0000      -0.316939        -8.6244 
  55   2.0000      -0.309902        -8.4329 
  56   2.0000      -0.300111        -8.1664 
  57   2.0000      -0.291318        -7.9272 
  58   2.0000      -0.277583        -7.5534 
  59   2.0000      -0.248303        -6.7567 
  60   2.0000      -0.230061        -6.2603 
  61   2.0000      -0.227209        -6.1827 
  62   2.0000      -0.222956        -6.0669 
  63   2.0000      -0.206396        -5.6163 
  64   0.0000      -0.060414        -1.6439 
  65   0.0000      -0.036953        -1.0055 
  66   0.0000      -0.034649        -0.9429 
  67   0.0000      -0.030808        -0.8383 
  68   0.0000      -0.012917        -0.3515 
  69   0.0000       0.018361         0.4996 
  70   0.0000       0.044588         1.2133 
  71   0.0000       0.049444         1.3454 
  72   0.0000       0.060097         1.6353 
  73   0.0000       0.066119         1.7992 
  74   0.0000       0.081443         2.2162 
*Only the first 10 virtual orbitals were printed.

                    ********************************
                    * MULLIKEN POPULATION ANALYSIS *
                    ********************************

-----------------------
MULLIKEN ATOMIC CHARGES
-----------------------
   0 C :   -0.205856
   1 C :   -0.172255
   2 H :    0.102266
   3 C :    0.160118
   4 C :   -0.109893
   5 C :   -0.118684
   6 C :    0.031389
   7 C :    0.264655
   8 C :   -0.228203
   9 F :   -0.172878
  10 C :    0.112449
  11 C :   -0.096985
  12 C :   -0.052396
  13 C :   -0.045562
  14 C :   -0.049345
  15 C :   -0.111140
  16 C :    0.103191
  17 O :   -0.175783
  18 O :   -0.275888
  19 H :    0.106308
  20 H :    0.114801
  21 H :    0.107268
  22 H :    0.037095
  23 H :    0.049244
  24 H :    0.048001
  25 H :    0.049328
  26 H :    0.053465
  27 H :    0.054134
  28 H :    0.052863
  29 H :    0.049886
  30 H :    0.318408
Sum of atomic charges:   -0.0000000

--------------------------------
MULLIKEN REDUCED ORBITAL CHARGES
--------------------------------
  0 C s       :     3.056797  s :     3.056797
      pz      :     1.013944  p :     3.120224
      px      :     1.060581
      py      :     1.045698
      dz2     :     0.007404  d :     0.028835
      dxz     :     0.005151
      dyz     :     0.004539
      dx2y2   :     0.009525
      dxy     :     0.002215

  1 C s       :     3.057526  s :     3.057526
      pz      :     0.998495  p :     3.074367
      px      :     1.006936
      py      :     1.068936
      dz2     :     0.009617  d :     0.040362
      dxz     :     0.009962
      dyz     :     0.005217
      dx2y2   :     0.009767
      dxy     :     0.005799

  2 H s       :     0.897734  s :     0.897734

  3 C s       :     2.969353  s :     2.969353
      pz      :     0.958509  p :     2.828923
      px      :     0.955739
      py      :     0.914675
      dz2     :     0.004115  d :     0.041607
      dxz     :     0.006307
      dyz     :     0.006534
      dx2y2   :     0.012488
      dxy     :     0.012163

  4 C s       :     3.264059  s :     3.264059
      pz      :     1.000093  p :     2.811289
      px      :     0.936571
      py      :     0.874625
      dz2     :     0.002851  d :     0.034545
      dxz     :     0.006423
      dyz     :     0.003993
      dx2y2   :     0.010047
      dxy     :     0.011232

  5 C s       :     3.277882  s :     3.277882
      pz      :     0.987381  p :     2.805838
      px      :     0.901776
      py      :     0.916681
      dz2     :     0.003618  d :     0.034963
      dxz     :     0.006113
      dyz     :     0.003931
      dx2y2   :     0.008574
      dxy     :     0.012728

  6 C s       :     3.039203  s :     3.039203
      pz      :     1.016058  p :     2.889709
      px      :     0.933775
      py      :     0.939875
      dz2     :     0.003863  d :     0.039699
      dxz     :     0.007410
      dyz     :     0.005684
      dx2y2   :     0.010243
      dxy     :     0.012498

  7 C s       :     3.008793  s :     3.008793
      pz      :     0.972837  p :     2.649684
      px      :     0.900287
      py      :     0.776560
      dz2     :     0.007368  d :     0.076868
      dxz     :     0.010668
      dyz     :     0.014068
      dx2y2   :     0.022378
      dxy     :     0.022386

  8 C s       :     3.388552  s :     3.388552
      pz      :     1.025607  p :     2.807147
      px      :     0.937861
      py      :     0.843679
      dz2     :     0.003697  d :     0.032504
      dxz     :     0.005736
      dyz     :     0.003917
      dx2y2   :     0.009412
      dxy     :     0.009742

  9 F s       :     3.897721  s :     3.897721
      pz      :     1.834309  p :     5.267730
      px      :     1.848715
      py      :     1.584706
      dz2     :     0.000997  d :     0.007427
      dxz     :     0.000562
      dyz     :     0.001944
      dx2y2   :     0.001941
      dxy     :     0.001982

 10 C s       :     2.995014  s :     2.995014
      pz      :     0.967376  p :     2.851424
      px      :     0.949007
      py      :     0.935041
      dz2     :     0.005019  d :     0.041113
      dxz     :     0.007508
      dyz     :     0.005810
      dx2y2   :     0.012162
      dxy     :     0.010614

 11 C s       :     3.263947  s :     3.263947
      pz      :     0.958208  p :     2.798493
      px      :     0.920963
      py      :     0.919321
      dz2     :     0.002904  d :     0.034546
      dxz     :     0.006950
      dyz     :     0.004890
      dx2y2   :     0.008576
      dxy     :     0.011225

 12 C s       :     3.187345  s :     3.187345
      pz      :     0.974403  p :     2.829980
      px      :     0.960550
      py      :     0.895027
      dz2     :     0.003637  d :     0.035072
      dxz     :     0.006869
      dyz     :     0.004208
      dx2y2   :     0.008961
      dxy     :     0.011396

 13 C s       :     3.181441  s :     3.181441
      pz      :     0.989600  p :     2.829139
      px      :     0.849787
      py      :     0.989752
      dz2     :     0.005136  d :     0.034982
      dxz     :     0.003535
      dyz     :     0.005727
      dx2y2   :     0.012815
      dxy     :     0.007770

 14 C s       :     3.187320  s :     3.187320
      pz      :     0.966921  p :     2.826940
      px      :     0.954149
      py      :     0.905870
      dz2     :     0.002914  d :     0.035086
      dxz     :     0.007003
      dyz     :     0.004894
      dx2y2   :     0.008950
      dxy     :     0.011324

 15 C s       :     3.258737  s :     3.258737
      pz      :     0.982041  p :     2.817920
      px      :     0.928797
      py      :     0.907081
      dz2     :     0.003627  d :     0.034483
      dxz     :     0.006844
      dyz     :     0.004117
      dx2y2   :     0.008481
      dxy     :     0.011415

 16 C s       :     3.032724  s :     3.032724
      pz      :     1.018262  p :     2.732827
      px      :     0.855926
      py      :     0.858639
      dz2     :     0.035742  d :     0.131259
      dxz     :     0.032491
      dyz     :     0.023523
      dx2y2   :     0.019830
      dxy     :     0.019673

 17 O s       :     3.728519  s :     3.728519
      pz      :     1.383273  p :     4.429626
      px      :     1.590921
      py      :     1.455432
      dz2     :     0.006080  d :     0.017638
      dxz     :     0.004953
      dyz     :     0.004781
      dx2y2   :     0.000996
      dxy     :     0.000827

 18 O s       :     3.721626  s :     3.721626
      pz      :     1.501826  p :     4.538511
      px      :     1.405303
      py      :     1.631382
      dz2     :     0.004600  d :     0.015752
      dxz     :     0.004429
      dyz     :     0.001984
      dx2y2   :     0.002214
      dxy     :     0.002524

 19 H s       :     0.893692  s :     0.893692

 20 H s       :     0.885199  s :     0.885199

 21 H s       :     0.892732  s :     0.892732

 22 H s       :     0.962905  s :     0.962905

 23 H s       :     0.950756  s :     0.950756

 24 H s       :     0.951999  s :     0.951999

 25 H s       :     0.950672  s :     0.950672

 26 H s       :     0.946535  s :     0.946535

 27 H s       :     0.945866  s :     0.945866

 28 H s       :     0.947137  s :     0.947137

 29 H s       :     0.950114  s :     0.950114

 30 H s       :     0.681592  s :     0.681592


------------------------
MULLIKEN OVERLAP CHARGES
------------------------
B(  0-C ,  1-C ) :   0.5626 B(  0-C ,  3-C ) :  -0.0862 B(  0-C , 19-H ) :   0.7103 
B(  0-C , 20-H ) :   0.7078 B(  0-C , 21-H ) :   0.7701 B(  1-C ,  2-H ) :   0.5177 
B(  1-C ,  3-C ) :   0.4971 B(  1-C ,  4-C ) :  -0.1691 B(  1-C ,  8-C ) :  -0.2858 
B(  1-C , 17-O ) :  -0.3050 B(  1-C , 18-O ) :  -0.3240 B(  3-C ,  4-C ) :   0.2575 
B(  3-C ,  5-C ) :   0.3764 B(  3-C ,  6-C ) :  -0.4397 B(  3-C ,  7-C ) :   0.4902 
B(  3-C , 17-O ) :   0.0513 B(  3-C , 22-H ) :  -0.1795 B(  3-C , 24-H ) :  -0.1902 
B(  4-C ,  5-C ) :   0.3029 B(  4-C ,  6-C ) :   0.3760 B(  4-C ,  7-C ) :  -0.4059 
B(  4-C ,  8-C ) :   0.2429 B(  4-C , 22-H ) :   0.8792 B(  4-C , 23-H ) :  -0.1767 
B(  5-C ,  6-C ) :   0.3032 B(  5-C ,  7-C ) :   0.3208 B(  5-C ,  8-C ) :  -0.3340 
B(  5-C , 10-C ) :  -0.2101 B(  5-C , 22-H ) :  -0.1753 B(  5-C , 23-H ) :   0.8807 
B(  6-C ,  8-C ) :   0.1697 B(  6-C ,  9-F ) :  -0.1841 B(  6-C , 10-C ) :   0.5855 
B(  6-C , 11-C ) :  -0.2528 B(  6-C , 15-C ) :  -0.1998 B(  6-C , 23-H ) :  -0.1594 
B(  6-C , 24-H ) :   0.0532 B(  6-C , 25-H ) :  -0.0517 B(  7-C ,  8-C ) :   0.2791 
B(  7-C ,  9-F ) :   0.7991 B(  7-C , 10-C ) :  -0.2154 B(  7-C , 24-H ) :  -0.1373 
B(  8-C ,  9-F ) :  -0.1502 B(  8-C , 24-H ) :   0.8260 B( 10-C , 11-C ) :   0.3274 
B( 10-C , 12-C ) :   0.3956 B( 10-C , 13-C ) :  -0.4438 B( 10-C , 14-C ) :   0.3838 
B( 10-C , 15-C ) :   0.3008 B( 10-C , 23-H ) :  -0.0576 B( 10-C , 25-H ) :  -0.1542 
B( 10-C , 29-H ) :  -0.1546 B( 11-C , 12-C ) :   0.2953 B( 11-C , 13-C ) :   0.3653 
B( 11-C , 14-C ) :  -0.4038 B( 11-C , 15-C ) :   0.2312 B( 11-C , 25-H ) :   0.8676 
B( 11-C , 26-H ) :  -0.1780 B( 12-C , 13-C ) :   0.2487 B( 12-C , 14-C ) :   0.3716 
B( 12-C , 15-C ) :  -0.4068 B( 12-C , 25-H ) :  -0.1665 B( 12-C , 26-H ) :   0.8878 
B( 12-C , 27-H ) :  -0.1761 B( 13-C , 14-C ) :   0.2580 B( 13-C , 15-C ) :   0.3636 
B( 13-C , 26-H ) :  -0.1835 B( 13-C , 27-H ) :   0.8828 B( 13-C , 28-H ) :  -0.1822 
B( 14-C , 15-C ) :   0.3000 B( 14-C , 27-H ) :  -0.1772 B( 14-C , 28-H ) :   0.8882 
B( 14-C , 29-H ) :  -0.1690 B( 15-C , 28-H ) :  -0.1803 B( 15-C , 29-H ) :   0.8662 
B( 16-C , 17-O ) :   1.4835 B( 16-C , 18-O ) :   0.8738 B( 17-O , 18-O ) :  -0.1843 
B( 18-O , 30-H ) :   0.4818 


                     *******************************
                     * LOEWDIN POPULATION ANALYSIS *
                     *******************************

----------------------
LOEWDIN ATOMIC CHARGES
----------------------
   0 C :   -0.322001
   1 C :   -0.156220
   2 H :    0.147363
   3 C :   -0.014399
   4 C :   -0.129414
   5 C :   -0.103030
   6 C :   -0.054797
   7 C :    0.083134
   8 C :   -0.135924
   9 F :   -0.056005
  10 C :   -0.027688
  11 C :   -0.108650
  12 C :   -0.120485
  13 C :   -0.122805
  14 C :   -0.121071
  15 C :   -0.113551
  16 C :    0.027428
  17 O :   -0.165098
  18 O :   -0.192618
  19 H :    0.125133
  20 H :    0.124987
  21 H :    0.123360
  22 H :    0.123857
  23 H :    0.129097
  24 H :    0.134096
  25 H :    0.125308
  26 H :    0.124593
  27 H :    0.123784
  28 H :    0.124336
  29 H :    0.125818
  30 H :    0.301461

-------------------------------
LOEWDIN REDUCED ORBITAL CHARGES
-------------------------------
  0 C s       :     2.946323  s :     2.946323
      pz      :     1.073841  p :     3.304711
      px      :     1.120221
      py      :     1.110650
      dz2     :     0.018232  d :     0.070967
      dxz     :     0.012617
      dyz     :     0.012115
      dx2y2   :     0.022527
      dxy     :     0.005476

  1 C s       :     2.878979  s :     2.878979
      pz      :     1.045196  p :     3.175637
      px      :     1.044485
      py      :     1.085956
      dz2     :     0.025360  d :     0.101604
      dxz     :     0.023991
      dyz     :     0.014597
      dx2y2   :     0.025251
      dxy     :     0.012405

  2 H s       :     0.852637  s :     0.852637

  3 C s       :     2.847050  s :     2.847050
      pz      :     0.959537  p :     3.056279
      px      :     1.022617
      py      :     1.074125
      dz2     :     0.010051  d :     0.111070
      dxz     :     0.013427
      dyz     :     0.015947
      dx2y2   :     0.036715
      dxy     :     0.034929

  4 C s       :     2.887672  s :     2.887672
      pz      :     1.018921  p :     3.149675
      px      :     1.076557
      py      :     1.054197
      dz2     :     0.006676  d :     0.092067
      dxz     :     0.014650
      dyz     :     0.008145
      dx2y2   :     0.030107
      dxy     :     0.032488

  5 C s       :     2.889124  s :     2.889124
      pz      :     0.994978  p :     3.121550
      px      :     1.076039
      py      :     1.050532
      dz2     :     0.008111  d :     0.092357
      dxz     :     0.014191
      dyz     :     0.008698
      dx2y2   :     0.026346
      dxy     :     0.035010

  6 C s       :     2.844317  s :     2.844317
      pz      :     1.003883  p :     3.102272
      px      :     1.034749
      py      :     1.063640
      dz2     :     0.009518  d :     0.108208
      dxz     :     0.015582
      dyz     :     0.013759
      dx2y2   :     0.032211
      dxy     :     0.037137

  7 C s       :     2.852737  s :     2.852737
      pz      :     0.974774  p :     2.882843
      px      :     1.052884
      py      :     0.855185
      dz2     :     0.015882  d :     0.181286
      dxz     :     0.022983
      dyz     :     0.029236
      dx2y2   :     0.056729
      dxy     :     0.056456

  8 C s       :     2.892333  s :     2.892333
      pz      :     1.030058  p :     3.155646
      px      :     1.061120
      py      :     1.064468
      dz2     :     0.008388  d :     0.087945
      dxz     :     0.013129
      dyz     :     0.008610
      dx2y2   :     0.028983
      dxy     :     0.028836

  9 F s       :     3.736556  s :     3.736556
      pz      :     1.838880  p :     5.307735
      px      :     1.854648
      py      :     1.614207
      dz2     :     0.001539  d :     0.011715
      dxz     :     0.000841
      dyz     :     0.003059
      dx2y2   :     0.003086
      dxy     :     0.003189

 10 C s       :     2.840106  s :     2.840106
      pz      :     0.990400  p :     3.075958
      px      :     1.020986
      py      :     1.064573
      dz2     :     0.011450  d :     0.111624
      dxz     :     0.017417
      dyz     :     0.015711
      dx2y2   :     0.035537
      dxy     :     0.031508

 11 C s       :     2.892265  s :     2.892265
      pz      :     1.000148  p :     3.125346
      px      :     1.078659
      py      :     1.046538
      dz2     :     0.006968  d :     0.091040
      dxz     :     0.016228
      dyz     :     0.010723
      dx2y2   :     0.025841
      dxy     :     0.031281

 12 C s       :     2.890726  s :     2.890726
      pz      :     1.000491  p :     3.137251
      px      :     1.084953
      py      :     1.051808
      dz2     :     0.008247  d :     0.092508
      dxz     :     0.016868
      dyz     :     0.009701
      dx2y2   :     0.026667
      dxy     :     0.031025

 13 C s       :     2.891679  s :     2.891679
      pz      :     1.004973  p :     3.139073
      px      :     1.063027
      py      :     1.071072
      dz2     :     0.010851  d :     0.092054
      dxz     :     0.008548
      dyz     :     0.015824
      dx2y2   :     0.033222
      dxy     :     0.023609

 14 C s       :     2.890477  s :     2.890477
      pz      :     0.999687  p :     3.138048
      px      :     1.083816
      py      :     1.054544
      dz2     :     0.006991  d :     0.092547
      dxz     :     0.016522
      dyz     :     0.010856
      dx2y2   :     0.026702
      dxy     :     0.031476

 15 C s       :     2.891358  s :     2.891358
      pz      :     1.007668  p :     3.131190
      px      :     1.076741
      py      :     1.046781
      dz2     :     0.008173  d :     0.091003
      dxz     :     0.016753
      dyz     :     0.009353
      dx2y2   :     0.025631
      dxy     :     0.031094

 16 C s       :     2.849269  s :     2.849269
      pz      :     1.060980  p :     2.825915
      px      :     0.904748
      py      :     0.860187
      dz2     :     0.085494  d :     0.297388
      dxz     :     0.076970
      dyz     :     0.049057
      dx2y2   :     0.040576
      dxy     :     0.045292

 17 O s       :     3.551568  s :     3.551568
      pz      :     1.499589  p :     4.582341
      px      :     1.617985
      py      :     1.464767
      dz2     :     0.012512  d :     0.031189
      dxz     :     0.008899
      dyz     :     0.007062
      dx2y2   :     0.001354
      dxy     :     0.001362

 18 O s       :     3.500449  s :     3.500449
      pz      :     1.562949  p :     4.662319
      px      :     1.458304
      py      :     1.641066
      dz2     :     0.007980  d :     0.029850
      dxz     :     0.008254
      dyz     :     0.003281
      dx2y2   :     0.004114
      dxy     :     0.006221

 19 H s       :     0.874867  s :     0.874867

 20 H s       :     0.875013  s :     0.875013

 21 H s       :     0.876640  s :     0.876640

 22 H s       :     0.876143  s :     0.876143

 23 H s       :     0.870903  s :     0.870903

 24 H s       :     0.865904  s :     0.865904

 25 H s       :     0.874692  s :     0.874692

 26 H s       :     0.875407  s :     0.875407

 27 H s       :     0.876216  s :     0.876216

 28 H s       :     0.875664  s :     0.875664

 29 H s       :     0.874182  s :     0.874182

 30 H s       :     0.698539  s :     0.698539


---------------------------------
LOEWDIN BOND ORDERS (THRESH 0.050000)
---------------------------------
B(  0-C ,  1-C ) :   1.0773 B(  0-C ,  3-C ) :   0.0585 B(  0-C , 16-C ) :   0.0556 
B(  0-C , 19-H ) :   0.9316 B(  0-C , 20-H ) :   0.9314 B(  0-C , 21-H ) :   0.9360 
B(  1-C ,  2-H ) :   0.8444 B(  1-C ,  3-C ) :   1.0103 B(  1-C ,  4-C ) :   0.0745 
B(  1-C ,  8-C ) :   0.0680 B(  1-C , 16-C ) :   1.0010 B(  1-C , 17-O ) :   0.0946 
B(  1-C , 18-O ) :   0.0656 B(  3-C ,  4-C ) :   1.4324 B(  3-C ,  5-C ) :   0.0896 
B(  3-C ,  6-C ) :   0.0986 B(  3-C ,  7-C ) :   0.0957 B(  3-C ,  8-C ) :   1.4162 
B(  3-C , 16-C ) :   0.0627 B(  4-C ,  5-C ) :   1.5074 B(  4-C ,  6-C ) :   0.0871 
B(  4-C ,  7-C ) :   0.1007 B(  4-C ,  8-C ) :   0.0840 B(  4-C , 22-H ) :   0.8806 
B(  5-C ,  6-C ) :   1.4079 B(  5-C ,  7-C ) :   0.0930 B(  5-C ,  8-C ) :   0.1132 
B(  5-C , 10-C ) :   0.0745 B(  5-C , 23-H ) :   0.8775 B(  6-C ,  7-C ) :   1.3572 
B(  6-C ,  8-C ) :   0.0888 B(  6-C ,  9-F ) :   0.0877 B(  6-C , 10-C ) :   1.0459 
B(  6-C , 11-C ) :   0.0754 B(  6-C , 15-C ) :   0.0769 B(  7-C ,  8-C ) :   1.4672 
B(  7-C ,  9-F ) :   1.2437 B(  7-C , 10-C ) :   0.0745 B(  8-C ,  9-F ) :   0.0985 
B(  8-C , 24-H ) :   0.8710 B( 10-C , 11-C ) :   1.4147 B( 10-C , 12-C ) :   0.0875 
B( 10-C , 13-C ) :   0.1098 B( 10-C , 14-C ) :   0.0869 B( 10-C , 15-C ) :   1.4124 
B( 11-C , 12-C ) :   1.5128 B( 11-C , 13-C ) :   0.0866 B( 11-C , 14-C ) :   0.1173 
B( 11-C , 15-C ) :   0.0808 B( 11-C , 25-H ) :   0.8829 B( 12-C , 13-C ) :   1.4965 
B( 12-C , 14-C ) :   0.0862 B( 12-C , 15-C ) :   0.1168 B( 12-C , 26-H ) :   0.8875 
B( 13-C , 14-C ) :   1.4969 B( 13-C , 15-C ) :   0.0866 B( 13-C , 27-H ) :   0.8895 
B( 14-C , 15-C ) :   1.5128 B( 14-C , 28-H ) :   0.8876 B( 15-C , 29-H ) :   0.8815 
B( 16-C , 17-O ) :   2.2305 B( 16-C , 18-O ) :   1.4648 B( 17-O , 18-O ) :   0.2204 
B( 18-O , 30-H ) :   0.8454 

------------------------------------------
LOEWDIN REDUCED ORBITAL POPULATIONS PER MO
-------------------------------------------
THRESHOLD FOR PRINTING IS 0.1%%
                      0         1         2         3         4         5   
                 -24.26721 -18.80948 -18.73974 -10.01804  -9.97347  -9.92250
                   2.00000   2.00000   2.00000   2.00000   2.00000   2.00000
                  --------  --------  --------  --------  --------  --------
 1 C  s               0.0       0.0       0.0       0.0       0.0      99.6
 3 C  px              0.0       0.0       0.0       0.0       0.0       0.1
 7 C  s               0.0       0.0       0.0       0.0      99.5       0.0
 8 C  px              0.0       0.0       0.0       0.0       0.2       0.0
 9 F  s             100.0       0.0       0.0       0.0       0.0       0.0
16 C  s               0.0       0.0       0.0      99.3       0.0       0.0
17 O  s               0.0       0.0      99.9       0.0       0.0       0.0
17 O  pz              0.0       0.0       0.0       0.2       0.0       0.0
18 O  s               0.0      99.9       0.0       0.0       0.0       0.0
18 O  px              0.0       0.0       0.0       0.1       0.0       0.0

                      6         7         8         9        10        11   
                  -9.91455  -9.90941  -9.90660  -9.90094  -9.89853  -9.89622
                   2.00000   2.00000   2.00000   2.00000   2.00000   2.00000
                  --------  --------  --------  --------  --------  --------
 1 C  px              0.1       0.0       0.0       0.0       0.0       0.0
 3 C  s              99.5       0.0       0.0       0.0       0.0       0.0
 3 C  py              0.0       0.0       0.0       0.0       0.1       0.1
 4 C  s               0.0       0.0       0.0       0.1       0.0      99.5
 4 C  px              0.1       0.0       0.0       0.1       0.0       0.0
 5 C  s               0.0       0.0       0.0      99.4       0.0       0.1
 5 C  px              0.0       0.0       0.0       0.0       0.0       0.1
 5 C  py              0.0       0.1       0.0       0.0       0.0       0.0
 6 C  s               0.0      99.5       0.0       0.0       0.0       0.0
 6 C  px              0.0       0.0       0.1       0.0       0.0       0.0
 6 C  py              0.0       0.0       0.0       0.1       0.0       0.0
 7 C  px              0.0       0.1       0.0       0.0       0.1       0.0
 8 C  s               0.0       0.0       0.0       0.0      99.5       0.0
 8 C  py              0.1       0.0       0.0       0.0       0.0       0.0
10 C  s               0.0       0.0      99.5       0.0       0.0       0.0
10 C  px              0.0       0.1       0.0       0.0       0.0       0.0

                     12        13        14        15        16        17   
                  -9.89334  -9.89289  -9.89227  -9.89201  -9.89166  -9.88892
                   2.00000   2.00000   2.00000   2.00000   2.00000   2.00000
                  --------  --------  --------  --------  --------  --------
 0 C  s               0.0       0.0       0.0       0.0       0.0      99.7
11 C  s               0.0       0.0       1.6      10.1      87.9       0.0
12 C  s               0.0       0.2      23.1      64.9      11.5       0.0
12 C  px              0.0       0.0       0.0       0.1       0.1       0.0
13 C  s               0.2       3.0      71.9      24.3       0.3       0.0
14 C  s               8.5      87.9       2.8       0.4       0.0       0.0
14 C  px              0.1       0.0       0.0       0.0       0.0       0.0
15 C  s              90.9       8.6       0.1       0.0       0.0       0.0
15 C  px              0.0       0.1       0.0       0.0       0.0       0.0

                     18        19        20        21        22        23   
                  -1.09167  -1.01797  -0.91547  -0.79766  -0.77727  -0.73979
                   2.00000   2.00000   2.00000   2.00000   2.00000   2.00000
                  --------  --------  --------  --------  --------  --------
 0 C  s               0.0       0.1       0.0       0.6       0.8       8.3
 0 C  pz              0.0       0.2       0.0       0.2       0.2       1.4
 0 C  px              0.0       0.0       0.0       0.1       0.1       0.2
 0 C  py              0.0       0.0       0.0       0.1       0.1       0.5
 1 C  s               0.0       1.0       0.3       2.9       3.0      18.2
 1 C  pz              0.0       1.1       0.6       0.0       0.0       0.1
 1 C  px              0.0       0.5       0.0       0.9       0.4       0.0
 1 C  py              0.0       0.2       0.0       0.0       0.0       0.3
 2 H  s               0.0       0.1       0.1       0.5       0.5       3.4
 3 C  s               0.0       0.1       0.1      10.3       5.8       4.3
 3 C  px              0.0       0.1       0.1       0.8       0.0       4.9
 4 C  s               0.0       0.0       0.0       8.3       2.8       0.0
 4 C  pz              0.0       0.0       0.0       0.2       0.1       0.0
 4 C  px              0.0       0.0       0.0       0.2       0.1       2.8
 4 C  py              0.0       0.0       0.0       1.6       0.6       0.1
 5 C  s               0.0       0.0       0.0       9.1       0.5       4.5
 5 C  pz              0.0       0.0       0.0       0.1       0.0       0.1
 5 C  px              0.0       0.0       0.0       0.3       1.0       0.2
 5 C  py              0.0       0.0       0.0       1.6       0.0       1.0
 6 C  s               0.4       0.0       0.0      12.5       0.2       8.1
 6 C  px              0.1       0.0       0.0       0.4       3.2       0.4
 6 C  py              0.8       0.0       0.0       0.0       0.0       0.0
 6 C  dz2             0.0       0.0       0.0       0.1       0.0       0.1
 7 C  s               7.9       0.0       0.0       7.0       0.6       2.7
 7 C  pz              1.2       0.0       0.0       0.5       0.0       0.2
 7 C  px              1.5       0.0       0.0       0.3       1.2       0.5
 7 C  py              7.7       0.0       0.0       3.5       0.1       1.8
 7 C  dz2             0.2       0.0       0.0       0.1       0.0       0.0
 7 C  dyz             0.4       0.0       0.0       0.0       0.0       0.0
 7 C  dx2y2           0.4       0.0       0.0       0.0       0.0       0.0
 7 C  dxy             0.4       0.0       0.0       0.1       0.0       0.1
 8 C  s               0.5       0.0       0.0       8.1       3.3       0.0
 8 C  pz              0.0       0.0       0.0       0.2       0.1       0.1
 8 C  px              1.0       0.0       0.0       0.3       0.0       2.2
 8 C  py              0.1       0.0       0.0       1.6       0.7       0.2
 9 F  s              74.2       0.0       0.0       1.1       0.0       0.5
 9 F  pz              0.3       0.0       0.0       0.0       0.0       0.0
 9 F  px              0.3       0.0       0.0       0.0       0.0       0.0
 9 F  py              1.6       0.0       0.0       0.3       0.0       0.3
10 C  s               0.0       0.0       0.0       6.6       9.6       0.5
10 C  px              0.1       0.0       0.0       0.3       2.0       2.7
11 C  s               0.0       0.0       0.0       2.6       9.1       0.3
11 C  pz              0.0       0.0       0.0       0.1       0.4       0.0
11 C  px              0.0       0.0       0.0       0.0       0.4       0.9
11 C  py              0.0       0.0       0.0       0.6       1.2       0.0
12 C  s               0.0       0.0       0.0       1.3       8.4       2.1
12 C  pz              0.0       0.0       0.0       0.0       0.2       0.1
12 C  px              0.0       0.0       0.0       0.2       0.5       0.0
12 C  py              0.0       0.0       0.0       0.2       1.2       0.3
13 C  s               0.0       0.0       0.0       1.1       8.3       2.9
13 C  px              0.0       0.0       0.0       0.3       1.9       0.3
14 C  s               0.0       0.0       0.0       1.4       8.6       2.0
14 C  pz              0.0       0.0       0.0       0.1       0.4       0.1
14 C  px              0.0       0.0       0.0       0.2       0.6       0.0
14 C  py              0.0       0.0       0.0       0.2       1.0       0.3
15 C  s               0.0       0.0       0.0       2.8       9.3       0.2
15 C  pz              0.0       0.0       0.0       0.2       0.3       0.0
15 C  px              0.0       0.0       0.0       0.0       0.4       1.0
15 C  py              0.0       0.0       0.0       0.6       1.3       0.0
16 C  s               0.0      19.3       5.0       0.1       0.1       1.5
16 C  pz              0.0       1.0      12.4       0.8       0.8       5.9
16 C  px              0.0       3.7       9.2       0.2       0.2       0.9
16 C  py              0.0       1.3       3.5       0.0       0.0       0.2
16 C  dz2             0.0       0.0       1.5       0.0       0.0       0.0
16 C  dxz             0.0       0.2       0.3       0.0       0.0       0.1
16 C  dyz             0.0       0.1       0.1       0.0       0.0       0.0
16 C  dx2y2           0.0       0.2       0.0       0.0       0.0       0.0
16 C  dxy             0.0       0.7       0.1       0.0       0.0       0.0
17 O  s               0.0      10.5      42.3       0.2       0.2       0.8
17 O  pz              0.0       1.9       4.0       0.0       0.0       0.1
17 O  px              0.0       0.6       0.4       0.0       0.0       0.1
17 O  py              0.0       0.2       0.2       0.0       0.0       0.0
17 O  dz2             0.0       0.0       0.1       0.0       0.0       0.0
18 O  s               0.0      44.8      16.0       0.0       0.0       0.3
18 O  pz              0.0       1.7       0.3       0.0       0.0       0.7
18 O  px              0.0       1.4       0.2       0.0       0.0       0.6
18 O  py              0.0       0.5       0.1       0.0       0.0       0.2
19 H  s               0.0       0.0       0.0       0.1       0.1       1.5
20 H  s               0.0       0.1       0.0       0.1       0.1       1.4
21 H  s               0.0       0.0       0.0       0.1       0.2       1.6
22 H  s               0.0       0.0       0.0       1.1       0.4       0.0
23 H  s               0.0       0.0       0.0       1.2       0.0       0.7
24 H  s               0.1       0.0       0.0       1.0       0.5       0.1
25 H  s               0.1       0.0       0.0       0.4       1.1       0.0
26 H  s               0.0       0.0       0.0       0.2       1.1       0.3
27 H  s               0.0       0.0       0.0       0.1       1.0       0.4
28 H  s               0.0       0.0       0.0       0.2       1.1       0.3
29 H  s               0.0       0.0       0.0       0.5       1.2       0.0
30 H  s               0.0       8.0       2.7       0.0       0.0       0.5

                     24        25        26        27        28        29   
                  -0.69637  -0.67647  -0.67025  -0.64811  -0.60846  -0.58431
                   2.00000   2.00000   2.00000   2.00000   2.00000   2.00000
                  --------  --------  --------  --------  --------  --------
 0 C  s               5.2       0.0       0.0       4.4      20.2       4.3
 0 C  pz              0.4       0.0       0.0       0.0       1.3       0.3
 0 C  px              0.0       0.0       0.0       0.1       0.0       0.5
 0 C  py              0.1       0.0       0.0       0.0       0.1       0.6
 1 C  s               4.7       0.0       0.0       0.4       0.4       3.0
 1 C  pz              0.2       0.0       0.0       0.3      10.7       0.5
 1 C  px              1.7       0.0       0.0       3.9       0.3       3.8
 1 C  py              0.2       0.3       0.1       0.3       0.3       2.1
 1 C  dxz             0.0       0.0       0.0       0.0       0.2       0.0
 1 C  dyz             0.0       0.0       0.0       0.0       0.2       0.0
 2 H  s               1.0       0.1       0.0       0.1       0.2       1.5
 3 C  s               2.3       0.1       0.0       6.9       0.0       2.7
 3 C  pz              0.1       0.8       0.2       0.0       0.3       0.1
 3 C  px              3.6       0.1       0.0       0.3       0.1       3.7
 3 C  py              0.2       7.7       1.6       0.0       0.0       0.9
 3 C  dxy             0.0       0.2       0.0       0.0       0.0       0.0
 4 C  s               2.0      13.7       2.7       1.9       0.0       0.6
 4 C  px              0.2       1.3       0.2       3.0       0.0       4.4
 4 C  py              0.4       0.2       0.0       0.5       0.0       0.5
 5 C  s               0.2      11.4       1.7       2.5       0.0       2.4
 5 C  pz              0.1       0.1       0.0       0.1       0.0       0.2
 5 C  px              2.4       1.9       0.6       1.0       0.0       1.0
 5 C  py              0.3       0.7       0.1       0.9       0.0       1.4
 5 C  dx2y2           0.0       0.1       0.0       0.1       0.0       0.0
 6 C  s               5.2       0.1       0.0       4.7       0.0       3.6
 6 C  pz              0.0       0.5       0.2       0.0       0.0       0.2
 6 C  px              3.4       0.0       0.0       3.6       0.0       0.8
 6 C  py              0.0       6.6       0.2       0.0       0.0       1.7
 6 C  dxy             0.0       0.2       0.1       0.0       0.0       0.0
 7 C  s               0.3       8.8       1.4       2.7       0.0       0.0
 7 C  px              4.9       2.3       0.9       1.2       0.0       6.7
 7 C  py              0.2       0.2       0.0       1.3       0.0       1.0
 7 C  dx2y2           0.0       0.2       0.0       0.0       0.0       0.0
 8 C  s               5.5      10.7       2.3       1.4       0.0       2.4
 8 C  pz              0.0       0.1       0.0       0.1       0.0       0.1
 8 C  px              0.1       1.3       0.2       2.2       0.0       0.8
 8 C  py              0.3       0.4       0.1       0.8       0.0       1.2
 9 F  s               0.0       2.3       0.2       0.4       0.0       0.0
 9 F  pz              0.0       0.3       0.0       0.1       0.0       0.0
 9 F  px              0.2       0.5       0.2       0.0       0.0       0.7
 9 F  py              0.0       1.5       0.2       0.7       0.0       0.2
10 C  s               8.7       0.4       0.0       5.1       0.0       0.2
10 C  pz              0.0       0.2       1.7       0.0       0.0       0.0
10 C  px              1.4       0.0       0.0       3.0       0.0       4.1
10 C  py              0.0       2.0       6.2       0.0       0.0       0.1
10 C  dxy             0.0       0.0       0.2       0.0       0.0       0.0
11 C  s               0.5       3.0      11.7       3.3       0.0       1.1
11 C  px              3.3       0.0       1.8       1.1       0.0       0.8
11 C  py              0.7       0.0       0.4       0.7       0.0       0.0
11 C  dx2y2           0.0       0.0       0.1       0.0       0.0       0.0
12 C  s               3.7       1.2      12.8       1.4       0.0       0.2
12 C  pz              0.3       0.1       0.1       0.3       0.0       0.2
12 C  px              1.1       0.6       1.5       3.5       0.0       1.8
12 C  py              0.7       0.1       0.2       0.6       0.0       0.4
13 C  s               8.9       0.3       0.0       9.1       0.0       2.9
13 C  pz              0.0       0.2       1.6       0.0       0.0       0.1
13 C  px              0.2       0.0       0.0       0.1       0.0       0.5
13 C  py              0.0       0.9       6.3       0.0       0.0       0.1
13 C  dxy             0.0       0.0       0.2       0.0       0.0       0.0
14 C  s               3.5       2.7      11.5       1.3       0.0       0.1
14 C  pz              0.1       0.0       0.0       0.1       0.0       0.0
14 C  px              1.2       0.1       1.9       3.5       0.0       2.4
14 C  py              0.9       0.0       0.5       0.9       0.0       0.5
14 C  dx2y2           0.0       0.0       0.1       0.1       0.0       0.0
15 C  s               0.7       1.6      12.7       3.4       0.0       1.6
15 C  pz              0.3       0.0       0.1       0.2       0.0       0.0
15 C  px              3.4       0.4       1.4       1.0       0.0       0.0
15 C  py              0.4       0.1       0.2       0.5       0.0       0.0
16 C  s               0.9       0.0       0.0       0.6       6.9       0.7
16 C  pz              2.2       0.0       0.0       0.7       6.3       0.0
16 C  px              0.1       0.0       0.0       0.0       0.6       1.8
16 C  py              0.1       0.0       0.0       0.0       0.2       0.9
17 O  s               0.2       0.0       0.0       0.0       2.0       0.0
17 O  pz              0.1       0.0       0.0       0.0       0.8       0.0
[...]
15 C  dz2             0.0       0.0       0.3       0.3       0.0       0.0
15 C  dxz             0.0       0.0       0.7       2.1       0.0       0.0
15 C  dx2y2           0.1       0.0       0.8       3.4       0.0       0.0
15 C  dxy             0.0       0.0       1.9       4.7       0.2       0.0
16 C  s               0.5       3.7       0.1       0.0       0.0       0.1
16 C  pz              0.0       0.3       0.0       0.0       0.0       1.2
16 C  px              0.2       1.7       0.0       0.0       0.0       1.8
16 C  py              0.1       0.6       0.0       0.0       0.0       0.7
16 C  dz2             0.0       0.0       0.0       0.0       0.1      11.2
16 C  dxz             0.9       5.5       0.3       0.0       0.0       3.9
16 C  dyz             0.3       2.1       0.0       0.0       0.0       1.3
16 C  dx2y2           0.1       0.4       0.0       0.0       0.0       1.2
16 C  dxy             0.1       0.9       0.1       0.0       0.0       4.3
17 O  s               0.1       0.6       0.0       0.0       0.0       0.9
17 O  pz              0.0       0.1       0.0       0.0       0.0       0.1
17 O  px              0.0       0.3       0.0       0.0       0.0       0.9
17 O  py              0.0       0.1       0.0       0.0       0.0       0.3
17 O  dz2             0.2       1.2       0.0       0.0       0.0       1.1
17 O  dxz             1.2       8.3       0.2       0.0       0.2      20.3
17 O  dyz             0.5       3.4       0.1       0.0       0.2       6.9
17 O  dx2y2           0.1       1.1       0.1       0.0       0.0       0.8
17 O  dxy             0.8       5.1       0.0       0.0       0.0       3.4
18 O  s               0.3       2.1       0.0       0.0       0.0       1.5
18 O  pz              0.0       0.1       0.0       0.0       0.0       0.2
18 O  px              0.2       1.2       0.0       0.0       0.0       2.0
18 O  py              0.1       0.5       0.0       0.0       0.0       0.7
18 O  dz2             0.4       2.7       0.0       0.0       0.1      11.3
18 O  dxz             2.9      19.4       0.2       0.0       0.0       0.2
18 O  dyz             1.0       6.9       0.2       0.0       0.0       0.1
18 O  dx2y2           0.4       3.0       0.1       0.0       0.1       4.2
18 O  dxy             1.6      12.2       0.0       0.0       0.1      14.5
22 H  s               0.0       0.0       0.4       0.1       0.0       0.0
23 H  s               0.0       0.0       0.3       0.2       0.0       0.0
24 H  s               0.0       0.0       0.3       0.1       0.0       0.0
25 H  s               0.0       0.0       0.1       0.4       0.0       0.0
26 H  s               0.0       0.0       0.2       0.4       0.0       0.0
27 H  s               0.0       0.0       0.2       0.3       0.0       0.0
28 H  s               0.0       0.0       0.2       0.4       0.0       0.0
29 H  s               0.0       0.0       0.1       0.4       0.0       0.0
30 H  s               0.1       0.6       0.0       0.0       0.0       0.2

                    276       277   
                   3.53946   3.74243
                   0.00000   0.00000
                  --------  --------
 1 C  dz2             0.4       0.0
 3 C  dx2y2           0.0       0.8
 3 C  dxy             0.1       0.1
 4 C  dx2y2           0.0       0.2
 4 C  dxy             0.0       0.3
 5 C  dx2y2           0.0       0.2
 5 C  dxy             0.0       0.6
 6 C  py              0.0       0.1
 6 C  dyz             0.0       0.2
 6 C  dx2y2           0.0       2.5
 7 C  s               0.0       1.3
 7 C  pz              0.0       0.3
 7 C  px              0.0       0.5
 7 C  py              0.0       2.1
 7 C  dz2             0.0       0.2
 7 C  dxz             0.0       0.5
 7 C  dyz             0.0       2.2
 7 C  dx2y2           0.0       5.2
 7 C  dxy             0.0       4.9
 8 C  s               0.0       0.1
 8 C  dxz             0.0       0.2
 8 C  dx2y2           0.0       0.3
 8 C  dxy             0.0       1.6
 9 F  s               0.0       5.3
 9 F  pz              0.0       0.3
 9 F  px              0.0       0.5
 9 F  py              0.0       2.2
 9 F  dz2             0.0       6.0
 9 F  dxz             0.0       3.6
 9 F  dyz             0.0      15.3
 9 F  dx2y2           0.0      17.5
 9 F  dxy             0.0      22.8
10 C  dx2y2           0.0       0.3
10 C  dxy             0.0       0.1
16 C  s               7.1       0.0
16 C  pz              4.5       0.0
16 C  px              0.4       0.0
16 C  py              0.2       0.0
16 C  dz2             0.9       0.0
16 C  dxz             7.1       0.0
16 C  dyz             2.7       0.0
16 C  dx2y2           0.1       0.0
16 C  dxy             0.6       0.0
17 O  s               4.7       0.0
17 O  pz              3.5       0.0
17 O  px              0.1       0.0
17 O  dz2            47.0       0.0
17 O  dxz             8.1       0.0
17 O  dyz             3.8       0.0
18 O  s               0.1       0.0
18 O  pz              0.3       0.0
18 O  px              0.1       0.0
18 O  dz2             1.5       0.0
18 O  dxz             2.6       0.0
18 O  dyz             0.9       0.0
18 O  dx2y2           0.7       0.0
18 O  dxy             1.6       0.0
24 H  s               0.0       0.1


                      *****************************
                      * MAYER POPULATION ANALYSIS *
                      *****************************

  NA   - Mulliken gross atomic population
  ZA   - Total nuclear charge
  QA   - Mulliken gross atomic charge
  VA   - Mayer's total valence
  BVA  - Mayer's bonded valence
  FA   - Mayer's free valence

  ATOM       NA         ZA         QA         VA         BVA        FA
  0 C      6.2059     6.0000    -0.2059     3.9622     3.9622     0.0000
  1 C      6.1723     6.0000    -0.1723     3.8814     3.8814    -0.0000
  2 H      0.8977     1.0000     0.1023     0.9576     0.9576    -0.0000
  3 C      5.8399     6.0000     0.1601     3.8785     3.8785    -0.0000
  4 C      6.1099     6.0000    -0.1099     3.8095     3.8095     0.0000
  5 C      6.1187     6.0000    -0.1187     3.8325     3.8325    -0.0000
  6 C      5.9686     6.0000     0.0314     3.7502     3.7502    -0.0000
  7 C      5.7353     6.0000     0.2647     3.9415     3.9415    -0.0000
  8 C      6.2282     6.0000    -0.2282     3.7625     3.7625    -0.0000
  9 F      9.1729     9.0000    -0.1729     1.2236     1.2236    -0.0000
 10 C      5.8876     6.0000     0.1124     3.8540     3.8540     0.0000
 11 C      6.0970     6.0000    -0.0970     3.8395     3.8395     0.0000
 12 C      6.0524     6.0000    -0.0524     3.8337     3.8337     0.0000
 13 C      6.0456     6.0000    -0.0456     3.8157     3.8157     0.0000
 14 C      6.0493     6.0000    -0.0493     3.8297     3.8297     0.0000
 15 C      6.1111     6.0000    -0.1111     3.8376     3.8376     0.0000
 16 C      5.8968     6.0000     0.1032     4.4135     4.4135     0.0000
 17 O      8.1758     8.0000    -0.1758     2.3128     2.3128    -0.0000
 18 O      8.2759     8.0000    -0.2759     2.2170     2.2170    -0.0000
 19 H      0.8937     1.0000     0.1063     0.9560     0.9560    -0.0000
 20 H      0.8852     1.0000     0.1148     0.9651     0.9651     0.0000
 21 H      0.8927     1.0000     0.1073     0.9699     0.9699    -0.0000
 22 H      0.9629     1.0000     0.0371     0.9623     0.9623     0.0000
 23 H      0.9508     1.0000     0.0492     0.9623     0.9623    -0.0000
 24 H      0.9520     1.0000     0.0480     0.9764     0.9764     0.0000
 25 H      0.9507     1.0000     0.0493     0.9675     0.9675    -0.0000
 26 H      0.9465     1.0000     0.0535     0.9495     0.9495    -0.0000
 27 H      0.9459     1.0000     0.0541     0.9492     0.9492     0.0000
 28 H      0.9471     1.0000     0.0529     0.9495     0.9495     0.0000
 29 H      0.9501     1.0000     0.0499     0.9594     0.9594     0.0000
 30 H      0.6816     1.0000     0.3184     0.9043     0.9043    -0.0000

  Mayer bond orders larger than 0.100000
B(  0-C ,  1-C ) :   1.1131 B(  0-C , 19-H ) :   0.9426 B(  0-C , 20-H ) :   0.9364 
B(  0-C , 21-H ) :   0.9499 B(  1-C ,  2-H ) :   0.8528 B(  1-C ,  3-C ) :   1.0050 
B(  1-C , 16-C ) :   0.9220 B(  3-C ,  4-C ) :   1.3836 B(  3-C ,  8-C ) :   1.3021 
B(  4-C ,  5-C ) :   1.3450 B(  4-C , 22-H ) :   0.9640 B(  5-C ,  6-C ) :   1.3709 
B(  5-C , 23-H ) :   0.9571 B(  6-C ,  7-C ) :   1.3326 B(  6-C , 10-C ) :   0.9730 
B(  7-C ,  8-C ) :   1.3501 B(  7-C ,  9-F ) :   1.1034 B(  8-C , 24-H ) :   0.9574 
B( 10-C , 11-C ) :   1.3783 B( 10-C , 15-C ) :   1.3798 B( 11-C , 12-C ) :   1.3755 
B( 11-C , 25-H ) :   0.9605 B( 12-C , 13-C ) :   1.3741 B( 12-C , 26-H ) :   0.9631 
B( 13-C , 14-C ) :   1.3764 B( 13-C , 27-H ) :   0.9655 B( 14-C , 15-C ) :   1.3714 
B( 14-C , 28-H ) :   0.9637 B( 15-C , 29-H ) :   0.9584 B( 16-C , 17-O ) :   2.1346 
B( 16-C , 18-O ) :   1.3026 B( 18-O , 30-H ) :   0.8167 

-------
TIMINGS
-------

Total SCF time: 0 days 0 hours 0 min 12 sec 

Total time                  ....      12.267 sec
Sum of individual times     ....      12.226 sec  ( 99.7%)

SCF preparation             ....       0.081 sec  (  0.7%)
Fock matrix formation       ....      11.664 sec  ( 95.1%)
  Startup                   ....       0.011 sec  (  0.1% of F)
  Split-RI-J                ....       6.884 sec  ( 59.0% of F)
  XC integration            ....       4.642 sec  ( 39.8% of F)
    Basis function eval.    ....       1.853 sec  ( 39.9% of XC)
    Density eval.           ....       1.190 sec  ( 25.6% of XC)
    XC-Functional eval.     ....       0.255 sec  (  5.5% of XC)
    XC-Potential eval.      ....       1.070 sec  ( 23.0% of XC)
Diagonalization             ....       0.000 sec  (  0.0%)
Density matrix formation    ....       0.048 sec  (  0.4%)
Total Energy calculation    ....       0.004 sec  (  0.0%)
Population analysis         ....       0.146 sec  (  1.2%)
Orbital Transformation      ....       0.039 sec  (  0.3%)
Orbital Orthonormalization  ....       0.000 sec  (  0.0%)
DIIS solution               ....       0.195 sec  (  1.6%)
  MO trafo                  ....       0.000 sec  (  0.0 % of DIIS)
  Orb grad                  ....       0.000 sec  (  0.0 % of DIIS)
  Energy W gradient         ....       0.000 sec  (  0.0 % of DIIS)
  DIIS error                ....       0.022 sec  ( 11.2 % of DIIS)
  DIIS work                 ....       0.154 sec  ( 78.7 % of DIIS)
  Form Q                    ....       0.000 sec  (  0.0 % of DIIS)
  Form QpQm                 ....       0.000 sec  (  0.0 % of DIIS)
  Exp/Cayley                ....       0.000 sec  (  0.0 % of DIIS)
  Orb update                ....       0.000 sec  (  0.0 % of DIIS)
  Wake-sleep                ....       0.002 sec  (  0.9 % of DIIS)
SOSCF solution              ....       0.048 sec  (  0.4%)
  MO trafo                  ....       0.031 sec  ( 64.3 % of SOSCF)
  Orb grad                  ....       0.000 sec  (  0.6 % of SOSCF)
  Rot update                ....       0.002 sec  (  4.4 % of SOSCF)
  Step                      ....       0.015 sec  ( 30.6 % of SOSCF)
Finished LeanSCF after  12.3 sec

Maximum memory used throughout the entire LEANSCF-calculation: 26.9 MB


-------------------------------------------------------------------------------
                          DFT DISPERSION CORRECTION                            
                                                                               
                                DFTD4 V3.4.0                                   
-------------------------------------------------------------------------------
The PBE functional is recognized
Active option DFTDOPT                   ...         5   

-------------------------   ----------------
Dispersion correction           -0.040023371
-------------------------   ----------------

------------------   -----------------
gCP correction             0.129840562
------------------   -----------------

-------------------------   --------------------
FINAL SINGLE POINT ENERGY      -828.015334166703
-------------------------   --------------------


------------------------------------------------------------------------------
                              ORCA PROPERTY CALCULATIONS
------------------------------------------------------------------------------

GBWName                                 ... sp.gbw
Number of atoms                         ...     31
Number of basis functions               ...    278
Max core memory                         ...   1024 MB

Electric properties:
Dipole moment                           ... YES
Quadrupole moment                       ...  NO
Static polarizability (Dipole/Dipole)   ...  NO
Static polarizability (Dipole/Quad.)    ...  NO
Static polarizability (Quad./Quad.)     ...  NO
Static polarizability (Velocity)        ...  NO

Atomic electric properties:
Dipole moment                           ...  NO
Quadrupole moment                       ...  NO
Static polarizability                   ...  NO

Choice of electric origin               ... Center of mass
Position of electric origin             ...     0.000024    -0.000009    -0.000014

General magnetic properties:
Magnetizability                         ...  NO

EPR properties:
g-Tensor (aka g-matrix)                 ...  NO
Zero-Field splitting spin-orbit         ...  NO
Zero-field splitting spin-spin          ...  NO
Hyperfine couplings                     ...  NO (   0 nuclei)
Quadrupole couplings                    ...  NO (   0 nuclei)
Contact density                         ...  NO (   0 nuclei)

NMR properties:
Chemical shifts                         ...  NO (   0 nuclei)
Spin-rotation constants                 ...  NO (   0 nuclei)
Spin-spin couplings                     ...  NO (   0 nuclei,    0 pairs)

Choice of magnetic origin               ... GIAO
Position of magnetic origin             ...     0.000000     0.000000     0.000000

Properties with geometric perturbations:
SCF Hessian                             ...  NO
IR spectrum                             ...  NO
VCD spectrum                            ...  NO
X-ray spectroscopy properties:
SCF XES/XAS/RIXS spectra                ...  NO


-------------
DIPOLE MOMENT
-------------

Method             : SCF
Type of density    : Electron Density
Multiplicity       :   1
Irrep              :   0
Energy             :  -828.1051513575525860 Eh
Relativity type    : 
Basis              : AO
                                X                 Y                 Z
Electronic contribution:      0.724372440       4.433959176       6.475160632
Nuclear contribution   :     -1.375470143      -4.575141784      -7.072273811
                        -----------------------------------------
Total Dipole Moment    :     -0.651097703      -0.141182608      -0.597113179
                        -----------------------------------------
Magnitude (a.u.)       :      0.894653507
Magnitude (Debye)      :      2.274028494



--------------------
Rotational spectrum 
--------------------
 
Rotational constants in cm-1:             0.041293             0.006231             0.006036 
Rotational constants in MHz :          1237.944151           186.809926           180.955049 

Dipole components along the rotational axes: 
x,y,z [a.u.] :    -0.651581    -0.214205    -0.574424 
x,y,z [Debye]:    -1.656188    -0.544466    -1.460069 

 

Dipole moment calculation done in   0.8 sec 

Maximum memory used throughout the entire PROP-calculation: 18.8 MB

--------------------------------
SUGGESTED CITATIONS FOR THIS RUN
--------------------------------

Below you find a list of papers that are relevant to this ORCA run
We neither can nor want to force you to cite these papers, but we appreciate if you do
You receive ORCA, which is the product of decades of hard work by many enthusiastic individuals, for free
The only thing we kindly ask in return is that you cite our papers,
We deeply appreciate it, if you show your appreciation for ORCA by not just citing the generic ORCA reference.

Please note that relegating all ORCA citations to the supporting information does *not* help us.
SI sections are not indexed - citations you put there will not count into any citation statistics
But we need these citations in order to attract the funding resources that allow us to do what we are doing

Therefore, if you are a happy ORCA user, please consider citing a few of the papers listed below in the main body of your paper

In addition to the list printed below, the program has created the file sp.bibtex that contains the list in bibtex format
You can import this file easily into all common literature databanks and citation aid programs


List of essential papers. We consider these as the minimum necessary citations

  1. Neese,F.
     Software update: the ORCA program system, version 5.0
     WIRES Comput. Molec. Sci., 2022 12(1)e1606
     doi.org/10.1002/wcms.1606

List of papers to cite with high priority. The work reported in these papers was absolutely
necessary for this run to complete.
Our perspective: the developers of density functionals and basis sets usually get cited in chemistry papers
Good! But without the algorithms to do something with them, the functionals or basis sets would not do anything.
Hence, in our opinion, the algorithm design and method developments papers are equally worthy of getting cited

  1. Neese,F.
     An improvement of the resolution of the identity approximation for the formation of the Coulomb matrix
     J. Comp. Chem., 2003 24(14)1740-1747
     doi.org/10.1002/jcc.10318
  2. Neese,F.
     The SHARK Integral Generation and Digestion System
     J. Comp. Chem., 2022  1-16
     doi.org/10.1002/jcc.26942
  3. Caldeweyher,E.; Bannwarth,C.; Grimme,S.
     Extension of the D3 dispersion coefficient model
     J. Chem. Phys., 2017 147 034112
     doi.org/10.1063/1.4993215
  4. Caldeweyher,E.; Ehlert,S.; Hansen,A.; Neugebauer,H.; Spicher,S.; Bannwarth,C.; Grimme,S.
     A generally applicable atomic-charge dependent London dispersion correction
     J. Chem. Phys., 2019 150 154122
     doi.org/10.1063/1.5090222
  5. Caldeweyher,E.; Mewes,J.; Ehlert,S.; Grimme,S.
     Extension and evaluation of the D4 London-dispersion model for periodic systems
     Phys. Chem. Chem. Phys., 2020 22(16)8499-8512
     doi.org/10.1039/D0CP00502A
  6. Wittmann,L.; Gordiy,I.; Friede,M.; Helmich-Paris,B.; Grimme,S.; Hansen,A.; Bursch,M.
     Extension of the D3 and D4 London Dispersion Corrections to the full Actinides Series
     Phys. Chem. Chem. Phys., 2024 26(32)21379-21394
     doi.org/https://doi.org/10.1039/D4CP01514B 

List of suggested additional citations. These are papers that are important in the 'surrounding' of 
of this run, or papers that preceded the highly important papers. If you like your results we are grateful for a citation.

  1. Neese,F.
     The ORCA program system
     WIRES Comput. Molec. Sci., 2012 2(1)73-78
     doi.org/10.1002/wcms.81
  2. Neese,F.
     Software update: the ORCA program system, version 4.0
     WIRES Comput. Molec. Sci., 2018 8(1)1-6
     doi.org/10.1002/wcms.1327
  3. Neese,F.; Wennmohs,F.; Becker,U.; Riplinger,C.
     The ORCA quantum chemistry program package
     J. Chem. Phys., 2020 152 Art. No. L224108
     doi.org/10.1063/5.0004608

List of optional additional citations

  1. Neese,F.
     Approximate second-order SCF convergence for spin unrestricted wavefunctions
     Chem. Phys. Lett., 2000 325(1-3)93-98
     doi.org/10.1016/s0009-2614(00)00662-x

Timings for individual modules:

Sum of individual times          ...       15.636 sec (=   0.261 min)
Startup calculation              ...        1.086 sec (=   0.018 min)   6.9 %
SCF iterations                   ...       13.671 sec (=   0.228 min)  87.4 %
Property calculations            ...        0.879 sec (=   0.015 min)   5.6 %
                             ****ORCA TERMINATED NORMALLY****
TOTAL RUN TIME: 0 days 0 hours 0 minutes 16 seconds 306 msec
