      -----------------------------------------------------------      
     |                   =====================                   |     
     |                           x T B                           |     
     |                   =====================                   |     
     |                         S. Grimme                         |     
     |          Mulliken Center for Theoretical Chemistry        |     
     |                    University of Bonn                     |     
      -----------------------------------------------------------      

   * xtb version 6.7.1 (edcfbbe) compiled by 'albert@albert-system' on 2024-07-22

   xtb is free software: you can redistribute it and/or modify it under
   the terms of the GNU Lesser General Public License as published by
   the Free Software Foundation, either version 3 of the License, or
   (at your option) any later version.
   
   xtb is distributed in the hope that it will be useful,
   but WITHOUT ANY WARRANTY; without even the implied warranty of
   MERCHANTABILITY or FITNESS FOR A PARTICULAR PURPOSE.  See the
   GNU Lesser General Public License for more details.
   
   Cite this work as:
   * C. Bannwarth, E. Caldeweyher, S. Ehlert, A. Hansen, P. Pracht,
     J. Seibert, S. Spicher, S. Grimme, WIREs Comput. Mol. Sci., 2020, 11,
     e01493. DOI: 10.1002/wcms.1493
   
   for GFN2-xTB:
   * C. Bannwarth, S. Ehlert and S. Grimme., J. Chem. Theory Comput., 2019,
     15, 1652-1671. DOI: 10.1021/acs.jctc.8b01176
   for GFN1-xTB:
   * S. Grimme, C. Bannwarth, P. Shushkov, J. Chem. Theory Comput., 2017,
     13, 1989-2009. DOI: 10.1021/acs.jctc.7b00118
   for GFN0-xTB:
   * P. Pracht, E. Caldeweyher, S. Ehlert, S. Grimme, ChemRxiv, 2019, preprint.
     DOI: 10.26434/chemrxiv.8326202.v1
   for GFN-FF:
   * S. Spicher and S. Grimme, Angew. Chem. Int. Ed., 2020, 59, 15665-15673.
     DOI: 10.1002/anie.202004239
   
   for ALPB and GBSA implicit solvation:
   * S. Ehlert, M. Stahn, S. Spicher, S. Grimme, J. Chem. Theory Comput.,
     2021, 17, 4250-4261. DOI: 10.1021/acs.jctc.1c00471
   
   for ddCOSMO and CPCM-X implicit solvation:
   * M. Stahn, S. Ehlert, S. Grimme, J. Phys. Chem. A,
     2023, XX, XXXX-XXXX. DOI: 10.1021/acs.jpca.3c04382
   
   for DFT-D4:
   * E. Caldeweyher, C. Bannwarth and S. Grimme, J. Chem. Phys., 2017,
     147, 034112. DOI: 10.1063/1.4993215
   * E. Caldeweyher, S. Ehlert, A. Hansen, H. Neugebauer, S. Spicher,
     C. Bannwarth and S. Grimme, J. Chem. Phys., 2019, 150, 154122.
     DOI: 10.1063/1.5090222
   * E. Caldeweyher, J.-M. Mewes, S. Ehlert and S. Grimme, Phys. Chem. Chem. Phys.
     2020, 22, 8499-8512. DOI: 10.1039/D0CP00502A
   
   for sTDA-xTB:
   * S. Grimme and C. Bannwarth, J. Chem. Phys., 2016, 145, 054103.
     DOI: 10.1063/1.4959605
   
   in the mass-spec context:
   * V. Asgeirsson, C. Bauer and S. Grimme, Chem. Sci., 2017, 8, 4879.
     DOI: 10.1039/c7sc00601b
   * J. Koopman and S. Grimme, ACS Omega 2019, 4, 12, 15120-15133.
     DOI: 10.1021/acsomega.9b02011
   
   for metadynamics refer to:
   * S. Grimme, J. Chem. Theory Comput., 2019, 155, 2847-2862
     DOI: 10.1021/acs.jctc.9b00143
   
   for SPH calculations refer to:
   * S. Spicher and S. Grimme, J. Chem. Theory Comput., 2021, 17, 1701-1714
     DOI: 10.1021/acs.jctc.0c01306
   
   for ONIOM refer to:
   * C. Plett, A. Katbashev, S. Ehlert, S. Grimme, M. Bursch,
     Phys. Chem. Chem. Phys., 2023, 25, 17860-17868. DOI: 10.1039/D3CP02178E
   
   for DIPRO refer to:
   * J. Kohn, N. Gildemeister, S. Grimme, D. Fazzi, A. Hansen,
     J. Chem. Phys., 2023, just accepted.
   
   for PTB refer to:
   * S. Grimme, M. Mueller, A. Hansen, J. Chem. Phys., 2023, 158, 124111.
     DOI: 10.1063/5.0137838
   
   with help from (in alphabetical order)
   P. Atkinson, C. Bannwarth, F. Bohle, G. Brandenburg, E. Caldeweyher
   M. Checinski, S. Dohm, S. Ehlert, S. Ehrlich, I. Gerasimov, C. Hölzer
   A. Katbashev, J. Kohn, J. Koopman, C. Lavigne, S. Lehtola, F. März, M. Müller,
   F. Musil, H. Neugebauer, J. Pisarek, C. Plett, P. Pracht, F. Pultar,
   J. Seibert, P. Shushkov, S. Spicher, M. Stahn, M. Steiner, T. Strunk,
   J. Stückrath, T. Rose, and J. Unsleber
   
 * started run on 2025/04/11 at 16:16:00.924     
   ID    Z sym.   atoms
    1    6 C      1, 2, 4-13, 15, 16
    2    1 H      3, 19-31
    3    8 O      14, 17, 18

           -------------------------------------------------
          |                Calculation Setup                |
           -------------------------------------------------

          program call               : /srv/scratch/z5358697/.xtb/bin/xtb xtb_rrho.coord --gfn2 --bhess vtight --chrg 0 --enso --norestart -I rrho-xcontrol-inp --parallel 1 --alpb water
          hostname                   : k061
          coordinate file            : xtb_rrho.coord
          omp threads                :                     1


           -------------------------------------------------
          |                 G F N 2 - x T B                 |
           -------------------------------------------------

        Reference                      10.1021/acs.jctc.8b01176
      * Hamiltonian:
        H0-scaling (s, p, d)           1.850000    2.230000    2.230000
        zeta-weighting                 0.500000
      * Dispersion:
        s8                             2.700000
        a1                             0.520000
        a2                             5.000000
        s9                             5.000000
      * Repulsion:
        kExp                           1.500000    1.000000
        rExp                           1.000000
      * Coulomb:
        alpha                          2.000000
        third order                    shell-resolved
        anisotropic                    true
        a3                             3.000000
        a5                             4.000000
        cn-shift                       1.200000
        cn-exp                         4.000000
        max-rad                        5.000000

      * Solvation model:               ALPB
        Solvent                        water
        Parameter file                 internal GFN2-xTB/ALPB
        Dielectric constant                8.0200E+01
        Reference state                gsolv [1 M gas/solution]
        Free energy shift                  1.0808E-03 Eh       6.7819E-01 kcal/mol
        Temperature                        2.9815E+02 K
        Density                            1.0000E+00 kg/L
        Solvent mass                       1.8000E+01 g/mol
        Interaction kernel             P16
        Born radius scaling (c1)           1.4744E+00
        Born radii integrator          GBOBC
        Born offset                        0.0000E+00 a0       0.0000E+00 AA
        H-bond correction              true
        Ion screening                  false
        Surface tension                    1.0000E-05 Eh       1.5569E+01 dyn/cm
        Grid points                               974 per atom

          ...................................................
          :                      SETUP                      :
          :.................................................:
          :  # basis functions                  82          :
          :  # atomic orbitals                  82          :
          :  # shells                           48          :
          :  # electrons                        88          :
          :  max. iterations                   250          :
          :  Hamiltonian                  GFN2-xTB          :
          :  restarted?                      false          :
          :  GBSA solvation                   true          :
          :  PC potential                    false          :
          :  electronic temp.          300.0000000     K    :
          :  accuracy                    1.0000000          :
          :  -> integral cutoff          0.2500000E+02      :
          :  -> integral neglect         0.1000000E-07      :
          :  -> SCF convergence          0.1000000E-05 Eh   :
          :  -> wf. convergence          0.1000000E-03 e    :
          :  Broyden damping             0.4000000          :
          :  net charge                          0          :
          :  unpaired electrons                  0          :
          ...................................................

 iter      E             dE          RMSdq      gap      omega  full diag
   1    -49.9647109 -0.499647E+02  0.478E+00    3.05       0.0  T
   2    -50.0207587 -0.560478E-01  0.265E+00    2.97       1.0  T
   3    -50.0180341  0.272462E-02  0.107E+00    3.01       1.0  T
   4    -50.0256014 -0.756727E-02  0.241E-01    3.01       1.0  T
   5    -50.0264073 -0.805899E-03  0.888E-02    3.02       1.0  T
   6    -50.0264735 -0.662261E-04  0.459E-02    3.02       1.0  T
   7    -50.0264799 -0.642630E-05  0.196E-02    3.02       1.0  T
   8    -50.0264838 -0.388864E-05  0.709E-03    3.02       2.5  T
   9    -50.0264844 -0.532290E-06  0.293E-03    3.02       6.1  T
  10    -50.0264844 -0.290758E-07  0.147E-03    3.02      12.2  T
  11    -50.0264844 -0.198994E-07  0.684E-04    3.02      26.2  T
  12    -50.0264844 -0.329868E-08  0.278E-04    3.02      64.5  T

   *** convergence criteria satisfied after 12 iterations ***

         #    Occupation            Energy/Eh            Energy/eV
      -------------------------------------------------------------
         1        2.0000           -0.7437736             -20.2391
       ...           ...                  ...                  ...
        38        2.0000           -0.4365358             -11.8787
        39        2.0000           -0.4310435             -11.7293
        40        2.0000           -0.4226950             -11.5021
        41        2.0000           -0.4160759             -11.3220
        42        2.0000           -0.4138164             -11.2605
        43        2.0000           -0.3900439             -10.6136
        44        2.0000           -0.3712260             -10.1016 (HOMO)
        45                         -0.2600830              -7.0772 (LUMO)
        46                         -0.2498059              -6.7976
        47                         -0.2247372              -6.1154
        48                         -0.1906834              -5.1888
        49                         -0.1461812              -3.9778
       ...                                ...                  ...
        82                          0.6786659              18.4674
      -------------------------------------------------------------
                  HL-Gap            0.1111430 Eh            3.0244 eV
             Fermi-level           -0.3156545 Eh           -8.5894 eV

 SCC (total)                   0 d,  0 h,  0 min,  0.045 sec
 SCC setup                      ...        0 min,  0.002 sec (  5.246%)
 Dispersion                     ...        0 min,  0.000 sec (  0.726%)
 classical contributions        ...        0 min,  0.000 sec (  0.112%)
 integral evaluation            ...        0 min,  0.005 sec ( 10.226%)
 iterations                     ...        0 min,  0.022 sec ( 50.198%)
 molecular gradient             ...        0 min,  0.015 sec ( 32.968%)
 printout                       ...        0 min,  0.000 sec (  0.481%)

         :::::::::::::::::::::::::::::::::::::::::::::::::::::
         ::                     SUMMARY                     ::
         :::::::::::::::::::::::::::::::::::::::::::::::::::::
         :: total energy             -49.344927209470 Eh    ::
         :: total w/o Gsasa/hb       -49.337962098694 Eh    ::
         :: gradient norm              0.040208032631 Eh/a0 ::
         :: HOMO-LUMO gap              3.024353633626 eV    ::
         ::.................................................::
         :: SCC energy               -50.026432364604 Eh    ::
         :: -> isotropic ES            0.082816928816 Eh    ::
         :: -> anisotropic ES          0.003313360669 Eh    ::
         :: -> anisotropic XC          0.016678709278 Eh    ::
         :: -> dispersion             -0.030399720153 Eh    ::
         :: -> Gsolv                  -0.019087928726 Eh    ::
         ::    -> Gelec               -0.012122817950 Eh    ::
         ::    -> Gsasa                0.001636934742 Eh    ::
         ::    -> Ghb                 -0.009682805216 Eh    ::
         ::    -> Gshift               0.001080759698 Eh    ::
         :: repulsion energy           0.681505155134 Eh    ::
         :: add. restraining           0.000000000000 Eh    ::
         :: total charge              -0.000000000000 e     ::
         :::::::::::::::::::::::::::::::::::::::::::::::::::::

metadynamics with 1 initial structures loaded
           -------------------------------------------------
          |           Optimal kpush determination           |
           -------------------------------------------------
      ----------------------------------------------------------- 
     |                   =====================                   |
     |                        A N C O P T                        |
     |                   =====================                   |
     |               Approximate Normal Coordinate               |
     |                Rational Function Optimizer                |
      ----------------------------------------------------------- 
target rmsd / Å         0.100000
unbiased initial rmsd   0.078872
 
iter. min.        max.        rmsd       kpush
final kpush:  0.000000
           -------------------------------------------------
          |            Biased Numerical Hessian             |
           -------------------------------------------------
kpush                :   0.00000
alpha                :   1.00000
step length          :   0.00500
SCC accuracy         :   0.30000
Hessian scale factor :   1.00000
frozen atoms in %    :   0.00000    0
RMS gradient         :   0.00019
estimated CPU  time      0.09 min
estimated wall time      0.09 min

writing file <hessian>.

 projected vibrational frequencies (cm⁻¹)
eigval :       -0.00    -0.00    -0.00    -0.00    -0.00     0.00
eigval :       27.44    38.57    54.99    83.14   116.60   140.03
eigval :      161.75   173.75   187.14   214.60   233.60   257.94
eigval :      295.54   362.90   371.38   379.30   394.73   449.33
eigval :      476.15   501.30   513.30   540.48   579.12   581.32
eigval :      620.62   642.61   657.43   715.98   726.42   770.18
eigval :      793.41   833.71   847.81   852.93   860.65   886.91
eigval :      912.87   916.60   932.86   954.93  1028.84  1047.44
eigval :     1067.59  1095.16  1115.25  1118.73  1132.01  1149.78
eigval :     1168.83  1174.19  1176.43  1210.47  1236.66  1248.98
eigval :     1263.14  1274.94  1296.09  1327.22  1380.69  1389.85
eigval :     1398.79  1403.90  1424.49  1458.04  1458.44  1471.28
eigval :     1481.67  1485.56  1501.59  1566.13  1606.72  1609.65
eigval :     1697.09  2944.76  2957.21  2960.24  3036.19  3038.89
eigval :     3048.46  3067.29  3071.28  3083.71  3084.00  3087.61
eigval :     3100.29  3105.53  3338.85
           -------------------------------------------------
          |                Property Printout                |
           -------------------------------------------------

    * Orbital Energies and Occupations

         #    Occupation            Energy/Eh            Energy/eV
      -------------------------------------------------------------
         1        2.0000           -0.7465327             -20.3142
       ...           ...                  ...                  ...
        32        2.0000           -0.4702836             -12.7971
        33        2.0000           -0.4679308             -12.7330
        34        2.0000           -0.4617875             -12.5659
        35        2.0000           -0.4584373             -12.4747
        36        2.0000           -0.4481851             -12.1957
        37        2.0000           -0.4409559             -11.9990
        38        2.0000           -0.4363680             -11.8742
        39        2.0000           -0.4308364             -11.7237
        40        2.0000           -0.4218393             -11.4788
        41        2.0000           -0.4148127             -11.2876
        42        2.0000           -0.4123237             -11.2199
        43        2.0000           -0.3905019             -10.6261
        44        2.0000           -0.3710368             -10.0964 (HOMO)
        45                         -0.2581667              -7.0251 (LUMO)
        46                         -0.2429159              -6.6101
        47                         -0.2210196              -6.0142
        48                         -0.1882578              -5.1228
        49                         -0.1425411              -3.8787
        50                         -0.0562107              -1.5296
        51                          0.0265490               0.7224
        52                          0.0624471               1.6993
        53                          0.0793452               2.1591
        54                          0.1022054               2.7812
        55                          0.1110379               3.0215
       ...                                ...                  ...
        82                          0.7028709              19.1261
      -------------------------------------------------------------
                  HL-Gap            0.1128701 Eh            3.0714 eV
             Fermi-level           -0.3146017 Eh           -8.5607 eV

     #   Z          covCN         q      C6AA      α(0)
     1   6 C        3.755    -0.117    22.789     6.807
     2   6 C        3.857    -0.043    21.300     6.564
     3   1 H        0.924     0.062     2.178     2.308
     4   6 C        2.977     0.009    27.811     8.651
     5   6 C        2.920    -0.041    29.029     8.835
     6   6 C        2.918    -0.043    29.067     8.841
     7   6 C        2.988     0.008    27.821     8.652
     8   6 C        2.916    -0.082    30.040     8.988
     9   6 C        2.861     0.140    24.936     8.185
    10   6 C        2.916    -0.057    29.415     8.894
    11   6 C        2.917    -0.040    29.005     8.832
    12   6 C        2.986     0.003    27.953     8.673
    13   6 C        2.923    -0.046    29.140     8.852
    14   8 O        1.705    -0.301    19.017     5.888
    15   6 C        3.642     0.021    20.562     6.519
    16   6 C        2.700     0.370    20.724     7.451
    17   8 O        0.856    -0.502    23.827     6.544
    18   8 O        1.659    -0.400    20.853     6.165
    19   1 H        0.925     0.051     2.306     2.375
    20   1 H        0.925     0.065     2.139     2.287
    21   1 H        0.925     0.058     2.217     2.328
    22   1 H        0.926     0.039     2.463     2.454
    23   1 H        0.926     0.042     2.424     2.435
    24   1 H        0.926     0.044     2.397     2.421
    25   1 H        0.926     0.054     2.274     2.358
    26   1 H        0.926     0.052     2.297     2.370
    27   1 H        0.926     0.050     2.314     2.379
    28   1 H        0.924     0.053     2.278     2.360
    29   1 H        0.925     0.080     1.980     2.201
    30   1 H        0.924     0.054     2.269     2.356
    31   1 H        0.803     0.415     0.458     1.063

 Mol. C6AA /au·bohr⁶  :      11153.501257
 Mol. C8AA /au·bohr⁸  :     267694.663682
 Mol. α(0) /au        :        165.035245


Wiberg/Mayer (AO) data.
largest (>0.10) Wiberg bond orders for each atom

 ---------------------------------------------------------------------------
     #   Z sym  total        # sym  WBO       # sym  WBO       # sym  WBO
 ---------------------------------------------------------------------------
     1   6 C    3.987 --     2 C    0.992    19 H    0.985    21 H    0.985
                            20 H    0.982
     2   6 C    3.990 --     1 C    0.992     4 C    0.963     3 H    0.961
                            16 C    0.958
     3   1 H    0.996 --     2 C    0.961
     4   6 C    3.977 --    13 C    1.513     5 C    1.302     2 C    0.963
     5   6 C    3.991 --     6 C    1.554     4 C    1.302    22 H    0.967
     6   6 C    3.991 --     5 C    1.554     7 C    1.281    23 H    0.967
                            13 C    0.114
     7   6 C    3.989 --     6 C    1.281     8 C    1.279    12 C    1.250
     8   6 C    3.984 --     9 C    1.478     7 C    1.279    24 H    0.963
                            11 C    0.105
     9   6 C    3.930 --     8 C    1.478    10 C    1.244    14 O    1.058
    10   6 C    3.988 --    11 C    1.589     9 C    1.244    25 H    0.967
    11   6 C    3.988 --    10 C    1.589    12 C    1.260    26 H    0.966
                             8 C    0.105
    12   6 C    3.991 --    13 C    1.294    11 C    1.260     7 C    1.250
    13   6 C    3.990 --     4 C    1.513    12 C    1.294    27 H    0.962
                             6 C    0.114
    14   8 O    2.205 --     9 C    1.058    15 C    0.972
    15   6 C    3.932 --    29 H    0.978    28 H    0.977    30 H    0.976
                            14 O    0.972
    16   6 C    3.902 --    17 O    1.689    18 O    1.191     2 C    0.958
    17   8 O    1.959 --    16 C    1.689    18 O    0.172
    18   8 O    2.200 --    16 C    1.191    31 H    0.802    17 O    0.172
    19   1 H    0.997 --     1 C    0.985
    20   1 H    0.996 --     1 C    0.982
    21   1 H    0.997 --     1 C    0.985
    22   1 H    0.998 --     5 C    0.967
    23   1 H    0.997 --     6 C    0.967
    24   1 H    0.998 --     8 C    0.963
    25   1 H    0.997 --    10 C    0.967
    26   1 H    0.996 --    11 C    0.966
    27   1 H    0.997 --    13 C    0.962
    28   1 H    0.997 --    15 C    0.977
    29   1 H    0.993 --    15 C    0.978
    30   1 H    0.997 --    15 C    0.976
    31   1 H    0.828 --    18 O    0.802
 ---------------------------------------------------------------------------

Topologies differ in total number of bonds
Writing topology from bond orders to xtbtopo.mol

molecular dipole:
                 x           y           z       tot (Debye)
 q only:        0.629       0.403      -0.774
   full:        0.582       0.306      -0.644       2.341
molecular quadrupole (traceless):
                xx          xy          yy          xz          yz          zz
 q only:       -0.003     -17.613       6.239      10.509       4.779      -6.236
  q+dip:        2.028     -18.500       9.107      10.130       5.974     -11.135
   full:        0.963     -19.196       6.753      10.107       6.193      -7.716

           -------------------------------------------------
          |                Geometry Summary                 |
           -------------------------------------------------

      molecular mass/u    :      230.2596879
   center of mass at/Å    :        0.0004315      -0.0012486      -0.0008532
  moments of inertia/u·Å² :        0.4026299E+03   0.2315620E+04   0.2462333E+04
rotational constants/cm⁻¹ :        0.4186880E-01   0.7279965E-02   0.6846205E-02

 * 30 selected distances

     #   Z          #   Z                                           value/Å
     1   6 C        2   6 C                                       1.5288533 (max)
     2   6 C        3   1 H                                       1.0937900
     4   6 C        5   6 C                                       1.4066010
     5   6 C        6   6 C                                       1.3669348
     6   6 C        7   6 C                                       1.4097105
     7   6 C        8   6 C                                       1.4106570
     8   6 C        9   6 C                                       1.3722665
     9   6 C       10   6 C                                       1.4152529
    10   6 C       11   6 C                                       1.3613904
     7   6 C       12   6 C                                       1.4178729
    11   6 C       12   6 C                                       1.4130701
     4   6 C       13   6 C                                       1.3723718
    12   6 C       13   6 C                                       1.4069839
     9   6 C       14   8 O                                       1.3636485
    14   8 O       15   6 C                                       1.4143549
    16   6 C       17   8 O                                       1.2148104
    16   6 C       18   8 O                                       1.3196239
     1   6 C       19   1 H                                       1.0870507
     1   6 C       20   1 H                                       1.0852129
     1   6 C       21   1 H                                       1.0864150
     5   6 C       22   1 H                                       1.0800015
     6   6 C       23   1 H                                       1.0800759
     8   6 C       24   1 H                                       1.0785241
    10   6 C       25   1 H                                       1.0785108
    11   6 C       26   1 H                                       1.0794571
    13   6 C       27   1 H                                       1.0799041
    15   6 C       28   1 H                                       1.0931247
    15   6 C       29   1 H                                       1.0875104
    15   6 C       30   1 H                                       1.0930846
    18   8 O       31   1 H                                       0.9768853 (min)

 * 4 distinct bonds (by element types)

   Z      Z             #   av. dist./Å        max./Å        min./Å
   1 H    6 C          13     1.0848201     1.0937900     1.0785108
   6 C    6 C          12     1.4068304     1.5288533     1.3613904
   1 H    8 O           1     0.9768853     0.9768853     0.9768853
   6 C    8 O           4     1.3281094     1.4143549     1.2148104

           -------------------------------------------------
          |               Frequency Printout                |
           -------------------------------------------------
 projected vibrational frequencies (cm⁻¹)
eigval :       -0.00    -0.00    -0.00    -0.00    -0.00     0.00
eigval :       27.44    38.57    54.99    83.14   116.60   140.03
eigval :      161.75   173.75   187.14   214.60   233.60   257.94
eigval :      295.54   362.90   371.38   379.30   394.73   449.33
eigval :      476.15   501.30   513.30   540.48   579.12   581.32
eigval :      620.62   642.61   657.43   715.98   726.42   770.18
eigval :      793.41   833.71   847.81   852.93   860.65   886.91
eigval :      912.87   916.60   932.86   954.93  1028.84  1047.44
eigval :     1067.59  1095.16  1115.25  1118.73  1132.01  1149.78
eigval :     1168.83  1174.19  1176.43  1210.47  1236.66  1248.98
eigval :     1263.14  1274.94  1296.09  1327.22  1380.69  1389.85
eigval :     1398.79  1403.90  1424.49  1458.04  1458.44  1471.28
eigval :     1481.67  1485.56  1501.59  1566.13  1606.72  1609.65
eigval :     1697.09  2944.76  2957.21  2960.24  3036.19  3038.89
eigval :     3048.46  3067.29  3071.28  3083.71  3084.00  3087.61
eigval :     3100.29  3105.53  3338.85
 reduced masses (amu)
   1: 12.41   2: 12.13   3: 12.47   4: 11.32   5: 11.96   6: 12.22   7: 11.25   8: 13.64
   9: 13.45  10: 11.39  11: 11.67  12: 10.73  13:  8.50  14:  9.22  15:  3.00  16:  7.17
  17:  7.22  18:  9.26  19: 11.50  20: 11.34  21:  9.40  22: 11.08  23: 11.51  24:  8.84
  25: 10.57  26: 11.68  27: 11.60  28: 10.03  29:  9.69  30: 10.14  31:  9.11  32:  9.26
  33:  9.16  34: 11.37  35: 11.37  36: 10.56  37:  4.84  38:  5.16  39:  9.49  40:  3.61
  41:  9.25  42:  3.48  43:  3.35  44:  3.48  45:  9.50  46:  9.38  47:  6.47  48: 11.75
  49:  5.55  50:  7.15  51:  3.72  52:  7.86  53:  4.46  54:  4.95  55:  4.11  56:  3.74
  57:  6.70  58:  4.92  59:  8.69  60:  9.23  61:  5.26  62:  6.33  63:  7.05  64:  7.01
  65:  8.58  66:  5.04  67:  6.35  68:  5.42  69: 11.56  70:  1.64  71:  9.69  72:  1.87
  73:  1.73  74:  1.59  75: 10.78  76: 11.68  77: 11.53  78: 11.52  79: 13.28  80:  1.96
  81:  1.44  82:  1.76  83:  1.71  84:  1.85  85:  1.67  86:  1.65  87:  1.77  88:  1.84
  89:  1.84  90:  1.82  91:  1.82  92:  1.86  93:  1.85
 IR intensities (km·mol⁻¹)
   1:  0.11   2:  0.05   3:  0.24   4:  0.07   5:  0.03   6:  0.00   7:  2.51   8:  2.47
   9:  2.21  10:  1.84  11:  2.64  12:  1.51  13:  0.10  14:  2.82  15:  0.22  16:  1.71
  17:  1.44  18:  2.98  19:  3.71  20:  1.80  21:  0.26  22:  0.24  23:  4.06  24:  3.68
  25:  5.86  26: 12.45  27: 10.74  28: 29.00  29: 55.31  30: 81.48  31: 27.97  32: 55.97
  33: 42.33  34: 47.15  35:107.60  36:  1.25  37: 13.15  38: 37.88  39:  8.36  40:  0.33
  41: 24.44  42:  7.39  43:  0.27  44:  0.44  45: 83.74  46: 21.04  47: 70.57  48: 58.49
  49: 72.01  50:125.32  51:  2.70  52:115.54  53: 72.86  54: 11.75  55:104.27  56:  3.17
  57:240.53  58:  9.10  59:165.26  60:213.61  61: 89.21  62: 33.76  63: 29.70  64:  1.61
  65:104.75  66: 31.54  67: 11.85  68:  4.59  69: 53.36  70:  8.26  71: 88.17  72: 20.50
  73:  2.86  74:  7.54  75:  2.66  76: 22.81  77:  2.94  78:289.43  79:801.42  80: 45.51
  81: 41.84  82: 41.50  83: 16.93  84: 58.89  85: 33.16  86: 16.14  87: 30.26  88:138.10
  89: 60.00  90: 34.16  91: 82.45  92: 59.11  93:195.10
 Raman intensities (Ä⁴*amu⁻¹)
   1:  0.00   2:  0.00   3:  0.00   4:  0.00   5:  0.00   6:  0.00   7:  0.00   8:  0.00
   9:  0.00  10:  0.00  11:  0.00  12:  0.00  13:  0.00  14:  0.00  15:  0.00  16:  0.00
  17:  0.00  18:  0.00  19:  0.00  20:  0.00  21:  0.00  22:  0.00  23:  0.00  24:  0.00
  25:  0.00  26:  0.00  27:  0.00  28:  0.00  29:  0.00  30:  0.00  31:  0.00  32:  0.00
  33:  0.00  34:  0.00  35:  0.00  36:  0.00  37:  0.00  38:  0.00  39:  0.00  40:  0.00
  41:  0.00  42:  0.00  43:  0.00  44:  0.00  45:  0.00  46:  0.00  47:  0.00  48:  0.00
  49:  0.00  50:  0.00  51:  0.00  52:  0.00  53:  0.00  54:  0.00  55:  0.00  56:  0.00
  57:  0.00  58:  0.00  59:  0.00  60:  0.00  61:  0.00  62:  0.00  63:  0.00  64:  0.00
  65:  0.00  66:  0.00  67:  0.00  68:  0.00  69:  0.00  70:  0.00  71:  0.00  72:  0.00
  73:  0.00  74:  0.00  75:  0.00  76:  0.00  77:  0.00  78:  0.00  79:  0.00  80:  0.00
  81:  0.00  82:  0.00  83:  0.00  84:  0.00  85:  0.00  86:  0.00  87:  0.00  88:  0.00
  89:  0.00  90:  0.00  91:  0.00  92:  0.00  93:  0.00
 output can be read by thermo (or use thermo option).
 writing <g98.out> molden fake output.
 recommended (thermochemical) frequency scaling factor: 1.0
           -------------------------------------------------
          |             Thermodynamic Functions             |
           -------------------------------------------------

Molecule has no symmetry elements
It seems to be the C1 point group
c1  symmetry found (for desy threshold:  0.10E+00) used in thermo

          ...................................................
          :                      SETUP                      :
          :.................................................:
          :  # frequencies                          87      :
          :  # imaginary freq.                       0      :
          :  linear?                             false      :
          :  only rotor calc.                    false      :
          :  symmetry                               c1      :
          :  rotational number                       1      :
          :  scaling factor                  1.0000000      :
          :  rotor cutoff                    0.0000000 cm⁻¹ :
          :  imag. cutoff                 -100.0000000 cm⁻¹ :
          :.................................................:

    mode    ω/cm⁻¹     T·S(HO)/kcal·mol⁻¹    T·S(FR)/kcal·mol⁻¹   T·S(vib)
   ------------------------------------------------------------------------
       1     27.44    -1.79089 (100.00%)    -1.23424 (  0.00%)    -1.79089
       2     38.57    -1.58956 (100.00%)    -1.13340 (  0.00%)    -1.58956
       3     54.99    -1.38026 (100.00%)    -1.02833 (  0.00%)    -1.38026
       4     83.14    -1.13753 (100.00%)    -0.90587 (  0.00%)    -1.13753
       5    116.60    -0.94097 (100.00%)    -0.80570 (  0.00%)    -0.94097
       6    140.03    -0.83584 (100.00%)    -0.75145 (  0.00%)    -0.83584
       7    161.75    -0.75409 (100.00%)    -0.70874 (  0.00%)    -0.75409
       8    173.75    -0.71393 (100.00%)    -0.68754 (  0.00%)    -0.71393
       9    187.14    -0.67262 (100.00%)    -0.66555 (  0.00%)    -0.67262
      10    214.60    -0.59754 (100.00%)    -0.62498 (  0.00%)    -0.59754
      11    233.60    -0.55190 (100.00%)    -0.59985 (  0.00%)    -0.55190
      12    257.94    -0.49959 (100.00%)    -0.57049 (  0.00%)    -0.49959
      13    295.54    -0.42994 (100.00%)    -0.53018 (  0.00%)    -0.42994
   ------------------------------------------------------------------------

   temp. (K)  partition function   enthalpy   heat capacity  entropy
                                   cal/mol     cal/K/mol   cal/K/mol   J/K/mol
 298.15  VIB  0.399E+06             8164.007     54.727     53.011
         ROT  0.366E+07              888.752      2.981     33.014
         INT  0.146E+13             9052.759     57.708     86.026
         TR   0.338E+28             1481.254      4.968     42.185
         TOT                       10534.0131    62.6763   128.2107   536.4334

       T/K    H(0)-H(T)+PV         H(T)/Eh          T*S/Eh         G(T)/Eh
   ------------------------------------------------------------------------
    298.15    0.167870E-01    0.259299E+00    0.609170E-01    0.198382E+00
   ------------------------------------------------------------------------

         :::::::::::::::::::::::::::::::::::::::::::::::::::::
         ::                  THERMODYNAMIC                  ::
         :::::::::::::::::::::::::::::::::::::::::::::::::::::
         :: total free energy         -49.149428595948 Eh   ::
         ::.................................................::
         :: total energy              -49.347810120508 Eh   ::
         :: zero point energy           0.242511532188 Eh   ::
         :: G(RRHO) w/o ZPVE           -0.044130007629 Eh   ::
         :: G(RRHO) contrib.            0.198381524560 Eh   ::
         :::::::::::::::::::::::::::::::::::::::::::::::::::::

optimized geometry written to: xtbopt.coord


           -------------------------------------------------
          | TOTAL ENERGY              -49.347810120508 Eh   |
          | TOTAL ENTHALPY            -49.088511569838 Eh   |
          | TOTAL FREE ENERGY         -49.149428595948 Eh   |
          | GRADIENT NORM               0.000186451960 Eh/α |
          | HOMO-LUMO GAP               3.071351244006 eV   |
           -------------------------------------------------

------------------------------------------------------------------------
 * finished run on 2025/04/11 at 16:16:07.352     
------------------------------------------------------------------------
 total:
 * wall-time:     0 d,  0 h,  0 min,  6.426 sec
 *  cpu-time:     0 d,  0 h,  0 min,  6.288 sec
 * ratio c/w:     0.978 speedup
 SCF:
 * wall-time:     0 d,  0 h,  0 min,  0.045 sec
 *  cpu-time:     0 d,  0 h,  0 min,  0.039 sec
 * ratio c/w:     0.873 speedup
 analytical hessian:
 * wall-time:     0 d,  0 h,  0 min,  5.603 sec
 *  cpu-time:     0 d,  0 h,  0 min,  5.569 sec
 * ratio c/w:     0.994 speedup

