
                                 *****************
                                 * O   R   C   A *
                                 *****************

                                            #,                                       
                                            ###                                      
                                            ####                                     
                                            #####                                    
                                            ######                                   
                                           ########,                                 
                                     ,,################,,,,,                         
                               ,,#################################,,                 
                          ,,##########################################,,             
                       ,#########################################, ''#####,          
                    ,#############################################,,   '####,        
                  ,##################################################,,,,####,       
                ,###########''''           ''''###############################       
              ,#####''   ,,,,##########,,,,          '''####'''          '####       
            ,##' ,,,,###########################,,,                        '##       
           ' ,,###''''                  '''############,,,                           
         ,,##''                                '''############,,,,        ,,,,,,###''
      ,#''                                            '''#######################'''  
     '                                                          ''''####''''         
             ,#######,   #######,   ,#######,      ##                                
            ,#'     '#,  ##    ##  ,#'     '#,    #''#        ,####,   ,####,        
            ##       ##  ##   ,#'  ##            #'  '#       #'       #'  '#        
            ##       ##  #######   ##           ,######,      #####,   #    #        
            '#,     ,#'  ##    ##  '#,     ,#' ,#      #,     #,   #   #,  ,#        
             '#######'   ##     ##  '#######'  #'      '#     '####' # '####'        



                #########################################################
                #                        -***-                          #
                #          Department of theory and spectroscopy        #
                #                                                       #
                #                      Frank Neese                      #
                #                                                       #
                #     Directorship, Architecture, Infrastructure        #
                #                    SHARK, DRIVERS                     #
                #        Core code/Algorithms in most modules           #
                #                                                       #
                #        Max Planck Institute fuer Kohlenforschung      #
                #                Kaiser Wilhelm Platz 1                 #
                #                 D-45470 Muelheim/Ruhr                 #
                #                      Germany                          #
                #                                                       #
                #                  All rights reserved                  #
                #                        -***-                          #
                #########################################################


                         Program Version 6.0.0  -   RELEASE  -


 With contributions from (in alphabetic order):
   Daniel Aravena         : Magnetic Suceptibility
   Michael Atanasov       : Ab Initio Ligand Field Theory (pilot matlab implementation)
   Alexander A. Auer      : GIAO ZORA, VPT2 properties, NMR spectrum
   Ute Becker             : All parallelization in ORCA, NUMFREQ, NUMCALC
   Giovanni Bistoni       : ED, misc. LED, open-shell LED, HFLD
   Martin Brehm           : Molecular dynamics
   Dmytro Bykov           : pre 5.0 version of the SCF Hessian
   Marcos Casanova-Páez   : Triplet and SCS-CIS(D). UHF-(DLPNO)-IP/EA/STEOM-CCSD. UHF-CVS-IP/STEOM-CCSD
   Vijay G. Chilkuri      : MRCI spin determinant printing, contributions to CSF-ICE
   Pauline Colinet        : FMM embedding
   Dipayan Datta          : RHF DLPNO-CCSD density
   Achintya Kumar Dutta   : EOM-CC, STEOM-CC
   Nicolas Foglia         : Exact transition moments, OPA infrastructure, MCD improvements
   Dmitry Ganyushin       : Spin-Orbit,Spin-Spin,Magnetic field MRCI
   Miquel Garcia          : C-PCM and meta-GGA Hessian, CCSD/C-PCM, Gaussian charge scheme
   Tiago L. C. Gouveia    : GS-ROHF, GS-ROCIS
   Yang Guo               : DLPNO-NEVPT2, F12-NEVPT2, CIM, IAO-localization
   Andreas Hansen         : Spin unrestricted coupled pair/coupled cluster methods
   Ingolf Harden          : AUTO-CI MPn and infrastructure 
   Benjamin Helmich-Paris : MC-RPA, TRAH-(SCF,CASSCF), AVAS, COSX integrals, SCF dyn. polar.
   Lee Huntington         : MR-EOM, pCC
   Robert Izsak           : Overlap fitted RIJCOSX, COSX-SCS-MP3, EOM
   Riya Kayal             : Wick's Theorem for AUTO-CI, AUTO-CI UHF-CCSDT
   Emily Kempfer          : AUTO-CI, RHF CISDT and CCSDT
   Christian Kollmar      : KDIIS, OOCD, Brueckner-CCSD(T), CCSD density, CASPT2, CASPT2-K, improved NEVPT2
   Axel Koslowski         : Symmetry handling
   Simone Kossmann        : Meta GGA functionals, TD-DFT gradient, OOMP2, (MP2 Hessian; deprecated post 5.0)
   Lucas Lang             : DCDCAS
   Marvin Lechner         : AUTO-CI (C++ implementation), FIC-MRCC
   Spencer Leger          : CASSCF response
   Dagmar Lenk            : GEPOL surface, SMD, ORCA-2-JSON
   Dimitrios Liakos       : Extrapolation schemes; Compound Job, initial MDCI parallelization
   Dimitrios Manganas     : Further ROCIS development; embedding schemes. LFT, Crystal Embedding
   Dimitrios Pantazis     : SARC Basis sets
   Anastasios Papadopoulos: AUTO-CI, single reference methods and gradients
   Taras Petrenko         : pre 6.0 DFT Hessian and TD-DFT gradient, (ASA, deprecated), ECA, 1-Electron XAS/XES, NRVS
   Peter Pinski           : DLPNO-MP2, DLPNO-MP2 Gradient
   Christoph Reimann      : Effective Core Potentials
   Marius Retegan         : Local ZFS, SOC
   Christoph Riplinger    : Optimizer, TS searches, QM/MM, DLPNO-CCSD(T), (RO)-DLPNO pert. Triples
   Michael Roemelt        : Original ROCIS implementation
   Masaaki Saitow         : Open-shell DLPNO-CCSD energy and density
   Barbara Sandhoefer     : DKH picture change effects
   Kantharuban Sivalingam : CASSCF convergence/infrastructure, NEVPT2 and variants, FIC-MRCI
   Bernardo de Souza      : ESD, SOC TD-DFT
   Georgi Stoychev        : AutoAux, RI-MP2 NMR, DLPNO-MP2 response, X2C
   Van Anh Tran           : RI-MP2 g-tensors
   Willem Van den Heuvel  : Paramagnetic NMR
   Zikuan Wang            : NOTCH, Electric field optimization 
   Frank Wennmohs         : Technical directorship and infrastructure
   Hang Xu                : AUTO-CI-Response properties 


 We gratefully acknowledge several colleagues who have allowed us to
 interface, adapt or use parts of their codes:
   Stefan Grimme, W. Hujo, H. Kruse, P. Pracht,  : VdW corrections, initial TS optimization,
                  C. Bannwarth, S. Ehlert,         DFT functionals, gCP, sTDA/sTD-DF
                  L. Wittmann, M. Mueller
   Ed Valeev, F. Pavosevic, A. Kumar             : LibInt (2-el integral package), F12 methods
   Garnet Chan, S. Sharma, J. Yang, R. Olivares  : DMRG
   Ulf Ekstrom                                   : XCFun DFT Library
   Mihaly Kallay                                 : mrcc  (arbitrary order and MRCC methods)
   Frank Weinhold                                : gennbo (NPA and NBO analysis)
   Simon Mueller                                 : openCOSMO-RS
   Christopher J. Cramer and Donald G. Truhlar   : smd solvation model
   Lars Goerigk                                  : TD-DFT with DH, B97 family of functionals
   V. Asgeirsson, H. Jonsson                     : NEB implementation
   FAccTs GmbH                                   : IRC, NEB, NEB-TS, DLPNO-Multilevel, CI-OPT
                                                   MM, QMMM, 2- and 3-layer-ONIOM, Crystal-QMMM,
                                                   LR-CPCM, SF, NACMEs, symmetry and pop. for TD-DFT,
                                                   nearIR, NL-DFT gradient (VV10), updates on ESD,
                                                   ML-optimized integration grids, MBIS, APM,
                                                   GOAT, DOCKER, SOLVATOR, interface openCOSMO-RS
   S Lehtola, MJT Oliveira, MAL Marques          : LibXC Library
   Liviu Ungur et al                             : ANISO software


 Your calculation uses the libint2 library for the computation of 2-el integrals
 For citations please refer to: http://libint.valeyev.net

 Your ORCA version has been built with support for libXC version: 6.2.2
 For citations please refer to: https://libxc.gitlab.io

 This ORCA versions uses:
   CBLAS   interface :  Fast vector & matrix operations
   LAPACKE interface :  Fast linear algebra routines
   SCALAPACK package :  Parallel linear algebra routines
   Shared memory     :  Shared parallel matrices
   BLAS/LAPACK       :  OpenBLAS 0.3.27  USE64BITINT DYNAMIC_ARCH NO_AFFINITY SkylakeX SINGLE_THREADED
        Core in use  :  SkylakeX
   Copyright (c) 2011-2014, The OpenBLAS Project


Your calculation utilizes the geometrical counterpoise correction gCP
Please cite in your paper:
H.Kruse, S. Grimme J.Chem.Phys., 136, (2012), 154101 
   

Your calculation utilizes the atom-pairwise dispersion correction
based on EEQ partial charges (D4)


================================================================================

----- Orbital basis set information -----
Your calculation utilizes the basis: def2-mTZVPP
   Stefan Grimme, Andreas Hansen, Sebastian Ehlert, and Jan-Michael Mewes 
   J. Chem. Phys. 154, 064103 (2021). DOI: 10.1063/5.0040021

----- AuxJ basis set information -----
Your calculation utilizes the auxiliary basis: def2/J
   F. Weigend, Phys. Chem. Chem. Phys. 8, 1057 (2006).

================================================================================
                                        WARNINGS
                       Please study these warnings very carefully!
================================================================================

Using LibXC functional ID 497 : Re-regularized SCAN exchange by Furness et al
[ 1]  J. W. Furness, A. D. Kaplan, J. Ning, J. P. Perdew, and J. Sun.,  J. Phys. Chem. Lett. 11, 8208-8215 (2020)
[ 2]  J. W. Furness, A. D. Kaplan, J. Ning, J. P. Perdew, and J. Sun.,  J. Phys. Chem. Lett. 11, 9248-9248 (2020)
Using LibXC functional ID 498 : Re-regularized SCAN correlation by Furness et al
[ 1]  J. W. Furness, A. D. Kaplan, J. Ning, J. P. Perdew, and J. Sun.,  J. Phys. Chem. Lett. 11, 8208-8215 (2020)
[ 2]  J. W. Furness, A. D. Kaplan, J. Ning, J. P. Perdew, and J. Sun.,  J. Phys. Chem. Lett. 11, 9248-9248 (2020)
Using LibXC functional ID 497 : Re-regularized SCAN exchange by Furness et al
[ 1]  J. W. Furness, A. D. Kaplan, J. Ning, J. P. Perdew, and J. Sun.,  J. Phys. Chem. Lett. 11, 8208-8215 (2020)
[ 2]  J. W. Furness, A. D. Kaplan, J. Ning, J. P. Perdew, and J. Sun.,  J. Phys. Chem. Lett. 11, 9248-9248 (2020)
Using LibXC functional ID 498 : Re-regularized SCAN correlation by Furness et al
[ 1]  J. W. Furness, A. D. Kaplan, J. Ning, J. P. Perdew, and J. Sun.,  J. Phys. Chem. Lett. 11, 8208-8215 (2020)
[ 2]  J. W. Furness, A. D. Kaplan, J. Ning, J. P. Perdew, and J. Sun.,  J. Phys. Chem. Lett. 11, 9248-9248 (2020)

================================================================================
                                       INPUT FILE
================================================================================
NAME = sp_gas.inp
|  1> ! r2scan-3c def2/J RI DEFGRID2 scfconv6 printgap
|  2> %output
|  3>     printlevel normal
|  4> end
|  5> * xyz 0 1
|  6> C -3.4052968123 -0.9365350786 0.3993622128
|  7> C -1.9411418165 -0.5909165724 0.6429205126
|  8> C -1.3577150865 0.1854860428 -0.53674753
|  9> C 0.0823400505 0.5899477172 -0.3569094465
| 10> O 0.5860643331 1.5516022941 -0.9038489358
| 11> O 0.7460034663 -0.2188312805 0.4561857702
| 12> C 2.140221964 0.039220946 0.6900577429
| 13> C 3.0069387259 -0.6056487807 -0.3807043382
| 14> H -3.8096522334 -1.4820106557 1.2475184414
| 15> H -3.9928957382 -0.0323638281 0.2601237967
| 16> H -3.5095385164 -1.5541481882 -0.489108158
| 17> H -1.3653793227 -1.5043221843 0.7936675734
| 18> H -1.8521601011 0.0113507327 1.5487283081
| 19> H -1.9312796435 1.0928461 -0.7339692278
| 20> H -1.4007359081 -0.4290608539 -1.4402033783
| 21> H 2.2964096792 1.1221007399 0.7103042051
| 22> H 2.3364400002 -0.3914902451 1.6723541898
| 23> H 4.053000563 -0.4526152394 -0.1363013869
| 24> H 2.8028763911 -1.6714958596 -0.4362303791
| 25> H 2.8009050404 -0.1534625534 -1.3483529419
| 26> *
| 27> 
| 28>                          ****END OF INPUT****
================================================================================

                       ****************************
                       * Single Point Calculation *
                       ****************************

---------------------------------
CARTESIAN COORDINATES (ANGSTROEM)
---------------------------------
  C     -3.405297   -0.936535    0.399362
  C     -1.941142   -0.590917    0.642921
  C     -1.357715    0.185486   -0.536748
  C      0.082340    0.589948   -0.356909
  O      0.586064    1.551602   -0.903849
  O      0.746003   -0.218831    0.456186
  C      2.140222    0.039221    0.690058
  C      3.006939   -0.605649   -0.380704
  H     -3.809652   -1.482011    1.247518
  H     -3.992896   -0.032364    0.260124
  H     -3.509539   -1.554148   -0.489108
  H     -1.365379   -1.504322    0.793668
  H     -1.852160    0.011351    1.548728
  H     -1.931280    1.092846   -0.733969
  H     -1.400736   -0.429061   -1.440203
  H      2.296410    1.122101    0.710304
  H      2.336440   -0.391490    1.672354
  H      4.053001   -0.452615   -0.136301
  H      2.802876   -1.671496   -0.436230
  H      2.800905   -0.153463   -1.348353

----------------------------
CARTESIAN COORDINATES (A.U.)
----------------------------
  NO LB      ZA    FRAG     MASS         X           Y           Z
   0 C     6.0000    0    12.011   -6.435078   -1.769795    0.754685
   1 C     6.0000    0    12.011   -3.668226   -1.116670    1.214944
   2 C     6.0000    0    12.011   -2.565710    0.350518   -1.014306
   3 C     6.0000    0    12.011    0.155600    1.114840   -0.674461
   4 O     8.0000    0    15.999    1.107501    2.932103   -1.708027
   5 O     8.0000    0    15.999    1.409742   -0.413531    0.862066
   6 C     6.0000    0    12.011    4.044433    0.074117    1.304020
   7 C     6.0000    0    12.011    5.682291   -1.144510   -0.719427
   8 H     1.0000    0     1.008   -7.199199   -2.800594    2.357468
   9 H     1.0000    0     1.008   -7.545479   -0.061159    0.491563
  10 H     1.0000    0     1.008   -6.632067   -2.936914   -0.924280
  11 H     1.0000    0     1.008   -2.580193   -2.842757    1.499814
  12 H     1.0000    0     1.008   -3.500075    0.021450    2.926672
  13 H     1.0000    0     1.008   -3.649590    2.065180   -1.387001
  14 H     1.0000    0     1.008   -2.647007   -0.810808   -2.721590
  15 H     1.0000    0     1.008    4.339585    2.120463    1.342280
  16 H     1.0000    0     1.008    4.415232   -0.739809    3.160291
  17 H     1.0000    0     1.008    7.659061   -0.855319   -0.257572
  18 H     1.0000    0     1.008    5.296669   -3.158669   -0.824356
  19 H     1.0000    0     1.008    5.292943   -0.290002   -2.548018

--------------------------------
INTERNAL COORDINATES (ANGSTROEM)
--------------------------------
 C      0   0   0     0.000000000000     0.00000000     0.00000000
 C      1   0   0     1.523982496276     0.00000000     0.00000000
 C      2   1   0     1.528006695306   111.01931561     0.00000000
 C      3   2   1     1.506548963670   114.15615037   178.75749404
 O      4   3   2     1.215590590252   123.69511427   206.30580335
 O      4   3   2     1.325026953693   112.83897739    26.66061462
 C      6   4   3     1.437056808392   118.43729777   178.64979991
 C      7   6   4     1.521047778373   111.23122934   274.21507332
 H      1   2   3     1.086469465700   110.28331102   180.38270182
 H      1   2   3     1.087283534533   110.55376809   300.30099463
 H      1   2   3     1.087056523743   110.58516988    60.38711379
 H      2   1   3     1.090200411602   109.84532587   238.97197047
 H      2   1   3     1.091389671408   109.64066712   120.77157704
 H      3   2   1     1.091409626369   111.17882941    56.94050520
 H      3   2   1     1.093504069111   109.71079721   298.42254577
 H      7   6   4     1.094272895419   108.61386333    36.11713892
 H      7   6   4     1.090376062403   104.49350068   153.95273648
 H      8   7   6     1.085079459949   109.32778001   184.01848785
 H      8   7   6     1.086625314127   110.17087629   304.17788330
 H      8   7   6     1.087780347296   110.00193528    64.45156551

---------------------------
INTERNAL COORDINATES (A.U.)
---------------------------
 C      0   0   0     0.000000000000     0.00000000     0.00000000
 C      1   0   0     2.879909550851     0.00000000     0.00000000
 C      2   1   0     2.887514184926   111.01931561     0.00000000
 C      3   2   1     2.846964948679   114.15615037   178.75749404
 O      4   3   2     2.297133306548   123.69511427   206.30580335
 O      4   3   2     2.503938062543   112.83897739    26.66061462
 C      6   4   3     2.715643806747   118.43729777   178.64979991
 C      7   6   4     2.874363737735   111.23122934   274.21507332
 H      1   2   3     2.053129743041   110.28331102   180.38270182
 H      1   2   3     2.054668110190   110.55376809   300.30099463
 H      1   2   3     2.054239121967   110.58516988    60.38711379
 H      2   1   3     2.060180209016   109.84532587   238.97197047
 H      2   1   3     2.062427584352   109.64066712   120.77157704
 H      3   2   1     2.062465293763   111.17882941    56.94050520
 H      3   2   1     2.066423216948   109.71079721   298.42254577
 H      7   6   4     2.067876088114   108.61386333    36.11713892
 H      7   6   4     2.060512140925   104.49350068   153.95273648
 H      8   7   6     2.050503012847   109.32778001   184.01848785
 H      8   7   6     2.053424253886   110.17087629   304.17788330
 H      8   7   6     2.055606950251   110.00193528    64.45156551

---------------------
BASIS SET INFORMATION
---------------------
There are 3 groups of distinct atoms

 Group   1 Type C   : 11s6p1d contracted to 5s3p1d pattern {62111/411/1}
 Group   2 Type O   : 11s6p2d contracted to 5s3p2d pattern {62111/411/11}
 Group   3 Type H   : 4s1p contracted to 2s1p pattern {31/1}

Atom   0C    basis set group =>   1
Atom   1C    basis set group =>   1
Atom   2C    basis set group =>   1
Atom   3C    basis set group =>   1
Atom   4O    basis set group =>   2
Atom   5O    basis set group =>   2
Atom   6C    basis set group =>   1
Atom   7C    basis set group =>   1
Atom   8H    basis set group =>   3
Atom   9H    basis set group =>   3
Atom  10H    basis set group =>   3
Atom  11H    basis set group =>   3
Atom  12H    basis set group =>   3
Atom  13H    basis set group =>   3
Atom  14H    basis set group =>   3
Atom  15H    basis set group =>   3
Atom  16H    basis set group =>   3
Atom  17H    basis set group =>   3
Atom  18H    basis set group =>   3
Atom  19H    basis set group =>   3
---------------------------------
AUXILIARY/J BASIS SET INFORMATION
---------------------------------
There are 3 groups of distinct atoms

 Group   1 Type C   : 12s5p4d2f1g contracted to 6s4p3d1f1g pattern {711111/2111/211/2/1}
 Group   2 Type O   : 12s5p4d2f1g contracted to 6s4p3d1f1g pattern {711111/2111/211/2/1}
 Group   3 Type H   : 5s2p1d contracted to 3s1p1d pattern {311/2/1}

Atom   0C    basis set group =>   1
Atom   1C    basis set group =>   1
Atom   2C    basis set group =>   1
Atom   3C    basis set group =>   1
Atom   4O    basis set group =>   2
Atom   5O    basis set group =>   2
Atom   6C    basis set group =>   1
Atom   7C    basis set group =>   1
Atom   8H    basis set group =>   3
Atom   9H    basis set group =>   3
Atom  10H    basis set group =>   3
Atom  11H    basis set group =>   3
Atom  12H    basis set group =>   3
Atom  13H    basis set group =>   3
Atom  14H    basis set group =>   3
Atom  15H    basis set group =>   3
Atom  16H    basis set group =>   3
Atom  17H    basis set group =>   3
Atom  18H    basis set group =>   3
Atom  19H    basis set group =>   3

Checking for AutoStart:
The File: sp_gas.gbw exists
Trying to determine its content:
     ... Fine, the file contains calculation information
     ... Fine, the calculation information was read
     ... Fine, the file contains a basis set
     ... Fine, the basis set was read
     ... Fine, the file contains a geometry
     ... Fine, the geometry was read
     ... Fine, the file contains a set of orbitals
     ... Fine, the orbitals can be read
     => possible old guess file was deleted
     => GBW file was renamed to GES file
     => GES file is set as startup file
     => Guess is set to MORead
     ... now leaving AutoStart

------------------------------------------------------------------------------
                             ORCA STARTUP CALCULATIONS
                           -- RI-GTO INTEGRALS CHOSEN --
------------------------------------------------------------------------------
------------------------------------------------------------------------------
                   ___                                                        
                  /   \      - P O W E R E D   B Y -                         
                 /     \                                                     
                 |  |  |   _    _      __       _____    __    __             
                 |  |  |  | |  | |    /  \     |  _  \  |  |  /  |          
                  \  \/   | |  | |   /    \    | | | |  |  | /  /          
                 / \  \   | |__| |  /  /\  \   | |_| |  |  |/  /          
                |  |  |   |  __  | /  /__\  \  |    /   |      \           
                |  |  |   | |  | | |   __   |  |    \   |  |\   \          
                \     /   | |  | | |  |  |  |  | |\  \  |  | \   \       
                 \___/    |_|  |_| |__|  |__|  |_| \__\ |__|  \__/        
                                                                              
                      - O R C A' S   B I G   F R I E N D -                    
                                      &                                       
                       - I N T E G R A L  F E E D E R -                       
                                                                              
 v1 FN, 2020, v2 2021, v3 2022-2024                                           
------------------------------------------------------------------------------


----------------------
SHARK INTEGRAL PACKAGE
----------------------

Number of atoms                             ...     20
Number of basis functions                   ...    222
Number of shells                            ...    110
Maximum angular momentum                    ...      2
Integral batch strategy                     ... SHARK/LIBINT Hybrid
RI-J (if used) integral strategy            ... SPLIT-RIJ (Revised 2003 algorithm where possible)
Printlevel                                  ...      1
Contraction scheme used                     ... SEGMENTED contraction
Prescreening option                         ... SCHWARTZ
   Thresh                                   ... 1.000e-10
   Tcut                                     ... 1.000e-11
   Tpresel                                  ... 1.000e-11 
Coulomb Range Separation                    ... NOT USED
Exchange Range Separation                   ... NOT USED
Multipole approximations                    ... NOT USED
Finite Nucleus Model                        ... NOT USED
CABS basis                                  ... NOT available
Auxiliary Coulomb fitting basis             ... AVAILABLE
   # of basis functions in Aux-J            ...    524
   # of shells in Aux-J                     ...    180
   Maximum angular momentum in Aux-J        ...      4
Auxiliary J/K fitting basis                 ... NOT available
Auxiliary Correlation fitting basis         ... NOT available
Auxiliary 'external' fitting basis          ... NOT available

Checking pre-screening integrals            ... done (  0.0 sec) Dimension = 110
Check shell pair data                       ... done (  0.0 sec)
Shell pair information
Shell pair cut-off parameter TPreSel        ...   1.0e-11
Total number of shell pairs                 ...      6105
Shell pairs after pre-screening             ...      5245
Total number of primitive shell pairs       ...     21533
Primitive shell pairs kept                  ...     13060
          la=0 lb=0:   1761 shell pairs
          la=1 lb=0:   1979 shell pairs
          la=1 lb=1:    576 shell pairs
          la=2 lb=0:    562 shell pairs
          la=2 lb=1:    316 shell pairs
          la=2 lb=2:     51 shell pairs

Calculating one electron integrals          ... done (  0.0 sec)
Calculating RI/J V-Matrix + Cholesky decomp.... done (  0.1 sec)
Calculating Nuclear repulsion               ... done (  0.0 sec) ENN=    390.720672268521 Eh

Diagonalization of the overlap matrix:
Smallest eigenvalue                        ... 1.102e-04
Time for diagonalization                   ...    0.008 sec
Threshold for overlap eigenvalues          ... 1.000e-07
Number of eigenvalues below threshold      ... 0
Time for construction of square roots      ...    0.018 sec
Total time needed                          ...    0.036 sec

-------------------
DFT GRID GENERATION
-------------------

General Integration Accuracy     IntAcc      ... 4.388
Radial Grid Type                 RadialGrid  ... OptM3 with GC (2021)
Angular Grid (max. ang.)         AngularGrid ... 4 (Lebedev-302)
Angular grid pruning method      GridPruning ... 4 (adaptive)
Weight generation scheme         WeightScheme... mBecke (2022)
Basis function cutoff            BFCut       ... 1.0000e-10
Integration weight cutoff        WCut        ... 1.0000e-14
Partially contracted basis set               ... off
Rotationally invariant grid construction     ... off
Angular grids for H and He will be reduced by one unit
Diffuse basis detected: some atoms will have their outermost
                        angular grid increased by 1.

Total number of grid points                  ...    87434
Total number of batches                      ...     1376
Average number of points per batch           ...       63
Average number of grid points per atom       ...     4372
Initializing property integral containers    ... done (  0.0 sec)

SHARK setup successfully completed in   1.3 seconds

Maximum memory used throughout the entire STARTUP-calculation: 39.3 MB
-------------------------------------------------------------------------------
                                 ORCA GUESS
                   Start orbitals & Density for SCF / CASSCF
-------------------------------------------------------------------------------

------------
SCF SETTINGS
------------
Hamiltonian:
 Density Functional     Method          .... DFT(GTOs)
  Functional kind                       .... Exchange
  Functional name                       .... Re-regularized SCAN exchange by Furness et al
  Functional family                     .... MGGA
  Functional refs                              
    [ 0] J. W. Furness, A. D. Kaplan, J. Ning, J. P. Perdew, and J. Sun.,  J. Phys. Chem. Lett. 11, 8208-8215 (2020), doi: 10.1021/acs.jpclett.0c02405
    [ 1] J. W. Furness, A. D. Kaplan, J. Ning, J. P. Perdew, and J. Sun.,  J. Phys. Chem. Lett. 11, 9248-9248 (2020), doi: 10.1021/acs.jpclett.0c03077
  Functional external parameters        .... 6
    Parameter  0 _c1        =  6.670000e-01 : c1 parameter        
    Parameter  1 _c2        =  8.000000e-01 : c2 parameter        
    Parameter  2 _d         =  1.240000e+00 : d parameter         
    Parameter  3 _k1        =  6.500000e-02 : k1 parameter        
    Parameter  4 _eta       =  1.000000e-03 : eta parameter       
    Parameter  5 _dp2       =  3.610000e-01 : dp2 parameter       
  Functional kind                       .... Correlation
  Functional name                       .... Re-regularized SCAN correlation by Furness et al
  Functional family                     .... MGGA
  Functional refs                              
    [ 0] J. W. Furness, A. D. Kaplan, J. Ning, J. P. Perdew, and J. Sun.,  J. Phys. Chem. Lett. 11, 8208-8215 (2020), doi: 10.1021/acs.jpclett.0c02405
    [ 1] J. W. Furness, A. D. Kaplan, J. Ning, J. P. Perdew, and J. Sun.,  J. Phys. Chem. Lett. 11, 9248-9248 (2020), doi: 10.1021/acs.jpclett.0c03077
  Functional external parameters        .... 1
    Parameter  0 _eta       =  1.000000e-03 : Regularization parameter
 Gradients option       PostSCFGGA      .... off
 RI-approximation to the Coulomb term is turned on
   Number of AuxJ basis functions       .... 524


General Settings:
 Integral files         IntName         .... sp_gas
 Hartree-Fock type      HFTyp           .... RHF
 Total Charge           Charge          ....    0
 Multiplicity           Mult            ....    1
 Number of Electrons    NEL             ....   64
 Basis Dimension        Dim             ....  222
 Nuclear Repulsion      ENuc            ....    390.7206722685 Eh

Convergence Acceleration:
 AO-DIIS                CNVDIIS         .... on
   Start iteration      DIISMaxIt       ....    12
   Startup error        DIISStart       ....  0.200000
   # of expansion vecs  DIISMaxEq       ....     5
   Bias factor          DIISBfac        ....   1.050
   Max. coefficient     DIISMaxC        ....  10.000
 MO-DIIS                CNVKDIIS        .... off
 Trust-Rad. Augm. Hess. CNVTRAH         .... auto
   Auto Start mean grad. ratio tolernc. ....  1.125000
   Auto Start start iteration           ....     1
   Auto Start num. interpolation iter.  ....    10
   Max. Number of Micro iterations      ....    24
   Max. Number of Macro iterations      .... Maxiter - #DIIS iter
   Number of Davidson start vectors     ....     2
   Converg. threshold    (grad. norm)   ....   3.330e-04
   Grad. Scal. Fac. for Micro threshold ....   0.100
   Minimum threshold for Micro iter.    ....   1.000e-02
   NR start threshold (gradient norm)   ....   1.000e-04
   Initial trust radius                 ....   0.400
   Minimum AH scaling param. (alpha)    ....   1.000
   Maximum AH scaling param. (alpha)    .... 1000.000
   Quad. conv. algorithm                .... NR
   White noise on init. David. guess    .... on
   Maximum white noise                  ....   0.010
   Pseudo random numbers                .... off
   Inactive MOs                         .... canonical
   Orbital update algorithm             .... Taylor
   Preconditioner                       .... Diag
   Full preconditioner red. dimension   ....   250
   COSX micro iterations for RIJONX calc.... off
 SOSCF                  CNVSOSCF        .... on
   Start iteration      SOSCFMaxIt      ....   150
   Startup grad/error   SOSCFStart      ....  0.003300
   Hessian update       SOSCFHessUp     .... L-BFGS
 Level Shifting         CNVShift        .... on
   Level shift para.    LevelShift      ....    0.2500
   Turn off err/grad.   ShiftErr        ....    0.0010
 Zerner damping         CNVZerner       .... off
 Static damping         CNVDamp         .... on
   Fraction old density DampFac         ....    0.7000
   Max. Damping (<1)    DampMax         ....    0.9800
   Min. Damping (>=0)   DampMin         ....    0.0000
   Turn off err/grad.   DampErr         ....    0.1000

SCF Procedure:
 Maximum # iterations   MaxIter         ....   125
 SCF integral mode      SCFMode         .... Direct
   Integral package                     .... SHARK and LIBINT hybrid scheme
 Reset frequency        DirectResetFreq ....    20
 Integral Threshold     Thresh          ....  1.000e-10 Eh
 Primitive CutOff       TCut            ....  1.000e-11 Eh

Convergence Tolerance:
 Convergence Check Mode ConvCheckMode   .... Total+1el-Energy
 Convergence forced     ConvForced      .... 0
 Energy Change          TolE            ....  1.000e-06 Eh
 1-El. energy change                    ....  1.000e-03 Eh
 Orbital Gradient       TolG            ....  3.330e-04
 Orbital Rotation angle TolX            ....  3.330e-04
 DIIS Error             TolErr          ....  1.000e-06

---------------------
INITIAL GUESS: MOREAD
---------------------
Guess MOs are being read from file: sp_gas.ges
Input Geometry matches current geometry (good)
Atom 0: N(Shells)= 9 and 6 - projection required
Input basis set needs projection
NBasis(read)= 136
NBasis(calc)= 222
Basis set overlap was calculated
Using GuessMode=FMatrix for the initial guess
C*T matrix was formed
Effective Fockian was calculated
Effective Fockian was diagonalized
Initial density was built
                      ------------------
                      INITIAL GUESS DONE (   0.0 sec)
                      ------------------
             **** ENERGY FILE WAS UPDATED (sp_gas.en.tmp) ****
Finished Guess after   0.3 sec
Maximum memory used throughout the entire GUESS-calculation: 15.0 MB

-------------------------------------------------------------------------------------------
                                      ORCA LEAN-SCF
                              memory conserving SCF solver
-------------------------------------------------------------------------------------------

----------------------------------------D-I-I-S--------------------------------------------
Iteration    Energy (Eh)           Delta-E    RMSDP     MaxDP     DIISErr   Damp  Time(sec)
-------------------------------------------------------------------------------------------
               ***  Starting incremental Fock matrix formation  ***
    1    -386.0470551760836315     0.00e+00  3.99e-03  1.76e-01  6.26e-01  0.700   3.1
    2    -386.1049125311227499    -5.79e-02  3.16e-03  1.04e-01  4.40e-01  0.700   2.8
    3    -386.1457993976289345    -4.09e-02  2.30e-03  6.45e-02  3.08e-01  0.700   2.7
    4    -386.1745018186992411    -2.87e-02  1.64e-03  4.21e-02  2.16e-01  0.700   2.6
                               ***Turning on AO-DIIS***
    5    -386.1946330356523731    -2.01e-02  1.18e-03  3.01e-02  1.51e-01  0.700   2.6
    6    -386.2087434292708394    -1.41e-02  8.32e-04  2.13e-02  1.06e-01  0.700   2.7
    7    -386.2186344405474756    -9.89e-03  5.86e-04  1.50e-02  7.40e-02  0.700   2.7
    8    -386.2255640098758249    -6.93e-03  1.37e-03  3.51e-02  5.19e-02  0.000   2.5
                              *** Initializing SOSCF ***
---------------------------------------S-O-S-C-F--------------------------------------
Iteration    Energy (Eh)           Delta-E    RMSDP     MaxDP     MaxGrad    Time(sec)
--------------------------------------------------------------------------------------
    9    -386.2417533010203670    -1.62e-02  8.14e-06  2.82e-04  9.86e-05     2.6
               *** Restarting incremental Fock matrix formation ***
   10    -386.2417533923825204    -9.14e-08  5.32e-06  1.04e-04  4.47e-05     3.2
                  *** Gradient check signals convergence ***

               *****************************************************
               *                     SUCCESS                       *
               *           SCF CONVERGED AFTER  10 CYCLES          *
               *****************************************************

             **** ENERGY FILE WAS UPDATED (sp_gas.en.tmp) ****

----------------
TOTAL SCF ENERGY
----------------

Total Energy       :       -386.24175339238252 Eh          -10510.17244 eV

Components:
Nuclear Repulsion  :        390.72067226852130 Eh           10632.05002 eV
Electronic Energy  :       -776.96242566090382 Eh          -21142.22245 eV
One Electron Energy:      -1298.59192854784851 Eh          -35336.48285 eV
Two Electron Energy:        521.62950288694469 Eh           14194.26040 eV

Virial components:
Potential Energy   :       -770.88616109974623 Eh          -20976.87889 eV
Kinetic Energy     :        384.64440770736365 Eh           10466.70645 eV
Virial Ratio       :          2.00415278541170

DFT components:
N(Alpha)           :       31.999947999627 electrons
N(Beta)            :       31.999947999627 electrons
N(Total)           :       63.999895999254 electrons
E(X)               :      -52.080130702101 Eh       
E(C)               :       -2.037662100680 Eh       
E(XC)              :      -54.117792802781 Eh       

---------------
SCF CONVERGENCE
---------------

  Last Energy change         ...    9.1362e-08  Tolerance :   1.0000e-06
  Last MAX-Density change    ...    1.0436e-04  Tolerance :   1.0000e-05
  Last RMS-Density change    ...    5.3183e-06  Tolerance :   1.0000e-06
  Last DIIS Error            ...    9.8609e-05  Tolerance :   1.0000e-06
  Last Orbital Gradient      ...    4.4725e-05  Tolerance :   3.3300e-04
  Last Orbital Rotation      ...    1.7359e-04  Tolerance :   3.3300e-04


----------------
ORBITAL ENERGIES
----------------

  NO   OCC          E(Eh)            E(eV) 
   0   2.0000     -18.996967      -516.9337 
   1   2.0000     -18.924751      -514.9687 
   2   2.0000     -10.151282      -276.2304 
   3   2.0000     -10.091465      -274.6027 
   4   2.0000     -10.041879      -273.2534 
   5   2.0000     -10.032904      -273.0092 
   6   2.0000     -10.028669      -272.8940 
   7   2.0000     -10.021639      -272.7026 
   8   2.0000      -1.071668       -29.1616 
   9   2.0000      -0.972785       -26.4708 
  10   2.0000      -0.774868       -21.0852 
  11   2.0000      -0.738093       -20.0845 
  12   2.0000      -0.680379       -18.5141 
  13   2.0000      -0.621870       -16.9219 
  14   2.0000      -0.569676       -15.5017 
  15   2.0000      -0.523866       -14.2551 
  16   2.0000      -0.474059       -12.8998 
  17   2.0000      -0.455413       -12.3924 
  18   2.0000      -0.442184       -12.0324 
  19   2.0000      -0.417865       -11.3707 
  20   2.0000      -0.411090       -11.1863 
  21   2.0000      -0.386746       -10.5239 
  22   2.0000      -0.375280       -10.2119 
  23   2.0000      -0.368543       -10.0286 
  24   2.0000      -0.347077        -9.4445 
  25   2.0000      -0.335668        -9.1340 
  26   2.0000      -0.332115        -9.0373 
  27   2.0000      -0.319194        -8.6857 
  28   2.0000      -0.308189        -8.3862 
  29   2.0000      -0.301020        -8.1912 
  30   2.0000      -0.270158        -7.3514 
  31   2.0000      -0.230934        -6.2840 
  32   0.0000      -0.012432        -0.3383 
  33   0.0000       0.074420         2.0251 
  34   0.0000       0.091005         2.4764 
  35   0.0000       0.106364         2.8943 
  36   0.0000       0.120078         3.2675 
  37   0.0000       0.123976         3.3736 
  38   0.0000       0.137896         3.7523 
  39   0.0000       0.143497         3.9048 
  40   0.0000       0.149460         4.0670 
  41   0.0000       0.153320         4.1721 
  42   0.0000       0.163958         4.4615 
*Only the first 10 virtual orbitals were printed.

                    ********************************
                    * MULLIKEN POPULATION ANALYSIS *
                    ********************************

-----------------------
MULLIKEN ATOMIC CHARGES
-----------------------
   0 C :   -0.466942
   1 C :   -0.231877
   2 C :   -0.345868
   3 C :    0.371291
   4 O :   -0.424531
   5 O :   -0.155398
   6 C :   -0.139282
   7 C :   -0.465285
   8 H :    0.148867
   9 H :    0.143192
  10 H :    0.141696
  11 H :    0.153655
  12 H :    0.143337
  13 H :    0.168989
  14 H :    0.170487
  15 H :    0.168266
  16 H :    0.147930
  17 H :    0.146893
  18 H :    0.150739
  19 H :    0.173843
Sum of atomic charges:    0.0000000

--------------------------------
MULLIKEN REDUCED ORBITAL CHARGES
--------------------------------
  0 C s       :     3.328788  s :     3.328788
      pz      :     1.088671  p :     3.111075
      px      :     0.945830
      py      :     1.076574
      dz2     :     0.004637  d :     0.027079
      dxz     :     0.004373
      dyz     :     0.006004
      dx2y2   :     0.004815
      dxy     :     0.007250

  1 C s       :     3.202204  s :     3.202204
      pz      :     0.982487  p :     2.992891
      px      :     0.945385
      py      :     1.065020
      dz2     :     0.007562  d :     0.036782
      dxz     :     0.006083
      dyz     :     0.008091
      dx2y2   :     0.006609
      dxy     :     0.008437

  2 C s       :     3.255128  s :     3.255128
      pz      :     1.018283  p :     3.055528
      px      :     0.957573
      py      :     1.079673
      dz2     :     0.008188  d :     0.035212
      dxz     :     0.004448
      dyz     :     0.007649
      dx2y2   :     0.007815
      dxy     :     0.007112

  3 C s       :     3.132327  s :     3.132327
      pz      :     0.758347  p :     2.371271
      px      :     0.846744
      py      :     0.766179
      dz2     :     0.023053  d :     0.125111
      dxz     :     0.017710
      dyz     :     0.023122
      dx2y2   :     0.029640
      dxy     :     0.031586

  4 O s       :     3.838413  s :     3.838413
      pz      :     1.486912  p :     4.565598
      px      :     1.705215
      py      :     1.373471
      dz2     :     0.003898  d :     0.020520
      dxz     :     0.003403
      dyz     :     0.006270
      dx2y2   :     0.005300
      dxy     :     0.001648

  5 O s       :     3.698835  s :     3.698835
      pz      :     1.560177  p :     4.432967
      px      :     1.239029
      py      :     1.633760
      dz2     :     0.008707  d :     0.023596
      dxz     :    -0.000655
      dyz     :     0.006625
      dx2y2   :     0.004418
      dxy     :     0.004501

  6 C s       :     3.254155  s :     3.254155
      pz      :     1.026623  p :     2.831559
      px      :     0.711252
      py      :     1.093683
      dz2     :     0.011458  d :     0.053568
      dxz     :     0.011437
      dyz     :     0.005220
      dx2y2   :     0.016381
      dxy     :     0.009072

  7 C s       :     3.322440  s :     3.322440
      pz      :     1.022212  p :     3.117211
      px      :     1.034231
      py      :     1.060768
      dz2     :     0.006817  d :     0.025633
      dxz     :     0.004580
      dyz     :     0.004524
      dx2y2   :     0.007263
      dxy     :     0.002448

  8 H s       :     0.832792  s :     0.832792
      pz      :     0.008026  p :     0.018342
      px      :     0.004737
      py      :     0.005579

  9 H s       :     0.838542  s :     0.838542
      pz      :     0.003853  p :     0.018267
      px      :     0.005871
      py      :     0.008542

 10 H s       :     0.840020  s :     0.840020
      pz      :     0.008539  p :     0.018284
      px      :     0.003691
      py      :     0.006053

 11 H s       :     0.828343  s :     0.828343
      pz      :     0.003592  p :     0.018002
      px      :     0.005778
      py      :     0.008632

 12 H s       :     0.838770  s :     0.838770
      pz      :     0.008754  p :     0.017893
      px      :     0.003488
      py      :     0.005651

 13 H s       :     0.813199  s :     0.813199
      pz      :     0.003726  p :     0.017813
      px      :     0.005236
      py      :     0.008851

 14 H s       :     0.811357  s :     0.811357
      pz      :     0.008712  p :     0.018156
      px      :     0.003562
      py      :     0.005882

 15 H s       :     0.813880  s :     0.813880
      pz      :     0.003376  p :     0.017854
      px      :     0.002425
      py      :     0.012053

 16 H s       :     0.834697  s :     0.834697
      pz      :     0.010174  p :     0.017373
      px      :     0.002554
      py      :     0.004645

 17 H s       :     0.834615  s :     0.834615
      pz      :     0.003929  p :     0.018492
      px      :     0.010709
      py      :     0.003854

 18 H s       :     0.831049  s :     0.831049
      pz      :     0.003626  p :     0.018212
      px      :     0.003805
      py      :     0.010780

 19 H s       :     0.807953  s :     0.807953
      pz      :     0.009513  p :     0.018204
      px      :     0.003784
      py      :     0.004907


------------------------
MULLIKEN OVERLAP CHARGES
------------------------
B(  0-C ,  1-C ) :   0.4473 B(  0-C ,  2-C ) :  -0.1952 B(  0-C ,  8-H ) :   0.8074 
B(  0-C ,  9-H ) :   0.8442 B(  0-C , 10-H ) :   0.8595 B(  0-C , 11-H ) :  -0.0611 
B(  0-C , 12-H ) :  -0.0581 B(  1-C ,  2-C ) :   0.2734 B(  1-C ,  3-C ) :  -0.0665 
B(  1-C ,  5-O ) :   0.1052 B(  1-C ,  8-H ) :  -0.0793 B(  1-C ,  9-H ) :  -0.0844 
B(  1-C , 10-H ) :  -0.1025 B(  1-C , 11-H ) :   0.8249 B(  1-C , 12-H ) :   0.8311 
B(  1-C , 13-H ) :  -0.0828 B(  1-C , 14-H ) :  -0.0725 B(  2-C ,  3-C ) :   0.5463 
B(  2-C ,  4-O ) :  -0.1983 B(  2-C ,  5-O ) :  -0.2338 B(  2-C , 12-H ) :  -0.0697 
B(  2-C , 13-H ) :   0.9046 B(  2-C , 14-H ) :   0.7630 B(  3-C ,  4-O ) :   1.0599 
B(  3-C ,  5-O ) :   0.3731 B(  3-C ,  6-C ) :  -0.1727 B(  3-C , 13-H ) :  -0.1163 
B(  4-O ,  5-O ) :  -0.2311 B(  5-O ,  6-C ) :   0.3010 B(  5-O ,  7-C ) :  -0.1040 
B(  5-O , 15-H ) :  -0.0622 B(  5-O , 16-H ) :  -0.0976 B(  6-C ,  7-C ) :   0.5325 
B(  6-C , 15-H ) :   0.8646 B(  6-C , 16-H ) :   0.8023 B(  6-C , 17-H ) :  -0.0653 
B(  6-C , 18-H ) :  -0.0687 B(  6-C , 19-H ) :  -0.0878 B(  7-C , 15-H ) :  -0.0781 
B(  7-C , 16-H ) :  -0.0537 B(  7-C , 17-H ) :   0.7969 B(  7-C , 18-H ) :   0.8292 
B(  7-C , 19-H ) :   0.8456 B(  9-H , 10-H ) :  -0.0541 


                     *******************************
                     * LOEWDIN POPULATION ANALYSIS *
                     *******************************

----------------------
LOEWDIN ATOMIC CHARGES
----------------------
   0 C :   -0.422020
   1 C :   -0.296269
   2 C :   -0.228193
   3 C :    0.362088
   4 O :   -0.437522
   5 O :   -0.603544
   6 C :    0.029385
   7 C :   -0.390425
   8 H :    0.152187
   9 H :    0.150691
  10 H :    0.150331
  11 H :    0.164700
  12 H :    0.157134
  13 H :    0.180912
  14 H :    0.182558
  15 H :    0.188774
  16 H :    0.177456
  17 H :    0.159275
  18 H :    0.156654
  19 H :    0.165829

-------------------------------
LOEWDIN REDUCED ORBITAL CHARGES
-------------------------------
  0 C s       :     2.972302  s :     2.972302
      pz      :     1.154547  p :     3.386191
      px      :     1.080504
      py      :     1.151140
      dz2     :     0.011479  d :     0.063527
      dxz     :     0.009161
      dyz     :     0.015269
      dx2y2   :     0.011171
      dxy     :     0.016447

  1 C s       :     2.933580  s :     2.933580
      pz      :     1.092572  p :     3.282582
      px      :     1.067004
      py      :     1.123006
      dz2     :     0.016859  d :     0.080108
      dxz     :     0.011917
      dyz     :     0.018771
      dx2y2   :     0.014558
      dxy     :     0.018004

  2 C s       :     2.922245  s :     2.922245
      pz      :     1.098622  p :     3.231611
      px      :     1.015551
      py      :     1.117438
      dz2     :     0.016624  d :     0.074337
      dxz     :     0.008877
      dyz     :     0.017406
      dx2y2   :     0.015169
      dxy     :     0.016262

  3 C s       :     2.734560  s :     2.734560
      pz      :     0.794060  p :     2.631145
      px      :     0.956962
      py      :     0.880123
      dz2     :     0.045395  d :     0.272207
      dxz     :     0.036531
      dyz     :     0.058048
      dx2y2   :     0.062740
      dxy     :     0.069493

  4 O s       :     3.550517  s :     3.550517
      pz      :     1.494705  p :     4.669903
      px      :     1.701707
      py      :     1.473491
      dz2     :     0.032337  d :     0.217102
      dxz     :     0.029520
      dyz     :     0.051086
      dx2y2   :     0.047034
      dxy     :     0.057125

  5 O s       :     3.459489  s :     3.459489
      pz      :     1.614653  p :     4.657317
      px      :     1.396576
      py      :     1.646088
      dz2     :     0.070009  d :     0.486738
      dxz     :     0.126506
      dyz     :     0.057498
      dx2y2   :     0.122132
      dxy     :     0.110594

  6 C s       :     2.869487  s :     2.869487
      pz      :     1.066216  p :     2.980752
      px      :     0.820954
      py      :     1.093583
      dz2     :     0.025637  d :     0.120376
      dxz     :     0.026033
      dyz     :     0.010588
      dx2y2   :     0.037750
      dxy     :     0.020368

  7 C s       :     2.974064  s :     2.974064
      pz      :     1.116013  p :     3.355942
      px      :     1.100960
      py      :     1.138968
      dz2     :     0.016170  d :     0.060419
      dxz     :     0.010117
      dyz     :     0.010503
      dx2y2   :     0.018385
      dxy     :     0.005244

  8 H s       :     0.804271  s :     0.804271
      pz      :     0.019728  p :     0.043542
      px      :     0.010875
      py      :     0.012938

  9 H s       :     0.805901  s :     0.805901
      pz      :     0.008425  p :     0.043408
      px      :     0.013750
      py      :     0.021233

 10 H s       :     0.806296  s :     0.806296
      pz      :     0.020897  p :     0.043374
      px      :     0.008199
      py      :     0.014277

 11 H s       :     0.791787  s :     0.791787
      pz      :     0.008251  p :     0.043513
      px      :     0.013961
      py      :     0.021301

 12 H s       :     0.799922  s :     0.799922
      pz      :     0.021178  p :     0.042944
      px      :     0.008048
      py      :     0.013718

 13 H s       :     0.775766  s :     0.775766
      pz      :     0.008839  p :     0.043323
      px      :     0.012231
      py      :     0.022252

 14 H s       :     0.773185  s :     0.773185
      pz      :     0.021726  p :     0.044257
      px      :     0.008324
      py      :     0.014207

 15 H s       :     0.768200  s :     0.768200
      pz      :     0.007716  p :     0.043027
      px      :     0.005767
      py      :     0.029544

 16 H s       :     0.782746  s :     0.782746
      pz      :     0.023644  p :     0.039798
      px      :     0.004978
      py      :     0.011175

 17 H s       :     0.796699  s :     0.796699
      pz      :     0.009081  p :     0.044026
      px      :     0.026398
      py      :     0.008548

 18 H s       :     0.799873  s :     0.799873
      pz      :     0.008182  p :     0.043473
      px      :     0.008389
      py      :     0.026903

 19 H s       :     0.790011  s :     0.790011
      pz      :     0.024065  p :     0.044160
      px      :     0.008485
      py      :     0.011611


---------------------------------
LOEWDIN BOND ORDERS (THRESH 0.050000)
---------------------------------
B(  0-C ,  1-C ) :   1.1432 B(  0-C ,  2-C ) :   0.0768 B(  0-C ,  8-H ) :   0.9288 
B(  0-C ,  9-H ) :   0.9279 B(  0-C , 10-H ) :   0.9289 B(  1-C ,  2-C ) :   1.0813 
B(  1-C ,  3-C ) :   0.0698 B(  1-C ,  5-O ) :   0.0664 B(  1-C , 11-H ) :   0.8834 
B(  1-C , 12-H ) :   0.8911 B(  2-C ,  3-C ) :   0.9268 B(  2-C ,  4-O ) :   0.1880 
B(  2-C ,  5-O ) :   0.1695 B(  2-C , 13-H ) :   0.8669 B(  2-C , 14-H ) :   0.8603 
B(  3-C ,  4-O ) :   2.1674 B(  3-C ,  5-O ) :   1.4499 B(  3-C ,  6-C ) :   0.0831 
B(  4-O ,  5-O ) :   0.4627 B(  4-O ,  6-C ) :   0.0658 B(  5-O ,  6-C ) :   1.3052 
B(  5-O ,  7-C ) :   0.1563 B(  5-O , 15-H ) :   0.0915 B(  5-O , 16-H ) :   0.0970 
B(  6-C ,  7-C ) :   1.0833 B(  6-C , 15-H ) :   0.8180 B(  6-C , 16-H ) :   0.8335 
B(  6-C , 17-H ) :   0.0500 B(  7-C , 17-H ) :   0.9187 B(  7-C , 18-H ) :   0.9253 
B(  7-C , 19-H ) :   0.9193 

------------------------------------------
LOEWDIN REDUCED ORBITAL POPULATIONS PER MO
-------------------------------------------
THRESHOLD FOR PRINTING IS 0.1%%
                      0         1         2         3         4         5   
                 -18.99697 -18.92475 -10.15128 -10.09147 -10.04188 -10.03290
                   2.00000   2.00000   2.00000   2.00000   2.00000   2.00000
                  --------  --------  --------  --------  --------  --------
 1 C  s               0.0       0.0       0.0       0.0       0.0      99.7
 2 C  s               0.0       0.0       0.0       0.0      99.7       0.0
 3 C  s               0.0       0.0      98.9       0.0       0.0       0.0
 4 O  s               0.0      99.9       0.0       0.0       0.0       0.0
 4 O  py              0.0       0.0       0.1       0.0       0.0       0.0
 4 O  dyz             0.0       0.0       0.1       0.0       0.0       0.0
 4 O  dxy             0.0       0.0       0.1       0.0       0.0       0.0
 5 O  s              99.9       0.0       0.0       0.0       0.0       0.0
 5 O  px              0.0       0.0       0.0       0.1       0.0       0.0
 5 O  dyz             0.0       0.0       0.1       0.0       0.0       0.0
 5 O  dx2y2           0.0       0.0       0.0       0.2       0.0       0.0
 6 C  s               0.0       0.0       0.0      99.4       0.0       0.0

                      6         7         8         9        10        11   
                 -10.02867 -10.02164  -1.07167  -0.97278  -0.77487  -0.73809
                   2.00000   2.00000   2.00000   2.00000   2.00000   2.00000
                  --------  --------  --------  --------  --------  --------
 0 C  s               0.0      99.7       0.0       0.0       8.3       6.3
 0 C  px              0.0       0.0       0.0       0.0       2.2       0.7
 0 C  py              0.0       0.0       0.0       0.0       0.2       0.1
 1 C  s               0.0       0.0       0.1       0.0      19.3       6.8
 1 C  pz              0.0       0.0       0.0       0.0       1.5       0.1
 1 C  px              0.0       0.1       0.3       0.0       0.0       0.9
 1 C  py              0.0       0.0       0.0       0.0       0.3       0.0
 2 C  s               0.0       0.0       1.0       0.3      19.8       1.4
 2 C  pz              0.0       0.0       0.1       0.1       1.3       0.2
 2 C  px              0.0       0.0       1.8       0.3       0.1       1.3
 2 C  py              0.0       0.0       0.1       0.3       0.6       0.2
 3 C  s               0.0       0.0      15.9       4.5       2.7       0.9
 3 C  pz              0.0       0.0       0.9       7.6       0.2       0.9
 3 C  px              0.0       0.0       4.0       0.2       6.5       0.2
 3 C  py              0.0       0.0       0.2      15.2       2.0       1.1
 3 C  dxz             0.0       0.0       0.1       0.5       0.0       0.0
 3 C  dyz             0.0       0.0       0.9       0.2       0.0       0.1
 3 C  dx2y2           0.0       0.0       0.1       0.2       0.1       0.0
 3 C  dxy             0.0       0.0       0.0       1.0       0.0       0.1
 4 O  s               0.0       0.0      10.9      43.5       1.1       0.2
 4 O  pz              0.0       0.0       0.8       0.7       0.0       0.0
 4 O  px              0.0       0.0       0.2       0.9       0.2       0.0
 4 O  py              0.0       0.0       2.0       2.3       0.1       0.1
 4 O  dyz             0.0       0.0       1.0       0.1       0.0       0.1
 4 O  dx2y2           0.0       0.0       0.4       0.0       0.0       0.1
 4 O  dxy             0.0       0.0       0.0       0.1       0.4       0.0
 5 O  s               0.0       0.0      42.9      14.9       0.0       1.3
 5 O  pz              0.0       0.0       1.0       0.3       0.6       1.1
 5 O  px              0.0       0.0       0.0       0.5       5.6       7.7
 5 O  py              0.0       0.0       1.9       0.4       0.1       0.4
 5 O  dz2             0.0       0.0       0.0       0.0       0.0       0.4
 5 O  dxz             0.0       0.0       0.2       0.0       0.1       0.0
 5 O  dyz             0.0       0.0       0.5       0.8       0.0       0.0
 5 O  dx2y2           0.0       0.0       0.0       0.6       0.0       1.5
 5 O  dxy             0.0       0.0       0.0       0.1       0.2       0.1
 6 C  s               0.0       0.0       4.5       1.7       4.8      17.4
 6 C  pz              0.0       0.0       0.4       0.1       0.1       0.6
 6 C  px              0.0       0.0       5.1       1.3       0.1       2.1
 6 C  py              0.0       0.0       0.0       0.3       0.1       0.5
 6 C  dx2y2           0.0       0.0       0.3       0.1       0.0       0.0
 7 C  s              99.7       0.0       0.4       0.1       2.6      19.9
 7 C  pz              0.0       0.0       0.2       0.1       0.3       1.0
 7 C  px              0.0       0.0       0.6       0.1       0.2       0.4
 7 C  py              0.0       0.0       0.1       0.0       0.1       0.3
 8 H  s               0.0       0.0       0.0       0.0       1.0       1.0
 9 H  s               0.0       0.0       0.0       0.0       1.1       1.0
10 H  s               0.0       0.0       0.0       0.0       1.1       1.0
11 H  s               0.0       0.0       0.0       0.0       2.6       0.9
11 H  py              0.0       0.0       0.0       0.0       0.2       0.1
12 H  s               0.0       0.0       0.0       0.0       2.5       1.0
12 H  pz              0.0       0.0       0.0       0.0       0.2       0.1
13 H  s               0.0       0.0       0.1       0.0       2.6       0.3
13 H  py              0.0       0.0       0.0       0.0       0.2       0.0
14 H  s               0.0       0.0       0.0       0.0       2.8       0.2
14 H  pz              0.0       0.0       0.0       0.0       0.2       0.0
15 H  s               0.0       0.0       0.3       0.1       0.7       2.8
15 H  py              0.0       0.0       0.0       0.0       0.1       0.2
16 H  s               0.0       0.0       0.3       0.2       0.8       3.3
16 H  pz              0.0       0.0       0.0       0.0       0.1       0.2
17 H  s               0.0       0.0       0.0       0.0       0.4       3.4
17 H  px              0.0       0.0       0.0       0.0       0.0       0.3
18 H  s               0.0       0.0       0.0       0.0       0.4       3.2
18 H  py              0.0       0.0       0.0       0.0       0.0       0.3
19 H  s               0.0       0.0       0.0       0.0       0.3       3.1
19 H  pz              0.0       0.0       0.0       0.0       0.0       0.2

                     12        13        14        15        16        17   
                  -0.68038  -0.62187  -0.56968  -0.52387  -0.47406  -0.45541
                   2.00000   2.00000   2.00000   2.00000   2.00000   2.00000
                  --------  --------  --------  --------  --------  --------
 0 C  s              19.7       3.5       9.7       0.0       0.2       0.0
 0 C  pz              0.1       0.0       0.9       0.2       1.6       0.4
 0 C  px              0.1       0.5       8.2       0.0       0.7       0.6
 0 C  py              0.0       0.1       0.2       0.0       0.5       4.9
 0 C  dx2y2           0.0       0.0       0.1       0.0       0.0       0.0
 1 C  s               2.3       0.3      16.4       0.1       0.0       0.0
 1 C  pz              1.1       0.4       3.4       0.9       4.8       1.4
 1 C  px              6.9       1.0       4.3       0.0       0.6       1.1
 1 C  py              1.8       0.5       0.1       0.1       0.3      13.7
 2 C  s              11.7       4.3       2.3       1.1       1.2       0.1
 2 C  pz              0.6       0.2       7.1       1.5       1.7       4.5
 2 C  px              1.9       0.9       0.9       2.2      10.6       3.0
 2 C  py              0.5       0.1       2.4       0.0       1.5      15.1
 2 C  dyz             0.0       0.0       0.1       0.0       0.0       0.0
 2 C  dx2y2           0.0       0.0       0.0       0.0       0.1       0.0
 3 C  s               2.6       1.4       1.0       2.9       1.0       0.0
 3 C  pz              0.1       1.2       0.6       2.2       0.4       6.0
 3 C  px              6.2       1.4       2.3       0.2       9.2       0.6
 3 C  py              1.1       1.8       0.1       0.5       0.1       5.4
 4 O  s               1.2       0.2       0.9       1.6       0.0       0.3
 4 O  pz              0.0       0.1       0.0       1.6       0.3       3.4
 4 O  px              0.5       0.1       0.7       0.0       5.4       0.7
 4 O  py              0.3       0.3       0.4       1.0       0.2       0.5
 4 O  dz2             0.1       0.0       0.1       0.0       0.0       0.2
 4 O  dxz             0.1       0.0       0.0       0.0       0.3       0.1
 4 O  dyz             0.0       0.1       0.0       0.3       0.1       0.1
 4 O  dx2y2           0.0       0.2       0.0       0.0       0.1       0.3
 4 O  dxy             0.4       0.0       0.2       0.0       0.6       0.0
 5 O  s               0.9       0.1       0.1       4.7       1.0       0.1
 5 O  pz              0.6       6.5       0.0       2.2       6.1       5.5
 5 O  px              1.3      12.5       0.2       6.1       2.9       0.0
 5 O  py              0.0       0.7       0.0      10.2       7.9       5.2
 5 O  dz2             0.0       0.1       0.0       0.2       0.0       0.2
 5 O  dxz             0.2       0.5       0.4       0.6       0.9       0.1
 5 O  dx2y2           0.5       0.3       0.0       0.3       0.3       0.3
 5 O  dxy             0.2       0.3       0.1       0.2       1.1       0.2
 6 C  s               0.4       5.8       0.6       6.7       0.1       0.3
 6 C  pz              0.6       5.0       0.2       2.4       7.7       0.1
 6 C  px              2.6       3.8       0.0       8.6       0.4       1.0
 6 C  py              0.1       0.3       0.0       9.8       8.4       1.0
 6 C  dx2y2           0.0       0.0       0.0       0.4       0.0       0.0
 6 C  dxy             0.0       0.1       0.0       0.1       0.0       0.0
 7 C  s               7.3      15.0       0.3       1.4       0.0       0.3
 7 C  pz              0.0       1.7       0.2       3.5       1.9       1.1
 7 C  px              0.0       1.2       0.1       0.0       0.4       1.6
 7 C  py              0.0       0.4       0.1       3.8       2.7       0.1
 8 H  s               4.3       1.2       3.8       0.1       1.1       0.0
 8 H  pz              0.2       0.1       0.2       0.0       0.0       0.0
 9 H  s               3.9       0.9       4.7       0.0       0.0       1.5
 9 H  py              0.2       0.1       0.3       0.0       0.0       0.0
10 H  s               3.9       0.9       4.7       0.0       0.0       0.9
10 H  pz              0.2       0.1       0.2       0.0       0.0       0.0
10 H  py              0.1       0.0       0.1       0.0       0.0       0.0
11 H  s               0.4       0.0       7.2       0.1       0.5       4.0
11 H  px              0.0       0.0       0.1       0.0       0.0       0.1
11 H  py              0.0       0.0       0.4       0.0       0.0       0.1
12 H  s               0.5       0.1       7.4       0.3       0.6       2.2
12 H  pz              0.0       0.0       0.4       0.0       0.0       0.1
12 H  py              0.0       0.0       0.2       0.0       0.0       0.0
13 H  s               2.4       1.6       1.8       1.2       1.3       5.0
13 H  py              0.1       0.1       0.1       0.1       0.1       0.1
14 H  s               2.7       1.3       1.9       1.2       2.9       4.2
14 H  pz              0.2       0.1       0.0       0.0       0.1       0.1
15 H  s               0.1       1.5       0.2      10.3       1.9       0.0
15 H  py              0.0       0.1       0.0       0.6       0.1       0.0
16 H  s               0.0       3.0       0.3       3.6       5.0       0.3
16 H  pz              0.0       0.2       0.0       0.1       0.2       0.0
16 H  py              0.0       0.1       0.0       0.1       0.0       0.0
17 H  s               1.8       4.9       0.1       0.2       0.2       0.7
17 H  px              0.1       0.3       0.0       0.0       0.0       0.0
18 H  s               1.5       4.3       0.1       2.5       0.6       0.2
18 H  py              0.1       0.3       0.0       0.1       0.0       0.0
19 H  s               1.5       4.6       0.2       1.1       1.0       0.4
19 H  pz              0.1       0.3       0.0       0.0       0.0       0.0

                     18        19        20        21        22        23   
                  -0.44218  -0.41786  -0.41109  -0.38675  -0.37528  -0.36854
                   2.00000   2.00000   2.00000   2.00000   2.00000   2.00000
                  --------  --------  --------  --------  --------  --------
 0 C  pz              3.9       0.5       3.6      17.4       7.6       0.6
 0 C  px              0.0       0.6       2.2       0.4       0.0       3.6
 0 C  py              0.0      10.6       0.9       0.4      10.3       8.2
 0 C  dyz             0.0       0.0       0.0       0.1       0.0       0.0
 1 C  s               0.3       0.0       0.2       0.0       0.1       0.0
 1 C  pz              6.1       0.5       3.2       5.7       1.0       0.0
 1 C  px              0.3       1.1       1.0       3.3       0.0       0.7
 1 C  py              0.0      10.9       0.0       0.2       1.3       1.5
 2 C  s               0.2       0.0       0.1       0.1       0.5       0.0
 2 C  pz              0.0       0.7       0.0      14.6       1.0       0.1
 2 C  px              3.1       0.8       4.3       0.7       0.7       3.1
 2 C  py              2.5       0.4       0.6       0.0       2.3      10.5
 2 C  dyz             0.0       0.0       0.0       0.1       0.0       0.0
 3 C  s               2.4       0.2       0.9       0.1       0.2       0.1
 3 C  pz              4.8       1.1       0.1       1.9       4.0       0.1
 3 C  px              0.2       0.8       5.9       2.1       0.1       0.2
 3 C  py              0.7       4.5       1.3       0.5       0.9       0.6
 3 C  dyz             0.1       0.0       0.0       0.0       0.0       0.0
 3 C  dx2y2           0.2       0.0       0.0       0.0       0.0       0.0
 3 C  dxy             0.0       0.1       0.0       0.0       0.0       0.2
 4 O  s               8.8       2.3       4.0       0.0       1.1       0.0
 4 O  pz              0.9       5.1       6.0       0.9       0.5       0.2
 4 O  px              4.7       3.1       0.6       0.3       2.4       1.2
 4 O  py             16.0       1.0      11.1       1.6       7.3       0.1
 4 O  dz2             0.3       0.1       0.1       0.0       0.1       0.0
 4 O  dxz             0.0       0.0       0.0       0.1       0.0       0.0
 4 O  dyz             0.0       0.1       0.1       0.0       0.1       0.0
 4 O  dx2y2           0.1       0.1       0.3       0.1       0.0       0.1
 4 O  dxy             0.1       0.1       0.0       0.0       0.1       0.0
 5 O  s               1.2       0.0       0.5       0.4       0.7       0.9
 5 O  pz              5.4      11.7       0.9       0.1       0.9       1.3
 5 O  px             11.2       1.0       0.1       0.0       0.2       0.0
 5 O  py              0.0       5.9       2.0       0.1       4.9       3.0
 5 O  dz2             0.0       0.1       0.1       0.7       0.3       0.0
 5 O  dxz             0.1       0.0       0.2       0.2       0.1       0.4
 5 O  dyz             0.1       0.0       0.1       0.0       0.1       0.0
 5 O  dx2y2           0.1       0.3       0.2       0.4       0.0       0.0
 5 O  dxy             0.1       0.1       0.6       0.2       0.1       0.0
 6 C  s               0.2       0.3       0.0       0.2       0.1       0.1
 6 C  pz              6.5       0.7       4.3       3.0       0.1       4.7
 6 C  px              1.8       4.2       0.2       0.2       0.1       2.6
 6 C  py              0.2       3.8       7.6       0.4       0.4       1.5
 6 C  dxy             0.0       0.0       0.1       0.0       0.1       0.0
 7 C  s               0.1       0.3       0.0       0.1       0.0       0.1
 7 C  pz              0.5       5.3       5.3       0.4       0.6      10.1
 7 C  px              6.1       4.3       0.3      14.7       8.3       2.1
 7 C  py              0.1       0.0      11.1       0.1      11.6       9.5
 7 C  dx2y2           0.0       0.0       0.0       0.1       0.2       0.2
 8 H  s               0.6       0.2       2.8       3.0       6.5       0.0
 9 H  s               0.0       3.3       0.0       0.1       4.5       5.2
 9 H  pz              0.0       0.0       0.0       0.1       0.0       0.0
10 H  s               0.9       2.0       0.1       6.8       0.1       1.9
10 H  py              0.0       0.0       0.0       0.1       0.1       0.0
11 H  s               0.1       3.4       0.2       0.0       0.2       0.2
12 H  s               2.0       1.8       0.5       1.1       0.0       0.4
13 H  s               0.0       0.3       0.0       0.8       3.1       6.4
14 H  s               0.6       0.4       0.0       5.5       0.2       2.5
14 H  py              0.0       0.0       0.0       0.1       0.0       0.0
15 H  s               0.2       0.4       2.9       0.0       0.0       0.7
16 H  s               1.9       0.5       3.7       0.4       0.1       1.0
16 H  pz              0.0       0.0       0.1       0.0       0.0       0.0
17 H  s               2.6       1.6       0.1       7.4       5.0       3.2
17 H  px              0.1       0.0       0.0       0.1       0.1       0.1
18 H  s               0.0       0.1       3.4       0.4       7.1       6.5
18 H  py              0.0       0.0       0.1       0.0       0.2       0.1
19 H  s               0.2       1.5       4.6       0.4       1.0       2.0
19 H  pz              0.0       0.0       0.1       0.0       0.0       0.0
19 H  py              0.0       0.0       0.0       0.0       0.0       0.2

                     24        25        26        27        28        29   
                  -0.34708  -0.33567  -0.33211  -0.31919  -0.30819  -0.30102
                   2.00000   2.00000   2.00000   2.00000   2.00000   2.00000
                  --------  --------  --------  --------  --------  --------
 0 C  s               0.1       0.0       0.4       0.3       0.0       0.0
 0 C  pz              0.4       6.4       0.2       8.0       5.7       0.0
 0 C  px             13.3       0.0      14.1       4.1       0.6       0.6
 0 C  py              0.0       5.3       6.6       2.6       1.2       5.1
 0 C  dz2             0.0       0.1       0.1       0.0       0.1       0.1
 0 C  dxz             0.0       0.0       0.1       0.1       0.1       0.0
 0 C  dyz             0.0       0.1       0.0       0.1       0.2       0.0
 0 C  dx2y2           0.1       0.0       0.1       0.0       0.0       0.0
 0 C  dxy             0.0       0.0       0.0       0.3       0.0       0.3
 1 C  s               0.0       0.0       0.2       0.5       0.0       0.0
 1 C  pz              0.0       1.3       0.2      11.8      10.3       0.0
 1 C  px             10.3       0.4      13.2       4.0       1.2       1.3
 1 C  py              0.8       1.9       2.5       4.0       3.7      11.8
 1 C  dz2             0.0       0.0       0.1       0.0       0.2       0.2
 1 C  dxz             0.1       0.0       0.0       0.2       0.0       0.0
 1 C  dyz             0.0       0.0       0.0       0.1       0.5       0.1
 1 C  dx2y2           0.0       0.1       0.2       0.1       0.0       0.0
 1 C  dxy             0.0       0.0       0.0       0.4       0.0       0.2
 2 C  s               0.4       0.0       0.4       0.9       0.1       0.0
 2 C  pz              1.0       1.8       0.9      10.9       6.2       0.0
 2 C  px              1.0       0.3       5.2       0.8       2.1       0.4
 2 C  py              4.6       3.6       0.1       3.2       1.2       4.2
 2 C  dz2             0.1       0.0       0.1       0.0       0.1       0.1
 2 C  dyz             0.0       0.0       0.0       0.0       0.3       0.1
 2 C  dx2y2           0.0       0.0       0.1       0.1       0.0       0.0
 2 C  dxy             0.0       0.0       0.1       0.2       0.0       0.0
 3 C  s               0.0       0.0       0.3       0.2       0.1       0.1
 3 C  pz              0.5       4.1       0.1       0.0       1.1       0.8
 3 C  px              0.1       0.1       5.5       0.6       0.1       0.1
 3 C  py              0.3       4.1       0.7       0.4       0.3       1.4
 3 C  dxz             0.0       0.0       0.2       0.0       0.2       0.1
 3 C  dyz             0.1       0.0       0.0       0.0       0.1       0.1
 3 C  dx2y2           0.1       0.4       0.0       0.1       0.0       0.3
 3 C  dxy             0.1       0.1       0.1       0.0       0.0       0.1
 4 O  s               0.0       0.3       0.4       0.1       0.2       0.4
 4 O  pz              1.7      14.5       0.8       0.3       0.2       1.2
 4 O  px              0.2       2.2       2.9       0.4       0.1       0.9
 4 O  py              0.8       1.1       7.3       0.2       3.1       2.5
 4 O  dz2             0.1       0.2       0.0       0.0       0.0       0.0
 4 O  dxz             0.0       0.1       0.0       0.1       0.0       0.1
 4 O  dxy             0.0       0.0       0.2       0.0       0.0       0.0
 5 O  s               0.3       0.3       0.0       0.5       0.5       1.6
 5 O  pz              0.1       3.3       0.0       0.6       0.3       4.2
 5 O  px              5.6       3.3       0.6       3.1       0.4       4.5
 5 O  py              1.5       0.5       0.9       1.3       8.1       9.6
 5 O  dz2             0.5       0.4       0.2       0.0       0.0       0.0
 5 O  dxz             0.1       0.3       0.0       0.7       0.0       0.4
 5 O  dyz             0.0       0.0       0.2       0.0       0.0       0.1
 5 O  dx2y2           0.0       0.0       0.0       0.2       0.1       0.2
 5 O  dxy             0.0       0.3       0.0       0.4       0.9       0.1
 6 C  s               0.2       0.0       0.1       0.0       0.1       0.1
 6 C  pz              6.5       1.9       3.2       0.5       0.0       1.5
 6 C  px              0.7       2.6       0.3       1.1       0.0       1.3
 6 C  py              0.1       3.4       2.5       1.8       6.2       5.1
 6 C  dz2             0.2       0.1       0.2       0.0       0.1       0.2
 6 C  dxz             0.0       0.2       0.0       0.0       0.0       0.1
 6 C  dx2y2           0.1       0.0       0.0       0.1       0.2       0.2
 6 C  dxy             0.0       0.0       0.0       0.0       0.1       0.1
 7 C  s               0.1       0.2       0.0       0.0       0.1       0.0
 7 C  pz             14.7       0.2       3.4       0.5       0.0       0.9
 7 C  px              4.5       5.6       0.1       1.0       0.2       0.7
 7 C  py              0.4       6.8       3.4       1.2       3.5       1.4
 7 C  dz2             0.2       0.1       0.2       0.0       0.1       0.1
 7 C  dx2y2           0.1       0.0       0.0       0.1       0.1       0.1
 8 H  s               1.7       0.5       4.9       4.2       1.9       0.8
 8 H  pz              0.0       0.0       0.1       0.0       0.0       0.0
 8 H  px              0.1       0.0       0.0       0.1       0.0       0.0
 9 H  s               1.8       1.5       0.1       4.9       1.0       4.7
 9 H  px              0.0       0.0       0.2       0.0       0.0       0.0
10 H  s               0.0       6.8       0.9       1.4       5.4       1.3
10 H  px              0.1       0.0       0.1       0.0       0.0       0.0
11 H  s               0.2       0.2       0.1       7.4       2.8       8.9
11 H  pz              0.0       0.0       0.0       0.1       0.1       0.0
12 H  s               0.2       2.1       0.9       2.4      10.7       2.9
12 H  px              0.1       0.0       0.1       0.0       0.0       0.0
12 H  py              0.0       0.0       0.0       0.1       0.0       0.0
13 H  s               2.1       0.6       1.3       3.6       2.1       1.9
14 H  s               0.6       2.6       0.0       1.2       5.6       1.6
15 H  s               0.2       1.4       1.4       1.8       5.1       5.0
16 H  s               4.6       0.0       4.0       0.8       0.8       3.3
17 H  s               4.7       1.8       0.2       0.6       0.0       0.4
18 H  s               0.0       2.3       1.9       1.3       2.2       1.9
18 H  pz              0.1       0.0       0.0       0.0       0.0       0.0
19 H  s               9.7       0.9       4.1       0.6       0.7       1.2

                     30        31        32        33        34        35   
                  -0.27016  -0.23093  -0.01243   0.07442   0.09101   0.10636
                   2.00000   2.00000   0.00000   0.00000   0.00000   0.00000
                  --------  --------  --------  --------  --------  --------
 0 C  s               0.0       0.2       0.0       2.7       0.6      27.5
 0 C  pz              0.1       0.1       0.1       0.0       0.0       0.3
 0 C  px              0.0       1.3       0.2       1.7       0.1       1.2
 0 C  py              0.0       0.2       0.1       0.1       0.2       0.4
 0 C  dxz             0.0       0.0       0.0       0.1       0.0       0.0
 0 C  dx2y2           0.0       0.0       0.0       0.2       0.0       0.2
 1 C  s               0.0       0.1       0.6       7.9       0.6       5.9
 1 C  pz              0.5       0.4       0.2       1.0       1.1       0.5
 1 C  px              0.0       1.2       0.1       1.1       0.4       5.3
 1 C  py              0.1       0.6       0.4       0.2       0.6       1.3
 1 C  dz2             0.0       0.1       0.0       0.0       0.1       0.1
 1 C  dxz             0.0       0.0       0.0       0.0       0.0       0.1
 1 C  dx2y2           0.0       0.0       0.0       0.0       0.0       0.6
 1 C  dxy             0.0       0.0       0.0       0.0       0.0       0.1
 2 C  s               0.0       0.4       0.2      10.3       0.8       1.0
 2 C  pz              0.1       0.2       0.0       0.9       0.1       2.0
 2 C  px              0.2       4.9       0.1       0.4       4.5       3.3
 2 C  py              0.1       1.9       0.1       0.3       0.7       1.1
 2 C  dz2             0.0       0.0       0.2       0.1       0.1       0.3
 2 C  dxz             0.0       0.0       0.6       0.0       0.3       0.0
 2 C  dyz             0.0       0.0       0.7       0.2       0.0       0.3
 2 C  dx2y2           0.0       0.0       0.1       0.0       0.1       0.1
 2 C  dxy             0.0       0.0       0.4       0.1       0.0       0.0
 3 C  s               0.0       0.3       0.1       8.2       4.1       0.3
 3 C  pz              0.5       0.3      24.3       0.3       2.4       0.3
 3 C  px              0.0       1.1       2.6       0.5       1.0       0.5
 3 C  py              0.2       0.4      13.1       1.0       0.7       0.4
 3 C  dz2             1.5       0.3       0.1       0.2       0.0       0.0
 3 C  dxz             0.0       0.3       0.6       0.6       0.2       0.0
 3 C  dyz             0.3       0.8       0.1       0.6       0.4       0.0
 3 C  dx2y2           0.3       1.0       0.3       0.3       0.2       0.0
 3 C  dxy             0.0       1.5       0.2       0.0       0.3       0.0
 4 O  s               0.0       0.0       0.0       0.9       1.4       0.1
 4 O  pz             25.5       9.9      14.9       0.1       0.3       0.1
 4 O  px              0.7      56.5       1.2       0.5       0.1       0.1
[...]
 2 C  dx2y2           4.5       0.0       0.1       0.0       0.0       0.0
 2 C  dxy             4.2       0.0       0.1       0.0       0.0       0.0
 3 C  s               1.1       0.4       3.1       5.0       0.3       0.0
 3 C  pz              0.1       0.6       2.5       1.8       0.0       0.0
 3 C  px              0.4       0.2       2.0       1.2       0.0       0.0
 3 C  py              0.5       0.8       2.3       5.4       0.0       0.0
 3 C  dz2             1.7       0.0       0.2       0.3       0.0       0.0
 3 C  dxz             0.3       0.6       2.9       0.8       0.0       0.0
 3 C  dyz             1.7       0.6       4.5       2.3       0.0       0.0
 3 C  dx2y2           9.6       0.0       0.5       1.0       0.0       0.0
 3 C  dxy             1.8       0.8       4.1       2.3       0.0       0.0
 4 O  s               1.2       0.9       0.5      18.9       0.0       0.0
 4 O  pz              1.8       0.2       0.0       4.5       0.0       0.0
 4 O  px              3.1       0.1       0.4       3.7       0.0       0.0
 4 O  py              1.2       0.5       0.2      13.7       0.0       0.0
 4 O  dz2             0.8       0.0       0.5       1.2       0.0       0.0
 4 O  dxz             2.8       0.2       0.0       3.7       0.0       0.0
 4 O  dyz             4.6       0.7       0.0      12.6       0.0       0.0
 4 O  dx2y2           2.7       0.7       0.6       5.5       0.0       0.0
 4 O  dxy             6.7       0.2       1.0      10.6       0.0       0.0
 5 O  s               4.5      27.0       5.3       0.8       0.0       0.0
 5 O  pz              1.0       0.2       8.6       0.1       0.0       0.0
 5 O  px              0.1      11.6      17.9       0.7       0.0       0.0
 5 O  py              2.6       3.1       4.9       0.1       0.0       0.0
 5 O  dz2             0.0       4.0       1.1       0.4       0.0       0.0
 5 O  dxz             1.5       6.1       5.0       0.2       0.0       0.0
 5 O  dyz             1.8       1.9      10.8       0.0       0.0       0.0
 5 O  dx2y2           2.8      12.8       2.9       1.1       0.0       0.0
 5 O  dxy             1.2       0.0      10.4       0.2       0.0       0.0
 6 C  s               0.2       1.4       0.6       0.1       1.9       0.0
 6 C  pz              0.0       0.5       0.1       0.0       0.0       0.0
 6 C  px              0.1       6.7       2.0       0.3       0.0       0.0
 6 C  py              0.1       0.3       0.1       0.0       0.0       0.0
 6 C  dz2             0.4       2.6       0.5       0.1       0.0       0.0
 6 C  dxz             0.2       0.7       0.2       0.0       0.0       0.0
 6 C  dyz             0.0       0.1       0.1       0.0       0.0       0.0
 6 C  dx2y2           0.0       8.4       2.1       0.4       0.0       0.0
 6 C  dxy             1.1       1.0       0.1       0.1       0.0       0.0
 7 C  s               0.1       0.0       0.0       0.0       0.5      97.7
 7 C  py              0.2       0.1       0.0       0.0       0.0       0.0
 7 C  dz2             0.4       0.3       0.0       0.0       0.0       0.0
 7 C  dx2y2           0.4       0.2       0.0       0.0       0.0       0.0
 7 C  dxy             0.1       0.0       0.0       0.0       0.0       0.0
 8 H  pz              0.2       0.0       0.0       0.0       0.0       0.0
 9 H  py              0.2       0.0       0.0       0.0       0.0       0.0
10 H  pz              0.2       0.0       0.0       0.0       0.0       0.0
11 H  s               0.8       0.0       0.0       0.0       0.0       0.0
11 H  px              0.4       0.0       0.0       0.0       0.0       0.0
11 H  py              1.8       0.0       0.0       0.0       0.0       0.0
12 H  s               0.2       0.0       0.0       0.0       0.0       0.0
12 H  pz              0.4       0.0       0.0       0.0       0.0       0.0
12 H  py              0.3       0.0       0.0       0.0       0.0       0.0
13 H  s               2.1       0.0       0.0       0.0       0.0       0.0
13 H  px              0.9       0.0       0.0       0.0       0.0       0.0
13 H  py              3.8       0.0       0.0       0.0       0.0       0.0
14 H  s               0.2       0.0       0.0       0.0       0.0       0.0
14 H  pz              0.3       0.0       0.0       0.0       0.0       0.0
14 H  py              0.7       0.0       0.0       0.0       0.0       0.0
15 H  s               0.1       0.3       0.1       0.0       0.0       0.0
15 H  px              0.3       0.1       0.1       0.0       0.0       0.0
15 H  py              0.4       0.7       0.2       0.0       0.0       0.0
16 H  s               0.1       0.4       0.1       0.0       0.0       0.0
16 H  pz              0.2       0.6       0.1       0.0       0.0       0.0
16 H  px              0.0       0.3       0.0       0.0       0.0       0.0
16 H  py              0.0       0.3       0.0       0.0       0.0       0.0
17 H  s               0.0       0.1       0.0       0.0       0.0       0.0
17 H  px              0.0       0.3       0.0       0.0       0.0       0.0
18 H  s               0.3       0.0       0.0       0.0       0.0       0.0
18 H  py              0.6       0.0       0.0       0.0       0.0       0.0

                    216       217       218       219       220       221   
                  21.97825  22.00079  22.06812  22.25182  43.68925  43.74899
                   0.00000   0.00000   0.00000   0.00000   0.00000   0.00000
                  --------  --------  --------  --------  --------  --------
 0 C  s              38.8       0.7       0.7       0.0       0.0       0.0
 1 C  s              23.5      65.0       0.2       0.2       0.0       0.0
 2 C  s              28.5      30.3      10.4       1.9       0.0       0.0
 3 C  s               0.2       1.1       0.5      96.9       0.0       0.0
 4 O  s               0.0       0.0       0.0       0.2      99.8       0.1
 5 O  s               0.0       0.0       0.1       0.1       0.1      99.8
 6 C  s               7.3       2.7      87.6       0.1       0.0       0.0
 7 C  s               1.4       0.1       0.0       0.0       0.0       0.0



                      *****************************
                      * MAYER POPULATION ANALYSIS *
                      *****************************

  NA   - Mulliken gross atomic population
  ZA   - Total nuclear charge
  QA   - Mulliken gross atomic charge
  VA   - Mayer's total valence
  BVA  - Mayer's bonded valence
  FA   - Mayer's free valence

  ATOM       NA         ZA         QA         VA         BVA        FA
  0 C      6.4669     6.0000    -0.4669     3.7891     3.7891     0.0000
  1 C      6.2319     6.0000    -0.2319     3.6703     3.6703     0.0000
  2 C      6.3459     6.0000    -0.3459     3.7877     3.7877     0.0000
  3 C      5.6287     6.0000     0.3713     3.8704     3.8704    -0.0000
  4 O      8.4245     8.0000    -0.4245     1.9496     1.9496     0.0000
  5 O      8.1554     8.0000    -0.1554     1.8935     1.8935     0.0000
  6 C      6.1393     6.0000    -0.1393     3.6891     3.6891    -0.0000
  7 C      6.4653     6.0000    -0.4653     3.8089     3.8089    -0.0000
  8 H      0.8511     1.0000     0.1489     0.9618     0.9618     0.0000
  9 H      0.8568     1.0000     0.1432     0.9642     0.9642     0.0000
 10 H      0.8583     1.0000     0.1417     0.9647     0.9647    -0.0000
 11 H      0.8463     1.0000     0.1537     0.9587     0.9587    -0.0000
 12 H      0.8567     1.0000     0.1433     0.9608     0.9608    -0.0000
 13 H      0.8310     1.0000     0.1690     0.9607     0.9607    -0.0000
 14 H      0.8295     1.0000     0.1705     0.9550     0.9550     0.0000
 15 H      0.8317     1.0000     0.1683     0.9593     0.9593     0.0000
 16 H      0.8521     1.0000     0.1479     0.9526     0.9526    -0.0000
 17 H      0.8531     1.0000     0.1469     0.9649     0.9649    -0.0000
 18 H      0.8493     1.0000     0.1507     0.9627     0.9627    -0.0000
 19 H      0.8262     1.0000     0.1738     0.9581     0.9581    -0.0000

  Mayer bond orders larger than 0.100000
B(  0-C ,  1-C ) :   0.8871 B(  0-C ,  8-H ) :   0.9741 B(  0-C ,  9-H ) :   0.9807 
B(  0-C , 10-H ) :   0.9851 B(  1-C ,  2-C ) :   0.9196 B(  1-C , 11-H ) :   0.9624 
B(  1-C , 12-H ) :   0.9671 B(  2-C ,  3-C ) :   1.0143 B(  2-C , 13-H ) :   0.9823 
B(  2-C , 14-H ) :   0.9326 B(  3-C ,  4-O ) :   1.8556 B(  3-C ,  5-O ) :   1.0592 
B(  5-O ,  6-C ) :   0.8155 B(  6-C ,  7-C ) :   0.9343 B(  6-C , 15-H ) :   0.9672 
B(  6-C , 16-H ) :   0.9630 B(  7-C , 17-H ) :   0.9648 B(  7-C , 18-H ) :   0.9742 
B(  7-C , 19-H ) :   0.9716 

-------
TIMINGS
-------

Total SCF time: 0 days 0 hours 0 min 28 sec 

Total time                  ....      28.113 sec
Sum of individual times     ....      27.515 sec  ( 97.9%)

SCF preparation             ....       0.254 sec  (  0.9%)
Fock matrix formation       ....      26.109 sec  ( 92.9%)
  Startup                   ....       0.081 sec  (  0.3% of F)
  Split-RI-J                ....       5.309 sec  ( 20.3% of F)
  XC integration            ....      20.068 sec  ( 76.9% of F)
    XC Preparation          ....       0.000 sec  (  0.0% of XC)
    Basis function eval.    ....       3.628 sec  ( 18.1% of XC)
    Density eval.           ....       6.013 sec  ( 30.0% of XC)
    XC-Functional eval.     ....       2.630 sec  ( 13.1% of XC)
    XC-Potential eval.      ....       6.554 sec  ( 32.7% of XC)
Diagonalization             ....       0.000 sec  (  0.0%)
Density matrix formation    ....       0.288 sec  (  1.0%)
Total Energy calculation    ....       0.050 sec  (  0.2%)
Population analysis         ....       0.144 sec  (  0.5%)
Orbital Transformation      ....       0.067 sec  (  0.2%)
Orbital Orthonormalization  ....       0.000 sec  (  0.0%)
DIIS solution               ....       0.540 sec  (  1.9%)
  MO trafo                  ....       0.000 sec  (  0.0 % of DIIS)
  Orb grad                  ....       0.000 sec  (  0.0 % of DIIS)
  Energy W gradient         ....       0.000 sec  (  0.0 % of DIIS)
  DIIS error                ....       0.031 sec  (  5.7 % of DIIS)
  DIIS work                 ....       0.441 sec  ( 81.7 % of DIIS)
  Form Q                    ....       0.000 sec  (  0.0 % of DIIS)
  Form QpQm                 ....       0.000 sec  (  0.0 % of DIIS)
  Exp/Cayley                ....       0.000 sec  (  0.0 % of DIIS)
  Orb update                ....       0.000 sec  (  0.0 % of DIIS)
  Wake-sleep                ....       0.034 sec  (  6.3 % of DIIS)
SOSCF solution              ....       0.062 sec  (  0.2%)
  MO trafo                  ....       0.043 sec  ( 69.1 % of SOSCF)
  Orb grad                  ....       0.001 sec  (  1.2 % of SOSCF)
  Rot update                ....       0.000 sec  (  0.1 % of SOSCF)
  Step                      ....       0.018 sec  ( 29.5 % of SOSCF)
Finished LeanSCF after  28.2 sec

Maximum memory used throughout the entire LEANSCF-calculation: 23.7 MB


-------------------------------------------------------------------------------
                          DFT DISPERSION CORRECTION                            
                                                                               
                                DFTD4 V3.4.0                                   
-------------------------------------------------------------------------------
The R2SCAN3C composite method is recognized
Using three-body term ABC
Active option DFTDOPT                   ...         5   

-------------------------   ----------------
Dispersion correction           -0.004989379
-------------------------   ----------------

------------------   -----------------
gCP correction             0.011742157
------------------   -----------------

-------------------------   --------------------
FINAL SINGLE POINT ENERGY      -386.235000614803
-------------------------   --------------------


------------------------------------------------------------------------------
                              ORCA PROPERTY CALCULATIONS
------------------------------------------------------------------------------

GBWName                                 ... sp_gas.gbw
Number of atoms                         ...     20
Number of basis functions               ...    222
Max core memory                         ...   1024 MB

Electric properties:
Dipole moment                           ... YES
Quadrupole moment                       ...  NO
Static polarizability (Dipole/Dipole)   ...  NO
Static polarizability (Dipole/Quad.)    ...  NO
Static polarizability (Quad./Quad.)     ...  NO
Static polarizability (Velocity)        ...  NO

Atomic electric properties:
Dipole moment                           ...  NO
Quadrupole moment                       ...  NO
Static polarizability                   ...  NO

Choice of electric origin               ... Center of mass
Position of electric origin             ...    -0.000014    -0.000018     0.000006

General magnetic properties:
Magnetizability                         ...  NO

EPR properties:
g-Tensor (aka g-matrix)                 ...  NO
Zero-Field splitting spin-orbit         ...  NO
Zero-field splitting spin-spin          ...  NO
Hyperfine couplings                     ...  NO (   0 nuclei)
Quadrupole couplings                    ...  NO (   0 nuclei)
Contact density                         ...  NO (   0 nuclei)

NMR properties:
Chemical shifts                         ...  NO (   0 nuclei)
Spin-rotation constants                 ...  NO (   0 nuclei)
Spin-spin couplings                     ...  NO (   0 nuclei,    0 pairs)

Choice of magnetic origin               ... GIAO
Position of magnetic origin             ...     0.000000     0.000000     0.000000

Properties with geometric perturbations:
SCF Hessian                             ...  NO
IR spectrum                             ...  NO
VCD spectrum                            ...  NO
X-ray spectroscopy properties:
SCF XES/XAS/RIXS spectra                ...  NO


-------------
DIPOLE MOMENT
-------------

Method             : SCF
Type of density    : Electron Density
Multiplicity       :   1
Irrep              :   0
Energy             :  -386.2417533923825204 Eh
Relativity type    : 
Basis              : AO
                                X                 Y                 Z
Electronic contribution:      3.340284113       4.355402764      -1.086493686
Nuclear contribution   :     -3.331388509      -5.088247438       1.539958902
                        -----------------------------------------
Total Dipole Moment    :      0.008895604      -0.732844674       0.453465216
                        -----------------------------------------
Magnitude (a.u.)       :      0.861841720
Magnitude (Debye)      :      2.190627561



--------------------
Rotational spectrum 
--------------------
 
Rotational constants in cm-1:             0.144134             0.032778             0.028962 
Rotational constants in MHz :          4321.017717           982.653049           868.271218 

Dipole components along the rotational axes: 
x,y,z [a.u.] :    -0.109699    -0.853531    -0.047148 
x,y,z [Debye]:    -0.278832    -2.169502    -0.119840 

 

Dipole moment calculation done in   0.0 sec 

Maximum memory used throughout the entire PROP-calculation: 13.7 MB

--------------------------------
SUGGESTED CITATIONS FOR THIS RUN
--------------------------------

Below you find a list of papers that are relevant to this ORCA run
We neither can nor want to force you to cite these papers, but we appreciate if you do
You receive ORCA, which is the product of decades of hard work by many enthusiastic individuals, for free
The only thing we kindly ask in return is that you cite our papers,
We deeply appreciate it, if you show your appreciation for ORCA by not just citing the generic ORCA reference.

Please note that relegating all ORCA citations to the supporting information does *not* help us.
SI sections are not indexed - citations you put there will not count into any citation statistics
But we need these citations in order to attract the funding resources that allow us to do what we are doing

Therefore, if you are a happy ORCA user, please consider citing a few of the papers listed below in the main body of your paper

In addition to the list printed below, the program has created the file sp_gas.bibtex that contains the list in bibtex format
You can import this file easily into all common literature databanks and citation aid programs


List of essential papers. We consider these as the minimum necessary citations

  1. Neese,F.
     Software update: the ORCA program system, version 5.0
     WIRES Comput. Molec. Sci., 2022 12(1)e1606
     doi.org/10.1002/wcms.1606
  2. Grimme,S.; Hansen,A.; Ehlert,S.; Mewes,J.
     r2SCAN-3c: A 'Swiss army knife' composite electronic-structure method
     J. Chem. Phys., 2021 154 064103
     doi.org/10.1063/5.0040021

List of papers to cite with high priority. The work reported in these papers was absolutely
necessary for this run to complete.
Our perspective: the developers of density functionals and basis sets usually get cited in chemistry papers
Good! But without the algorithms to do something with them, the functionals or basis sets would not do anything.
Hence, in our opinion, the algorithm design and method developments papers are equally worthy of getting cited

  1. Neese,F.
     An improvement of the resolution of the identity approximation for the formation of the Coulomb matrix
     J. Comp. Chem., 2003 24(14)1740-1747
     doi.org/10.1002/jcc.10318
  2. Neese,F.
     The SHARK Integral Generation and Digestion System
     J. Comp. Chem., 2022  1-16
     doi.org/10.1002/jcc.26942
  3. Lehtola,S.; Steigemann,C.; Oliveira,M.; Marques,M.
     Recent developments in Libxc - A comprehensive library of functionals for density functional theory
     Software X, 2018 7 
     doi.org/10.1016/j.softx.2017.11.002
  4. Caldeweyher,E.; Bannwarth,C.; Grimme,S.
     Extension of the D3 dispersion coefficient model
     J. Chem. Phys., 2017 147 034112-XXXX
     doi.org/10.1063/1.4993215
  5. Caldeweyher,E.; Ehlert,S.; Hansen,A.; Neugebauer,H.; Spicher,S.; Bannwarth,C.; Grimme,S.
     A generally applicable atomic-charge dependent London dispersion correction
     J. Chem. Phys., 2019 150 154122-XXXX
     doi.org/10.1063/1.5090222
  6. Caldeweyher,E.; Mewes,J.; Ehlert,S.; Grimme,S.
     Extension and evaluation of the D4 London-dispersion model for periodic systems
     Phys. Chem. Chem. Phys., 2020 22(16)8499-8512
     doi.org/10.1039/D0CP00502A

List of suggested additional citations. These are papers that are important in the 'surrounding' of 
of this run, or papers that preceded the highly important papers. If you like your results we are grateful for a citation.

  1. Neese,F.
     The ORCA program system
     WIRES Comput. Molec. Sci., 2012 2(1)73-78
     doi.org/10.1002/wcms.81
  2. Neese,F.
     Software update: the ORCA program system, version 4.0
     WIRES Comput. Molec. Sci., 2018 8(1)1-6
     doi.org/10.1002/wcms.1327
  3. Neese,F.; Wennmohs,F.; Becker,U.; Riplinger,C.
     The ORCA quantum chemistry program package
     J. Chem. Phys., 2020 152 Art. No. L224108
     doi.org/10.1063/5.0004608

List of optional additional citations

  1. Neese,F.
     Approximate second-order SCF convergence for spin unrestricted wavefunctions
     Chem. Phys. Lett., 2000 325(1-3)93-98
     doi.org/10.1016/s0009-2614(00)00662-x

Timings for individual modules:

Sum of individual times          ...       30.088 sec (=   0.501 min)
Startup calculation              ...        1.372 sec (=   0.023 min)   4.6 %
SCF iterations                   ...       28.588 sec (=   0.476 min)  95.0 %
Property calculations            ...        0.128 sec (=   0.002 min)   0.4 %
                             ****ORCA TERMINATED NORMALLY****
TOTAL RUN TIME: 0 days 0 hours 0 minutes 31 seconds 34 msec
