17
 energy: -657.270817939835 gnorm: 0.002128319417 xtb: 6.7.1 (edcfbbe)
C            2.83713969559669       -0.07791678396590       -0.71491719982457
C            1.86038413733393       -0.70016887054743        0.28165360687287
C            0.97459960259248        0.32667914390084        0.99288462651546
C            0.11150794830138        1.18718284970882        0.06507219068142
C           -0.77001489055592        0.42204411600350       -0.89407906805168
Cl          -1.98863732607423       -0.64490740313546        0.00564435092407
H            3.45277666632863        0.68797848682388       -0.22951276034518
H            2.31423729660747        0.39500894501172       -1.55211131024461
H            3.50871108016065       -0.83505332638157       -1.13131374173943
H            1.23517459248490       -1.44304707384070       -0.22981324852101
H            2.42388616661761       -1.25158339679092        1.04365867738976
H            1.61030677255478        0.99925457376911        1.58138570004497
H            0.32261596500583       -0.19206566326942        1.70495389204074
H            0.75178343137319        1.82046614985628       -0.56360794084110
H           -0.50595124294233        1.86716449136738        0.66216926733280
H           -1.37597066301654        1.08743954235416       -1.50893600674890
H           -0.21134154364120       -0.26147377947977       -1.53575118057551
17
 energy: -657.270826410562 gnorm: 0.000948999071 xtb: 6.7.1 (edcfbbe)
C            2.83683606913024       -0.07830870359112       -0.71520957383754
C            1.86105321238232       -0.69979322513566        0.28214474722193
C            0.97472127923954        0.32663093717293        0.99343167079258
C            0.11064042330899        1.18622896674227        0.06642166557595
C           -0.77106452531863        0.42189910660479       -0.89300134460762
Cl          -1.99185223551406       -0.64626234972261        0.00094866273350
H            3.45271608987861        0.68863385847957       -0.23127168160292
H            2.31421766894834        0.39414072464521       -1.55320663197326
H            3.50902741283706       -0.83539527110643       -1.13145151070908
H            1.23610483816148       -1.44368055810096       -0.22860018870400
H            2.42497442799557       -1.25142333435825        1.04386161541878
H            1.61004415810660        1.00031330018003        1.58179078912854
H            0.32438491959919       -0.19217215954207        1.70732071855099
H            0.75051700101309        1.81870616178663       -0.56433288718843
H           -0.50551289492454        1.86822956162635        0.66270956298277
H           -1.37402319387732        1.08979611948744       -1.50924744880201
H           -0.21157722495224       -0.26054103292273       -1.53492830642965
17
 energy: -657.270827983375 gnorm: 0.000812250441 xtb: 6.7.1 (edcfbbe)
C            2.83602617077801       -0.07853870287870       -0.71577425483857
C            1.86209962342378       -0.69918987796023        0.28300490758034
C            0.97476706424879        0.32618154040239        0.99463081943313
C            0.10931139720948        1.18406361095174        0.06849863314376
C           -0.77175014306331        0.42192820378859       -0.89306687888131
Cl          -1.99552570204205       -0.64488756244890       -0.00494682886322
H            3.45196941041066        0.69055784262770       -0.23470398123367
H            2.31308674024268        0.39176613943509       -1.55516078418845
H            3.50921253447304       -0.83567533427322       -1.13110849307736
H            1.23750018011319       -1.44486117376013       -0.22606935443006
H            2.42714020687536       -1.25014114731944        1.04459231585379
H            1.60949250334685        1.00137318078146        1.58269803759243
H            0.32706586970553       -0.19343598474471        1.71082637337043
H            0.74854663084987        1.81564831866584       -0.56470144327568
H           -0.50506856202075        1.86846027872283        0.66411522492845
H           -1.37136252351983        1.09303696644715       -1.51008712628655
H           -0.21130450675710       -0.25928398971792       -1.53536726592593
17
 energy: -657.270827983375 gnorm: 0.000812250441 xtb: 6.7.1 (edcfbbe)
C            2.83602617077801       -0.07853870287870       -0.71577425483857
C            1.86209962342378       -0.69918987796023        0.28300490758034
C            0.97476706424879        0.32618154040239        0.99463081943313
C            0.10931139720948        1.18406361095174        0.06849863314376
C           -0.77175014306331        0.42192820378859       -0.89306687888131
Cl          -1.99552570204205       -0.64488756244890       -0.00494682886322
H            3.45196941041066        0.69055784262770       -0.23470398123367
H            2.31308674024268        0.39176613943509       -1.55516078418845
H            3.50921253447304       -0.83567533427322       -1.13110849307736
H            1.23750018011319       -1.44486117376013       -0.22606935443006
H            2.42714020687536       -1.25014114731944        1.04459231585379
H            1.60949250334685        1.00137318078146        1.58269803759243
H            0.32706586970553       -0.19343598474471        1.71082637337043
H            0.74854663084987        1.81564831866584       -0.56470144327568
H           -0.50506856202075        1.86846027872283        0.66411522492845
H           -1.37136252351983        1.09303696644715       -1.51008712628655
H           -0.21130450675710       -0.25928398971792       -1.53536726592593
