      -----------------------------------------------------------      
     |                   =====================                   |     
     |                           x T B                           |     
     |                   =====================                   |     
     |                         S. Grimme                         |     
     |          Mulliken Center for Theoretical Chemistry        |     
     |                    University of Bonn                     |     
      -----------------------------------------------------------      

   * xtb version 6.7.1 (edcfbbe) compiled by 'albert@albert-system' on 2024-07-22

   xtb is free software: you can redistribute it and/or modify it under
   the terms of the GNU Lesser General Public License as published by
   the Free Software Foundation, either version 3 of the License, or
   (at your option) any later version.
   
   xtb is distributed in the hope that it will be useful,
   but WITHOUT ANY WARRANTY; without even the implied warranty of
   MERCHANTABILITY or FITNESS FOR A PARTICULAR PURPOSE.  See the
   GNU Lesser General Public License for more details.
   
   Cite this work as:
   * C. Bannwarth, E. Caldeweyher, S. Ehlert, A. Hansen, P. Pracht,
     J. Seibert, S. Spicher, S. Grimme, WIREs Comput. Mol. Sci., 2020, 11,
     e01493. DOI: 10.1002/wcms.1493
   
   for GFN2-xTB:
   * C. Bannwarth, S. Ehlert and S. Grimme., J. Chem. Theory Comput., 2019,
     15, 1652-1671. DOI: 10.1021/acs.jctc.8b01176
   for GFN1-xTB:
   * S. Grimme, C. Bannwarth, P. Shushkov, J. Chem. Theory Comput., 2017,
     13, 1989-2009. DOI: 10.1021/acs.jctc.7b00118
   for GFN0-xTB:
   * P. Pracht, E. Caldeweyher, S. Ehlert, S. Grimme, ChemRxiv, 2019, preprint.
     DOI: 10.26434/chemrxiv.8326202.v1
   for GFN-FF:
   * S. Spicher and S. Grimme, Angew. Chem. Int. Ed., 2020, 59, 15665-15673.
     DOI: 10.1002/anie.202004239
   
   for ALPB and GBSA implicit solvation:
   * S. Ehlert, M. Stahn, S. Spicher, S. Grimme, J. Chem. Theory Comput.,
     2021, 17, 4250-4261. DOI: 10.1021/acs.jctc.1c00471
   
   for ddCOSMO and CPCM-X implicit solvation:
   * M. Stahn, S. Ehlert, S. Grimme, J. Phys. Chem. A,
     2023, XX, XXXX-XXXX. DOI: 10.1021/acs.jpca.3c04382
   
   for DFT-D4:
   * E. Caldeweyher, C. Bannwarth and S. Grimme, J. Chem. Phys., 2017,
     147, 034112. DOI: 10.1063/1.4993215
   * E. Caldeweyher, S. Ehlert, A. Hansen, H. Neugebauer, S. Spicher,
     C. Bannwarth and S. Grimme, J. Chem. Phys., 2019, 150, 154122.
     DOI: 10.1063/1.5090222
   * E. Caldeweyher, J.-M. Mewes, S. Ehlert and S. Grimme, Phys. Chem. Chem. Phys.
     2020, 22, 8499-8512. DOI: 10.1039/D0CP00502A
   
   for sTDA-xTB:
   * S. Grimme and C. Bannwarth, J. Chem. Phys., 2016, 145, 054103.
     DOI: 10.1063/1.4959605
   
   in the mass-spec context:
   * V. Asgeirsson, C. Bauer and S. Grimme, Chem. Sci., 2017, 8, 4879.
     DOI: 10.1039/c7sc00601b
   * J. Koopman and S. Grimme, ACS Omega 2019, 4, 12, 15120-15133.
     DOI: 10.1021/acsomega.9b02011
   
   for metadynamics refer to:
   * S. Grimme, J. Chem. Theory Comput., 2019, 155, 2847-2862
     DOI: 10.1021/acs.jctc.9b00143
   
   for SPH calculations refer to:
   * S. Spicher and S. Grimme, J. Chem. Theory Comput., 2021, 17, 1701-1714
     DOI: 10.1021/acs.jctc.0c01306
   
   for ONIOM refer to:
   * C. Plett, A. Katbashev, S. Ehlert, S. Grimme, M. Bursch,
     Phys. Chem. Chem. Phys., 2023, 25, 17860-17868. DOI: 10.1039/D3CP02178E
   
   for DIPRO refer to:
   * J. Kohn, N. Gildemeister, S. Grimme, D. Fazzi, A. Hansen,
     J. Chem. Phys., 2023, just accepted.
   
   for PTB refer to:
   * S. Grimme, M. Mueller, A. Hansen, J. Chem. Phys., 2023, 158, 124111.
     DOI: 10.1063/5.0137838
   
   with help from (in alphabetical order)
   P. Atkinson, C. Bannwarth, F. Bohle, G. Brandenburg, E. Caldeweyher
   M. Checinski, S. Dohm, S. Ehlert, S. Ehrlich, I. Gerasimov, C. Hölzer
   A. Katbashev, J. Kohn, J. Koopman, C. Lavigne, S. Lehtola, F. März, M. Müller,
   F. Musil, H. Neugebauer, J. Pisarek, C. Plett, P. Pracht, F. Pultar,
   J. Seibert, P. Shushkov, S. Spicher, M. Stahn, M. Steiner, T. Strunk,
   J. Stückrath, T. Rose, and J. Unsleber
   
 * started run on 2025/04/11 at 16:00:44.575     
   ID    Z sym.   atoms
    1    6 C      1-5
    2   17 Cl     6
    3    1 H      7-17

           -------------------------------------------------
          |                Calculation Setup                |
           -------------------------------------------------

          program call               : /srv/scratch/z5358697/.xtb/bin/xtb xtb_rrho.coord --gfn2 --ohess vtight --chrg 0 --enso --norestart -I rrho-xcontrol-inp --parallel 1 --alpb water
          hostname                   : k124
          coordinate file            : xtb_rrho.coord
          omp threads                :                     1


           -------------------------------------------------
          |                 G F N 2 - x T B                 |
           -------------------------------------------------

        Reference                      10.1021/acs.jctc.8b01176
      * Hamiltonian:
        H0-scaling (s, p, d)           1.850000    2.230000    2.230000
        zeta-weighting                 0.500000
      * Dispersion:
        s8                             2.700000
        a1                             0.520000
        a2                             5.000000
        s9                             5.000000
      * Repulsion:
        kExp                           1.500000    1.000000
        rExp                           1.000000
      * Coulomb:
        alpha                          2.000000
        third order                    shell-resolved
        anisotropic                    true
        a3                             3.000000
        a5                             4.000000
        cn-shift                       1.200000
        cn-exp                         4.000000
        max-rad                        5.000000

      * Solvation model:               ALPB
        Solvent                        water
        Parameter file                 internal GFN2-xTB/ALPB
        Dielectric constant                8.0200E+01
        Reference state                gsolv [1 M gas/solution]
        Free energy shift                  1.0808E-03 Eh       6.7819E-01 kcal/mol
        Temperature                        2.9815E+02 K
        Density                            1.0000E+00 kg/L
        Solvent mass                       1.8000E+01 g/mol
        Interaction kernel             P16
        Born radius scaling (c1)           1.4744E+00
        Born radii integrator          GBOBC
        Born offset                        0.0000E+00 a0       0.0000E+00 AA
        H-bond correction              true
        Ion screening                  false
        Surface tension                    1.0000E-05 Eh       1.5569E+01 dyn/cm
        Grid points                               974 per atom

          ...................................................
          :                      SETUP                      :
          :.................................................:
          :  # basis functions                  41          :
          :  # atomic orbitals                  40          :
          :  # shells                           24          :
          :  # electrons                        38          :
          :  max. iterations                   250          :
          :  Hamiltonian                  GFN2-xTB          :
          :  restarted?                      false          :
          :  GBSA solvation                   true          :
          :  PC potential                    false          :
          :  electronic temp.          300.0000000     K    :
          :  accuracy                    1.0000000          :
          :  -> integral cutoff          0.2500000E+02      :
          :  -> integral neglect         0.1000000E-07      :
          :  -> SCF convergence          0.1000000E-05 Eh   :
          :  -> wf. convergence          0.1000000E-03 e    :
          :  Broyden damping             0.4000000          :
          :  net charge                          0          :
          :  unpaired electrons                  0          :
          ...................................................

 iter      E             dE          RMSdq      gap      omega  full diag
   1    -21.0590035 -0.210590E+02  0.323E+00    6.82       0.0  T
   2    -21.1065962 -0.475928E-01  0.178E+00    6.42       1.0  T
   3    -21.1076202 -0.102394E-02  0.877E-01    6.53       1.0  T
   4    -21.1078645 -0.244356E-03  0.127E-01    6.46       1.0  T
   5    -21.1079326 -0.680997E-04  0.579E-02    6.49       1.0  T
   6    -21.1079346 -0.198312E-05  0.180E-02    6.49       1.3  T
   7    -21.1079355 -0.828479E-06  0.106E-02    6.49       2.3  T
   8    -21.1079360 -0.581527E-06  0.740E-03    6.50       3.3  T
   9    -21.1079366 -0.562929E-06  0.234E-03    6.50      10.4  T
  10    -21.1079366 -0.298115E-07  0.396E-04    6.50      61.2  T
  11    -21.1079366 -0.678128E-09  0.180E-04    6.50     135.0  T

   *** convergence criteria satisfied after 11 iterations ***

         #    Occupation            Energy/Eh            Energy/eV
      -------------------------------------------------------------
         1        2.0000           -1.0552863             -28.7158
       ...           ...                  ...                  ...
        13        2.0000           -0.4623973             -12.5825
        14        2.0000           -0.4468401             -12.1591
        15        2.0000           -0.4347606             -11.8304
        16        2.0000           -0.4254231             -11.5764
        17        2.0000           -0.4230287             -11.5112
        18        2.0000           -0.4161506             -11.3240
        19        2.0000           -0.4147915             -11.2871 (HOMO)
        20                         -0.1758086              -4.7840 (LUMO)
        21                          0.0179881               0.4895
        22                          0.0226319               0.6158
        23                          0.0262727               0.7149
        24                          0.0264427               0.7195
       ...                                ...                  ...
        40                          0.3013762               8.2009
      -------------------------------------------------------------
                  HL-Gap            0.2389829 Eh            6.5031 eV
             Fermi-level           -0.2953000 Eh           -8.0355 eV

 SCC (total)                   0 d,  0 h,  0 min,  0.027 sec
 SCC setup                      ...        0 min,  0.001 sec (  3.630%)
 Dispersion                     ...        0 min,  0.000 sec (  0.306%)
 classical contributions        ...        0 min,  0.000 sec (  0.069%)
 integral evaluation            ...        0 min,  0.017 sec ( 61.931%)
 iterations                     ...        0 min,  0.005 sec ( 19.229%)
 molecular gradient             ...        0 min,  0.004 sec ( 14.179%)
 printout                       ...        0 min,  0.000 sec (  0.590%)

         :::::::::::::::::::::::::::::::::::::::::::::::::::::
         ::                     SUMMARY                     ::
         :::::::::::::::::::::::::::::::::::::::::::::::::::::
         :: total energy             -20.872589648613 Eh    ::
         :: total w/o Gsasa/hb       -20.871983323636 Eh    ::
         :: gradient norm              0.023778121658 Eh/a0 ::
         :: HOMO-LUMO gap              6.503056559275 eV    ::
         ::.................................................::
         :: SCC energy               -21.107920960603 Eh    ::
         :: -> isotropic ES            0.011812580828 Eh    ::
         :: -> anisotropic ES          0.002073885578 Eh    ::
         :: -> anisotropic XC          0.011571479011 Eh    ::
         :: -> dispersion             -0.009601672309 Eh    ::
         :: -> Gsolv                  -0.004351891886 Eh    ::
         ::    -> Gelec               -0.003745566910 Eh    ::
         ::    -> Gsasa               -0.000787565267 Eh    ::
         ::    -> Ghb                 -0.000899519408 Eh    ::
         ::    -> Gshift               0.001080759698 Eh    ::
         :: repulsion energy           0.235331311990 Eh    ::
         :: add. restraining           0.000000000000 Eh    ::
         :: total charge               0.000000000000 e     ::
         :::::::::::::::::::::::::::::::::::::::::::::::::::::

      ----------------------------------------------------------- 
     |                   =====================                   |
     |                        A N C O P T                        |
     |                   =====================                   |
     |               Approximate Normal Coordinate               |
     |                Rational Function Optimizer                |
      ----------------------------------------------------------- 
      ----------------------------------------------------------- 
     |                   =====================                   |
     |                        A N C O P T                        |
     |                   =====================                   |
     |               Approximate Normal Coordinate               |
     |                Rational Function Optimizer                |
      ----------------------------------------------------------- 

          ...................................................
          :                      SETUP                      :
          :.................................................:
          :   optimization level         verytight          :
          :   max. optcycles                   340          :
          :   ANC micro-cycles                  20          :
          :   degrees of freedom                45          :
          :.................................................:
          :   RF solver                   davidson          :
          :   write xtbopt.log                true          :
          :   linear?                        false          :
          :   energy convergence         0.1000000E-06 Eh   :
          :   grad. convergence          0.2000000E-03 Eh/α :
          :   maxmium RF displ.          1.0000000          :
          :   Hlow (freq-cutoff)         0.1000000E-01      :
          :   Hmax (freq-cutoff)         5.0000000          :
          :   S6 in model hess.         20.0000000          :
          ...................................................

generating ANC from exact Hessian ...
Using Lindh-Hessian (1995)
 Shifting diagonal of input Hessian by   7.325805588250266E-003
 Lowest  eigenvalues of input Hessian
    0.000000    0.000000    0.000000    0.000000    0.000000    0.000000
    0.010000    0.010299    0.012002    0.014565    0.017799    0.019796
    0.027746    0.033317    0.046533    0.049256    0.054008    0.058289
 Highest eigenvalues
    1.128856    1.154737    1.181201    1.208107    1.233893    1.279958
 

........................................................................
.............................. CYCLE    1 ..............................
........................................................................

 iter      E             dE          RMSdq      gap      omega  full diag
   1    -21.1079366 -0.211079E+02  0.796E-05    6.50       0.0  T
   2    -21.1079366 -0.258460E-10  0.560E-05    6.50     433.0  T
   3    -21.1079366 -0.718714E-11  0.448E-05    6.50     541.0  T
     SCC iter.                  ...        0 min,  0.001 sec
     gradient                   ...        0 min,  0.004 sec
 * total energy  :   -20.8725896 Eh     change       -0.8307310E-10 Eh
   gradient norm :     0.0237780 Eh/α   predicted     0.0000000E+00 (-100.00%)
   displ. norm   :     0.0958461 α      lambda       -0.1247694E-02
   maximum displ.:     0.0390521 α      in ANC's #22, #6, #13, ...

........................................................................
.............................. CYCLE    2 ..............................
........................................................................

 iter      E             dE          RMSdq      gap      omega  full diag
   1    -21.1158058 -0.211158E+02  0.108E-01    6.73       0.0  T
   2    -21.1158144 -0.859324E-05  0.666E-02    6.73       1.0  T
   3    -21.1158186 -0.419210E-05  0.228E-02    6.72       1.1  T
   4    -21.1158204 -0.177998E-05  0.173E-02    6.72       1.4  T
   5    -21.1158220 -0.166274E-05  0.118E-02    6.71       2.1  T
   6    -21.1158235 -0.142751E-05  0.303E-03    6.71       8.0  T
   7    -21.1158235 -0.384788E-07  0.987E-04    6.71      24.6  T
   8    -21.1158235 -0.345826E-08  0.340E-04    6.71      71.4  T
     SCC iter.                  ...        0 min,  0.003 sec
     gradient                   ...        0 min,  0.004 sec
 * total energy  :   -20.8734094 Eh     change       -0.8197758E-03 Eh
   gradient norm :     0.0126123 Eh/α   predicted    -0.6295795E-03 ( -23.20%)
   displ. norm   :     0.0578781 α      lambda       -0.3578636E-03
   maximum displ.:     0.0309309 α      in ANC's #6, #3, #2, ...

........................................................................
.............................. CYCLE    3 ..............................
........................................................................

 iter      E             dE          RMSdq      gap      omega  full diag
   1    -21.1194680 -0.211195E+02  0.563E-02    6.89       0.0  T
   2    -21.1194721 -0.413408E-05  0.367E-02    6.88       1.0  T
   3    -21.1194741 -0.197549E-05  0.162E-02    6.88       1.5  T
   4    -21.1194751 -0.983105E-06  0.119E-02    6.88       2.0  T
   5    -21.1194759 -0.836767E-06  0.800E-03    6.87       3.0  T
   6    -21.1194765 -0.643985E-06  0.200E-03    6.87      12.1  T
   7    -21.1194766 -0.163515E-07  0.723E-04    6.87      33.6  T
   8    -21.1194766 -0.139137E-08  0.107E-04    6.87     226.2  T
     SCC iter.                  ...        0 min,  0.003 sec
     gradient                   ...        0 min,  0.004 sec
 * total energy  :   -20.8736217 Eh     change       -0.2123122E-03 Eh
   gradient norm :     0.0048365 Eh/α   predicted    -0.1795318E-03 ( -15.44%)
   displ. norm   :     0.0365059 α      lambda       -0.5878293E-04
   maximum displ.:     0.0195087 α      in ANC's #6, #2, #3, ...

........................................................................
.............................. CYCLE    4 ..............................
........................................................................

 iter      E             dE          RMSdq      gap      omega  full diag
   1    -21.1189582 -0.211190E+02  0.222E-02    6.93       0.0  T
   2    -21.1189585 -0.301792E-06  0.144E-02    6.93       1.7  T
   3    -21.1189588 -0.291640E-06  0.527E-03    6.93       4.6  T
   4    -21.1189589 -0.872318E-07  0.437E-03    6.93       5.6  T
   5    -21.1189590 -0.143850E-06  0.226E-03    6.93      10.7  T
   6    -21.1189591 -0.516527E-07  0.754E-04    6.93      32.2  T
   7    -21.1189591 -0.287516E-08  0.141E-04    6.93     172.5  T
     SCC iter.                  ...        0 min,  0.003 sec
     gradient                   ...        0 min,  0.004 sec
 * total energy  :   -20.8736606 Eh     change       -0.3890915E-04 Eh
   gradient norm :     0.0020631 Eh/α   predicted    -0.2942919E-04 ( -24.36%)
   displ. norm   :     0.0344476 α      lambda       -0.1872290E-04
   maximum displ.:     0.0252622 α      in ANC's #2, #6, #3, ...

........................................................................
.............................. CYCLE    5 ..............................
........................................................................

 iter      E             dE          RMSdq      gap      omega  full diag
   1    -21.1180727 -0.211181E+02  0.171E-02    6.95       0.0  T
   2    -21.1180728 -0.445851E-07  0.102E-02    6.95       2.4  T
   3    -21.1180728 -0.346333E-07  0.176E-03    6.95      13.8  T
   4    -21.1180728 -0.855010E-08  0.143E-03    6.95      17.0  T
   5    -21.1180728 -0.145111E-07  0.752E-04    6.95      32.3  T
   6    -21.1180728 -0.484955E-08  0.402E-04    6.95      60.3  T
     SCC iter.                  ...        0 min,  0.002 sec
     gradient                   ...        0 min,  0.004 sec
 * total energy  :   -20.8736721 Eh     change       -0.1149207E-04 Eh
   gradient norm :     0.0008185 Eh/α   predicted    -0.9372892E-05 ( -18.44%)
   displ. norm   :     0.0351915 α      lambda       -0.4464786E-05
   maximum displ.:     0.0285038 α      in ANC's #2, #6, #3, ...

........................................................................
.............................. CYCLE    6 ..............................
........................................................................

 iter      E             dE          RMSdq      gap      omega  full diag
   1    -21.1176420 -0.211176E+02  0.131E-02    6.95       0.0  T
   2    -21.1176420 -0.208649E-07  0.769E-03    6.95       3.2  T
   3    -21.1176420 -0.192037E-08  0.391E-04    6.95      62.0  T
   4    -21.1176420 -0.280206E-09  0.174E-04    6.95     139.8  T
     SCC iter.                  ...        0 min,  0.002 sec
     gradient                   ...        0 min,  0.004 sec
 * total energy  :   -20.8736769 Eh     change       -0.4799486E-05 Eh
   gradient norm :     0.0009089 Eh/α   predicted    -0.2235282E-05 ( -53.43%)
   displ. norm   :     0.0323640 α      lambda       -0.3628618E-05
   maximum displ.:     0.0252903 α      in ANC's #2, #1, #4, ...

........................................................................
.............................. CYCLE    7 ..............................
........................................................................

 iter      E             dE          RMSdq      gap      omega  full diag
   1    -21.1177756 -0.211178E+02  0.109E-02    6.94       0.0  T
   2    -21.1177756 -0.735723E-08  0.646E-03    6.94       3.8  T
   3    -21.1177756 -0.493987E-08  0.629E-04    6.94      38.6  T
   4    -21.1177756 -0.100464E-08  0.505E-04    6.94      48.1  T
     SCC iter.                  ...        0 min,  0.002 sec
     gradient                   ...        0 min,  0.004 sec
 * total energy  :   -20.8736814 Eh     change       -0.4437665E-05 Eh
   gradient norm :     0.0007271 Eh/α   predicted    -0.1816240E-05 ( -59.07%)
   displ. norm   :     0.0443859 α      lambda       -0.3560611E-05
   maximum displ.:     0.0328985 α      in ANC's #2, #1, #3, ...

........................................................................
.............................. CYCLE    8 ..............................
........................................................................

 iter      E             dE          RMSdq      gap      omega  full diag
   1    -21.1179968 -0.211180E+02  0.144E-02    6.93       0.0  T
   2    -21.1179968 -0.765039E-08  0.855E-03    6.93       2.8  T
   3    -21.1179968 -0.426927E-08  0.529E-04    6.93      45.9  T
   4    -21.1179968 -0.595012E-09  0.393E-04    6.93      61.7  T
     SCC iter.                  ...        0 min,  0.002 sec
     gradient                   ...        0 min,  0.004 sec
 * total energy  :   -20.8736856 Eh     change       -0.4187496E-05 Eh
   gradient norm :     0.0003169 Eh/α   predicted    -0.1780699E-05 ( -57.48%)
   displ. norm   :     0.0435635 α      lambda       -0.2417620E-05
   maximum displ.:     0.0317969 α      in ANC's #2, #1, #3, ...

........................................................................
.............................. CYCLE    9 ..............................
........................................................................

 iter      E             dE          RMSdq      gap      omega  full diag
   1    -21.1180882 -0.211181E+02  0.154E-02    6.93       0.0  T
   2    -21.1180882 -0.738580E-08  0.914E-03    6.93       2.7  T
   3    -21.1180882 -0.584363E-08  0.637E-04    6.93      38.0  T
   4    -21.1180882 -0.111810E-08  0.476E-04    6.93      51.0  T
     SCC iter.                  ...        0 min,  0.002 sec
     gradient                   ...        0 min,  0.004 sec
 * total energy  :   -20.8736884 Eh     change       -0.2823955E-05 Eh
   gradient norm :     0.0002624 Eh/α   predicted    -0.1209005E-05 ( -57.19%)
   displ. norm   :     0.0437541 α      lambda       -0.1892318E-05
   maximum displ.:     0.0305223 α      in ANC's #2, #1, #3, ...

........................................................................
.............................. CYCLE   10 ..............................
........................................................................

 iter      E             dE          RMSdq      gap      omega  full diag
   1    -21.1180945 -0.211181E+02  0.162E-02    6.93       0.0  T
   2    -21.1180945 -0.592053E-08  0.958E-03    6.93       2.5  T
   3    -21.1180945 -0.241216E-08  0.344E-04    6.93      70.5  T
   4    -21.1180945 -0.150226E-09  0.205E-04    6.93     118.3  T
     SCC iter.                  ...        0 min,  0.002 sec
     gradient                   ...        0 min,  0.004 sec
 * total energy  :   -20.8736905 Eh     change       -0.2161081E-05 Eh
   gradient norm :     0.0003290 Eh/α   predicted    -0.9462716E-06 ( -56.21%)
   displ. norm   :     0.0468961 α      lambda       -0.1528602E-05
   maximum displ.:     0.0314393 α      in ANC's #2, #1, #3, ...

........................................................................
.............................. CYCLE   11 ..............................
........................................................................

 iter      E             dE          RMSdq      gap      omega  full diag
   1    -21.1180616 -0.211181E+02  0.190E-02    6.93       0.0  T
   2    -21.1180616 -0.638245E-08  0.112E-02    6.93       2.2  T
   3    -21.1180616 -0.313109E-08  0.361E-04    6.93      67.1  T
   4    -21.1180616 -0.304965E-10  0.145E-04    6.93     167.1  T
     SCC iter.                  ...        0 min,  0.002 sec
     gradient                   ...        0 min,  0.004 sec
 * total energy  :   -20.8736921 Eh     change       -0.1583039E-05 Eh
   gradient norm :     0.0001638 Eh/α   predicted    -0.7634086E-06 ( -51.78%)
   displ. norm   :     0.0301394 α      lambda       -0.5824542E-06
   maximum displ.:     0.0186290 α      in ANC's #1, #2, #3, ...

........................................................................
.............................. CYCLE   12 ..............................
........................................................................

 iter      E             dE          RMSdq      gap      omega  full diag
   1    -21.1180386 -0.211180E+02  0.138E-02    6.93       0.0  T
   2    -21.1180386 -0.335745E-08  0.809E-03    6.93       3.0  T
   3    -21.1180386 -0.164739E-08  0.265E-04    6.93      91.7  T
   4    -21.1180386 -0.412825E-10  0.129E-04    6.93     187.5  T
     SCC iter.                  ...        0 min,  0.002 sec
     gradient                   ...        0 min,  0.004 sec
 * total energy  :   -20.8736927 Eh     change       -0.5552538E-06 Eh
   gradient norm :     0.0000885 Eh/α   predicted    -0.2904500E-06 ( -47.69%)
   displ. norm   :     0.0108235 α      lambda       -0.2009439E-06
   maximum displ.:     0.0079938 α      in ANC's #1, #3, #2, ...

........................................................................
.............................. CYCLE   13 ..............................
........................................................................

 iter      E             dE          RMSdq      gap      omega  full diag
   1    -21.1180437 -0.211180E+02  0.590E-03    6.93       0.0  T
   2    -21.1180437 -0.797247E-09  0.346E-03    6.93       7.0  T
   3    -21.1180437 -0.451717E-09  0.164E-04    6.93     147.7  T
   4    -21.1180437 -0.591527E-10  0.124E-04    6.93     196.2  T
     SCC iter.                  ...        0 min,  0.002 sec
     gradient                   ...        0 min,  0.004 sec
 * total energy  :   -20.8736929 Eh     change       -0.2223191E-06 Eh
   gradient norm :     0.0000640 Eh/α   predicted    -0.9946845E-07 ( -55.26%)
   displ. norm   :     0.0090878 α      lambda       -0.1829760E-06
   maximum displ.:     0.0060796 α      in ANC's #4, #1, #6, ...

........................................................................
.............................. CYCLE   14 ..............................
........................................................................

 iter      E             dE          RMSdq      gap      omega  full diag
   1    -21.1180628 -0.211181E+02  0.454E-03    6.94       0.0  T
   2    -21.1180628 -0.514966E-09  0.266E-03    6.94       9.1  T
   3    -21.1180628 -0.296879E-09  0.129E-04    6.94     187.9  T
   4    -21.1180628 -0.342091E-10  0.943E-05    6.94     257.2  T
     SCC iter.                  ...        0 min,  0.002 sec
     gradient                   ...        0 min,  0.004 sec
 * total energy  :   -20.8736931 Eh     change       -0.2147892E-06 Eh
   gradient norm :     0.0000707 Eh/α   predicted    -0.9229926E-07 ( -57.03%)
   displ. norm   :     0.0090719 α      lambda       -0.1327258E-06
   maximum displ.:     0.0060886 α      in ANC's #4, #1, #2, ...

........................................................................
.............................. CYCLE   15 ..............................
........................................................................

 iter      E             dE          RMSdq      gap      omega  full diag
   1    -21.1180481 -0.211180E+02  0.377E-03    6.93       0.0  T
   2    -21.1180481 -0.299107E-09  0.222E-03    6.93      10.9  T
   3    -21.1180481 -0.140471E-09  0.736E-05    6.93     329.4  T
   4    -21.1180481 -0.157740E-11  0.318E-05    6.93     763.0  T
     SCC iter.                  ...        0 min,  0.002 sec
     gradient                   ...        0 min,  0.004 sec
 * total energy  :   -20.8736933 Eh     change       -0.1445721E-06 Eh
   gradient norm :     0.0000314 Eh/α   predicted    -0.6610268E-07 ( -54.28%)
   displ. norm   :     0.0064181 α      lambda       -0.6296045E-07
   maximum displ.:     0.0039058 α      in ANC's #1, #4, #2, ...

........................................................................
.............................. CYCLE   16 ..............................
........................................................................

 iter      E             dE          RMSdq      gap      omega  full diag
   1    -21.1180539 -0.211181E+02  0.200E-03    6.93       0.0  T
   2    -21.1180539 -0.111413E-09  0.119E-03    6.93      20.4  T
   3    -21.1180539 -0.461533E-10  0.476E-05    6.93     509.7  T
   4    -21.1180539 -0.262546E-11  0.276E-05    6.93     879.5  T
     SCC iter.                  ...        0 min,  0.002 sec
     gradient                   ...        0 min,  0.004 sec
 * total energy  :   -20.8736933 Eh     change       -0.7250694E-07 Eh
   gradient norm :     0.0000320 Eh/α   predicted    -0.3164402E-07 ( -56.36%)
   displ. norm   :     0.0045662 α      lambda       -0.4207502E-07
   maximum displ.:     0.0029951 α      in ANC's #1, #3, #2, ...

   *** GEOMETRY OPTIMIZATION CONVERGED AFTER 16 ITERATIONS ***

------------------------------------------------------------------------
 total energy gain   :        -0.0011037 Eh       -0.6926 kcal/mol
 total RMSD          :         0.0979911 a0        0.0519 Å
 total power (kW/mol):        -0.1811088 (step)  -20.1385 (real)
------------------------------------------------------------------------

 ANCopt (total)                0 d,  0 h,  0 min,  0.144 sec
 optimizer setup                ...        0 min,  0.000 sec (  0.196%)
 model hessian                  ...        0 min,  0.005 sec (  3.271%)
 ANC generation                 ...        0 min,  0.000 sec (  0.271%)
 coordinate transformation      ...        0 min,  0.000 sec (  0.070%)
 single point calculation       ...        0 min,  0.129 sec ( 89.830%)
 optimization log               ...        0 min,  0.006 sec (  4.174%)
 hessian update                 ...        0 min,  0.000 sec (  0.074%)
 rational function              ...        0 min,  0.002 sec (  1.579%)

================
 final structure:
================
$coord
        5.90148553680790       -1.65041777077536        0.65694337626780      C
        5.04654952080389        0.76524799710795       -0.66027966727827      C
        2.51878657773145        1.76557148383001        0.32095807434074      C
        0.30022784050429        0.02468539078332       -0.31693223566111      C
       -2.17717256763612        1.21662211574405        0.50141128893132      C
       -4.79546860065240       -0.82871688370468       -0.22223639744172      Cl
        4.62251308145900       -3.20552514976062        0.25503113475148      H
        5.97381594022355       -1.37193605749373        2.69188545770567      H
        7.77685508795529       -2.18492235032561        0.00992347188258      H
        6.47848794721822        2.22245386461290       -0.37000768131856      H
        4.90342879835879        0.42549448883099       -2.69030554460430      H
        2.17033096280711        3.61884501711955       -0.51643153165363      H
        2.63071934582057        2.00955838854853        2.36605903760756      H
        0.52400124210097       -1.78694519563944        0.63788842787040      H
        0.25625206031029       -0.32317182125576       -2.34953346373212      H
       -2.23576913501834        1.52482448111431        2.53461022376314      H
       -2.53826709292961        2.98176639707515       -0.49184882665854      H
$end
 
 Bond Distances (Angstroems)
 ---------------------------
C1-C2=1.5247         C1-H7=1.0865         C1-H8=1.0876         C1-H9=1.0872         C2-C1=1.5247         C2-C3=1.5294         
C2-H10=1.0920        C2-H11=1.0918        C3-C2=1.5294         C3-C4=1.5300         C3-H12=1.0919        C3-H13=1.0915        
C4-C3=1.5300         C4-C5=1.5179         C4-H14=1.0901        C4-H15=1.0915        C5-C4=1.5179         C5-Cl6=1.7994        
C5-H16=1.0887        C5-H17=1.0887        Cl6-C5=1.7994        H7-C1=1.0865         H8-C1=1.0876         H9-C1=1.0872         
H10-C2=1.0920        H11-C2=1.0918        H12-C3=1.0919        H13-C3=1.0915        H14-C4=1.0901        H15-C4=1.0915        
H16-C5=1.0887        H17-C5=1.0887        
 C  H  Rav=1.0898 sigma=0.0020  Rmin=1.0865  Rmax=1.0920    11
 C  C  Rav=1.5255 sigma=0.0048  Rmin=1.5179  Rmax=1.5300     4
 Cl C  Rav=1.7994 sigma=0.0000  Rmin=1.7994  Rmax=1.7994     1
 
 selected bond angles (degree)
 --------------------
H7-C1-C2=111.14                H8-C1-C2=110.46                H8-C1-H7=108.56                H9-C1-C2=110.18                
H9-C1-H7=108.05                H9-C1-H8=108.36                C3-C2-C1=113.23                H10-C2-C1=108.77               
H10-C2-C3=108.35               H11-C2-C1=109.41               H11-C2-C3=109.29               H11-C2-H10=107.63              
C4-C3-C2=112.82                H12-C3-C2=108.71               H12-C3-C4=108.77               H13-C3-C2=109.27               
H13-C3-C4=109.37               H13-C3-H12=107.78              C5-C4-C3=110.46                H14-C4-C3=110.11               
H14-C4-C5=109.09               H15-C4-C3=109.59               H15-C4-C5=109.44               H15-C4-H14=108.10              
Cl6-C5-C4=110.75               H16-C5-C4=111.64               H16-C5-Cl6=106.17              H17-C5-C4=111.74               
H17-C5-Cl6=106.15              H17-C5-H16=110.10              
 
 selected dihedral angles (degree)
 ---------------------------------
C3-C2-C1-H7= 65.27            C3-C2-C1-H8=304.70            C3-C2-C1-H9=185.02            H10-C2-C1-H7=185.78           
H10-C2-C1-H8= 65.21           H10-C2-C1-H9=305.53           H11-C2-C1-H7=303.10           H11-C2-C1-H8=182.53           
H11-C2-C1-H9= 62.85           C4-C3-C2-C1=292.88            C4-C3-C2-H10=172.12           C4-C3-C2-H11= 55.12           
H12-C3-C2-C1=172.15           H12-C3-C2-H10= 51.39          H12-C3-C2-H11=294.39          H13-C3-C2-C1= 54.76           
H13-C3-C2-H10=294.01          H13-C3-C2-H11=177.00          C5-C4-C3-C2=184.85            C5-C4-C3-H12=305.55           
C5-C4-C3-H13= 63.01           H14-C4-C3-C2= 64.30           H14-C4-C3-H12=184.99          H14-C4-C3-H13=302.46          
H15-C4-C3-C2=305.50           H15-C4-C3-H12= 66.20          H15-C4-C3-H13=183.67          Cl6-C5-C4-C3=180.40           
Cl6-C5-C4-H14=301.56          Cl6-C5-C4-H15= 59.65          H16-C5-C4-C3=298.48           H16-C5-C4-H14= 59.65          
H16-C5-C4-H15=177.74          H17-C5-C4-C3= 62.28           H17-C5-C4-H14=183.44          H17-C5-C4-H15=301.53          
           -------------------------------------------------
          |                Final Singlepoint                |
           -------------------------------------------------

          ...................................................
          :                      SETUP                      :
          :.................................................:
          :  # basis functions                  41          :
          :  # atomic orbitals                  40          :
          :  # shells                           24          :
          :  # electrons                        38          :
          :  max. iterations                   250          :
          :  Hamiltonian                  GFN2-xTB          :
          :  restarted?                      false          :
          :  GBSA solvation                   true          :
          :  PC potential                    false          :
          :  electronic temp.          300.0000000     K    :
          :  accuracy                    1.0000000          :
          :  -> integral cutoff          0.2500000E+02      :
          :  -> integral neglect         0.1000000E-07      :
          :  -> SCF convergence          0.1000000E-05 Eh   :
          :  -> wf. convergence          0.1000000E-03 e    :
          :  Broyden damping             0.4000000          :
          :  net charge                          0          :
          :  unpaired electrons                  0          :
          ...................................................

 iter      E             dE          RMSdq      gap      omega  full diag
   1    -21.1180539 -0.211181E+02  0.988E-06    6.93       0.0  T
   2    -21.1180539 -0.227374E-12  0.833E-06    6.93    2910.8  T
   3    -21.1180539 -0.401457E-12  0.515E-06    6.93    4713.6  T

   *** convergence criteria satisfied after 3 iterations ***

         #    Occupation            Energy/Eh            Energy/eV
      -------------------------------------------------------------
         1        2.0000           -1.0569277             -28.7605
       ...           ...                  ...                  ...
        13        2.0000           -0.4629195             -12.5967
        14        2.0000           -0.4479939             -12.1905
        15        2.0000           -0.4350002             -11.8370
        16        2.0000           -0.4261712             -11.5967
        17        2.0000           -0.4242237             -11.5437
        18        2.0000           -0.4154104             -11.3039
        19        2.0000           -0.4143558             -11.2752 (HOMO)
        20                         -0.1595061              -4.3404 (LUMO)
        21                          0.0141100               0.3840
        22                          0.0200280               0.5450
        23                          0.0241266               0.6565
        24                          0.0243709               0.6632
       ...                                ...                  ...
        40                          0.3115842               8.4786
      -------------------------------------------------------------
                  HL-Gap            0.2548497 Eh            6.9348 eV
             Fermi-level           -0.2869310 Eh           -7.8078 eV

 SCC (total)                   0 d,  0 h,  0 min,  0.008 sec
 SCC setup                      ...        0 min,  0.001 sec ( 12.360%)
 Dispersion                     ...        0 min,  0.000 sec (  0.904%)
 classical contributions        ...        0 min,  0.000 sec (  0.213%)
 integral evaluation            ...        0 min,  0.001 sec ( 17.471%)
 iterations                     ...        0 min,  0.001 sec ( 16.980%)
 molecular gradient             ...        0 min,  0.004 sec ( 50.114%)
 printout                       ...        0 min,  0.000 sec (  1.758%)

         :::::::::::::::::::::::::::::::::::::::::::::::::::::
         ::                     SUMMARY                     ::
         :::::::::::::::::::::::::::::::::::::::::::::::::::::
         :: total energy             -20.873693340061 Eh    ::
         :: total w/o Gsasa/hb       -20.873131348410 Eh    ::
         :: gradient norm              0.000031915059 Eh/a0 ::
         :: HOMO-LUMO gap              6.934813099242 eV    ::
         ::.................................................::
         :: SCC energy               -21.118038753607 Eh    ::
         :: -> isotropic ES            0.011089797329 Eh    ::
         :: -> anisotropic ES          0.002358684103 Eh    ::
         :: -> anisotropic XC          0.011478470574 Eh    ::
         :: -> dispersion             -0.009647883739 Eh    ::
         :: -> Gsolv                  -0.003878396558 Eh    ::
         ::    -> Gelec               -0.003316404908 Eh    ::
         ::    -> Gsasa               -0.000788707703 Eh    ::
         ::    -> Ghb                 -0.000854043646 Eh    ::
         ::    -> Gshift               0.001080759698 Eh    ::
         :: repulsion energy           0.244345413547 Eh    ::
         :: add. restraining           0.000000000000 Eh    ::
         :: total charge               0.000000000000 e     ::
         :::::::::::::::::::::::::::::::::::::::::::::::::::::

           ------------------------------------------------- 
          |                Numerical Hessian                |
           ------------------------------------------------- 
step length          :   0.00500
SCC accuracy         :   0.30000
Hessian scale factor :   1.00000
frozen atoms in %    :   0.00000    0
RMS gradient         :   0.00003
estimated CPU  time      0.01 min
estimated wall time      0.01 min

writing file <hessian>.

 projected vibrational frequencies (cm⁻¹)
eigval :       -0.00    -0.00    -0.00    -0.00    -0.00     0.00
eigval :       62.16    78.52   118.71   147.53   247.56   295.80
eigval :      337.69   450.56   717.20   772.95   802.18   851.39
eigval :      932.18   983.77  1010.64  1071.54  1076.66  1122.03
eigval :     1132.17  1180.53  1217.16  1242.02  1260.72  1274.09
eigval :     1301.91  1347.98  1358.99  1412.63  1431.03  1482.98
eigval :     1484.65  1489.91  1501.58  1506.89  2965.90  2968.52
eigval :     2980.53  2984.19  2986.05  2990.15  2995.21  3005.08
eigval :     3029.63  3034.25  3046.86
           -------------------------------------------------
          |                Property Printout                |
           -------------------------------------------------

    * Orbital Energies and Occupations

         #    Occupation            Energy/Eh            Energy/eV
      -------------------------------------------------------------
         1        2.0000           -1.0569277             -28.7605
       ...           ...                  ...                  ...
         7        2.0000           -0.5301308             -14.4256
         8        2.0000           -0.5122343             -13.9386
         9        2.0000           -0.5106429             -13.8953
        10        2.0000           -0.4962500             -13.5037
        11        2.0000           -0.4804948             -13.0749
        12        2.0000           -0.4729042             -12.8684
        13        2.0000           -0.4629196             -12.5967
        14        2.0000           -0.4479940             -12.1905
        15        2.0000           -0.4350003             -11.8370
        16        2.0000           -0.4261712             -11.5967
        17        2.0000           -0.4242237             -11.5437
        18        2.0000           -0.4154104             -11.3039
        19        2.0000           -0.4143559             -11.2752 (HOMO)
        20                         -0.1595063              -4.3404 (LUMO)
        21                          0.0141100               0.3840
        22                          0.0200280               0.5450
        23                          0.0241266               0.6565
        24                          0.0243709               0.6632
        25                          0.0837317               2.2785
        26                          0.0911882               2.4814
        27                          0.1090957               2.9686
        28                          0.1277174               3.4754
        29                          0.1426764               3.8824
        30                          0.1446243               3.9354
       ...                                ...                  ...
        40                          0.3115842               8.4786
      -------------------------------------------------------------
                  HL-Gap            0.2548496 Eh            6.9348 eV
             Fermi-level           -0.2869311 Eh           -7.8078 eV

     #   Z          covCN         q      C6AA      α(0)
     1   6 C        3.751    -0.113    22.730     6.799
     2   6 C        3.800    -0.060    21.647     6.624
     3   6 C        3.803    -0.067    21.776     6.644
     4   6 C        3.827    -0.066    21.752     6.636
     5   6 C        3.715     0.026    20.256     6.430
     6  17 Cl       0.912    -0.266   107.617    15.871
     7   1 H        0.925     0.038     2.476     2.460
     8   1 H        0.925     0.040     2.453     2.449
     9   1 H        0.925     0.038     2.475     2.460
    10   1 H        0.924     0.039     2.465     2.455
    11   1 H        0.924     0.037     2.492     2.468
    12   1 H        0.924     0.040     2.443     2.444
    13   1 H        0.924     0.044     2.401     2.423
    14   1 H        0.925     0.057     2.234     2.337
    15   1 H        0.924     0.054     2.265     2.354
    16   1 H        0.925     0.080     1.976     2.198
    17   1 H        0.925     0.079     1.987     2.204

 Mol. C6AA /au·bohr⁶  :       2535.057240
 Mol. C8AA /au·bohr⁸  :      62566.869028
 Mol. α(0) /au        :         75.259510


Wiberg/Mayer (AO) data.
largest (>0.10) Wiberg bond orders for each atom

 ---------------------------------------------------------------------------
     #   Z sym  total        # sym  WBO       # sym  WBO       # sym  WBO
 ---------------------------------------------------------------------------
     1   6 C    3.996 --     2 C    1.020     8 H    0.987     9 H    0.987
                             7 H    0.986
     2   6 C    3.997 --     1 C    1.020     3 C    1.007    11 H    0.978
                            10 H    0.977
     3   6 C    3.995 --     2 C    1.007     4 C    0.999    12 H    0.977
                            13 H    0.977
     4   6 C    3.990 --     5 C    1.017     3 C    0.999    15 H    0.975
                            14 H    0.973
     5   6 C    3.908 --     4 C    1.017    16 H    0.977    17 H    0.977
                             6 Cl   0.918
     6  17 Cl   0.960 --     5 C    0.918
     7   1 H    0.999 --     1 C    0.986
     8   1 H    0.998 --     1 C    0.987
     9   1 H    0.998 --     1 C    0.987
    10   1 H    0.998 --     2 C    0.977
    11   1 H    0.999 --     2 C    0.978
    12   1 H    0.998 --     3 C    0.977
    13   1 H    0.998 --     3 C    0.977
    14   1 H    0.997 --     4 C    0.973
    15   1 H    0.997 --     4 C    0.975
    16   1 H    0.994 --     5 C    0.977
    17   1 H    0.994 --     5 C    0.977
 ---------------------------------------------------------------------------

Topologies differ in total number of bonds
Writing topology from bond orders to xtbtopo.mol

molecular dipole:
                 x           y           z       tot (Debye)
 q only:        1.069       0.590       0.196
   full:        0.904       0.543       0.183       2.722
molecular quadrupole (traceless):
                xx          xy          yy          xz          yz          zz
 q only:       -5.191      -2.752       2.861      -0.957       0.199       2.331
  q+dip:       -6.101      -2.839       2.475      -0.859      -0.052       3.626
   full:       -5.206      -2.342       2.556      -0.733       0.170       2.650

           -------------------------------------------------
          |                Geometry Summary                 |
           -------------------------------------------------

      molecular mass/u    :      106.5939653
   center of mass at/Å    :       -0.0000270       0.0002201       0.0012184
  moments of inertia/u·Å² :        0.6180694E+02   0.5421721E+03   0.5759451E+03
rotational constants/cm⁻¹ :        0.2727466E+00   0.3109277E-01   0.2926951E-01

 * 16 selected distances

     #   Z          #   Z                                           value/Å
     1   6 C        2   6 C                                       1.5246765
     2   6 C        3   6 C                                       1.5294102
     3   6 C        4   6 C                                       1.5300080
     4   6 C        5   6 C                                       1.5179099
     5   6 C        6  17 Cl                                      1.7994012 (max)
     1   6 C        7   1 H                                       1.0865110 (min)
     1   6 C        8   1 H                                       1.0875556
     1   6 C        9   1 H                                       1.0872424
     2   6 C       10   1 H                                       1.0919729
     2   6 C       11   1 H                                       1.0918148
     3   6 C       12   1 H                                       1.0918590
     3   6 C       13   1 H                                       1.0915038
     4   6 C       14   1 H                                       1.0901260
     4   6 C       15   1 H                                       1.0914922
     5   6 C       16   1 H                                       1.0886554
     5   6 C       17   1 H                                       1.0887029

 * 3 distinct bonds (by element types)

   Z      Z             #   av. dist./Å        max./Å        min./Å
   1 H    6 C          11     1.0897669     1.0919729     1.0865110
   6 C    6 C           4     1.5255011     1.5300080     1.5179099
   6 C   17 Cl          1     1.7994012     1.7994012     1.7994012

           -------------------------------------------------
          |               Frequency Printout                |
           -------------------------------------------------
 projected vibrational frequencies (cm⁻¹)
eigval :       -0.00    -0.00    -0.00    -0.00    -0.00     0.00
eigval :       62.16    78.52   118.71   147.53   247.56   295.80
eigval :      337.69   450.56   717.20   772.95   802.18   851.39
eigval :      932.18   983.77  1010.64  1071.54  1076.66  1122.03
eigval :     1132.17  1180.53  1217.16  1242.02  1260.72  1274.09
eigval :     1301.91  1347.98  1358.99  1412.63  1431.03  1482.98
eigval :     1484.65  1489.91  1501.58  1506.89  2965.90  2968.52
eigval :     2980.53  2984.19  2986.05  2990.15  2995.21  3005.08
eigval :     3029.63  3034.25  3046.86
 reduced masses (amu)
   1:  8.88   2: 28.23   3: 11.90   4: 26.63   5: 17.63   6: 12.67   7:  9.42   8: 10.28
   9: 12.18  10:  9.00  11:  4.62  12: 14.88  13: 13.24  14:  8.30  15: 15.26  16:  2.07
  17:  2.78  18:  3.43  19:  7.26  20:  4.49  21:  6.03  22:  5.02  23:  6.80  24:  7.97
  25:  7.33  26:  6.06  27:  3.12  28:  3.42  29:  2.76  30:  2.01  31:  3.36  32:  4.44
  33:  5.09  34:  3.24  35:  2.03  36:  1.94  37:  1.83  38:  1.93  39:  1.62  40:  1.55
  41:  1.95  42:  1.90  43:  1.75  44:  1.69  45:  1.50  46:  1.56  47:  1.89  48:  1.67
  49:  1.91  50:  1.85  51:  1.38
 IR intensities (km·mol⁻¹)
   1:  0.59   2:  0.42   3:  0.02   4:  0.78   5:  0.31   6:  0.17   7:  1.58   8:  0.15
   9:  1.31  10:  1.09  11:  0.31  12:  0.09  13:  1.40  14:  3.22  15:  0.31  16: 12.31
  17:  8.24  18:  1.56  19:  1.68  20:  0.83  21:  1.53  22:  0.42  23:  3.42  24:  0.48
  25:  1.99  26:  2.13  27:  6.95  28:  0.44  29:  6.75  30:  3.63  31:  5.98  32:  8.60
  33:  3.35  34:  1.81  35:  0.28  36:  0.62  37:  0.40  38:  0.84  39:  0.69  40:  1.15
  41: 47.81  42: 33.77  43:  9.97  44:105.46  45: 49.34  46: 12.44  47: 49.88  48: 48.10
  49: 83.55  50: 81.62  51: 48.25
 Raman intensities (Ä⁴*amu⁻¹)
   1:  0.00   2:  0.00   3:  0.00   4:  0.00   5:  0.00   6:  0.00   7:  0.00   8:  0.00
   9:  0.00  10:  0.00  11:  0.00  12:  0.00  13:  0.00  14:  0.00  15:  0.00  16:  0.00
  17:  0.00  18:  0.00  19:  0.00  20:  0.00  21:  0.00  22:  0.00  23:  0.00  24:  0.00
  25:  0.00  26:  0.00  27:  0.00  28:  0.00  29:  0.00  30:  0.00  31:  0.00  32:  0.00
  33:  0.00  34:  0.00  35:  0.00  36:  0.00  37:  0.00  38:  0.00  39:  0.00  40:  0.00
  41:  0.00  42:  0.00  43:  0.00  44:  0.00  45:  0.00  46:  0.00  47:  0.00  48:  0.00
  49:  0.00  50:  0.00  51:  0.00
 output can be read by thermo (or use thermo option).
 writing <g98.out> molden fake output.
 recommended (thermochemical) frequency scaling factor: 1.0
           -------------------------------------------------
          |             Thermodynamic Functions             |
           -------------------------------------------------

Molecule has no symmetry elements
It seems to be the C1 point group
c1  symmetry found (for desy threshold:  0.10E+00) used in thermo

          ...................................................
          :                      SETUP                      :
          :.................................................:
          :  # frequencies                          45      :
          :  # imaginary freq.                       0      :
          :  linear?                             false      :
          :  only rotor calc.                    false      :
          :  symmetry                               c1      :
          :  rotational number                       1      :
          :  scaling factor                  1.0000000      :
          :  rotor cutoff                    0.0000000 cm⁻¹ :
          :  imag. cutoff                 -100.0000000 cm⁻¹ :
          :.................................................:

    mode    ω/cm⁻¹     T·S(HO)/kcal·mol⁻¹    T·S(FR)/kcal·mol⁻¹   T·S(vib)
   ------------------------------------------------------------------------
       1     62.16    -1.30812 (100.00%)    -0.99187 (  0.00%)    -1.30812
       2     78.52    -1.17099 (100.00%)    -0.92269 (  0.00%)    -1.17099
       3    118.71    -0.93058 (100.00%)    -0.80028 (  0.00%)    -0.93058
       4    147.53    -0.80615 (100.00%)    -0.73593 (  0.00%)    -0.80615
       5    247.56    -0.52113 (100.00%)    -0.58262 (  0.00%)    -0.52113
       6    295.80    -0.42950 (100.00%)    -0.52989 (  0.00%)    -0.42950
   ------------------------------------------------------------------------

   temp. (K)  partition function   enthalpy   heat capacity  entropy
                                   cal/mol     cal/K/mol   cal/K/mol   J/K/mol
 298.15  VIB   172.                 3254.415     21.131     21.145
         ROT  0.336E+06              888.752      2.981     28.266
         INT  0.577E+08             4143.167     24.112     49.412
         TR   0.106E+28             1481.254      4.968     39.890
         TOT                        5624.4213    29.0804    89.3018   373.6385

       T/K    H(0)-H(T)+PV         H(T)/Eh          T*S/Eh         G(T)/Eh
   ------------------------------------------------------------------------
    298.15    0.896309E-02    0.158618E+00    0.424301E-01    0.116187E+00
   ------------------------------------------------------------------------

         :::::::::::::::::::::::::::::::::::::::::::::::::::::
         ::                  THERMODYNAMIC                  ::
         :::::::::::::::::::::::::::::::::::::::::::::::::::::
         :: total free energy         -20.757505964453 Eh   ::
         ::.................................................::
         :: total energy              -20.873693340098 Eh   ::
         :: zero point energy           0.149654433027 Eh   ::
         :: G(RRHO) w/o ZPVE           -0.033467057383 Eh   ::
         :: G(RRHO) contrib.            0.116187375645 Eh   ::
         :::::::::::::::::::::::::::::::::::::::::::::::::::::

optimized geometry written to: xtbopt.coord


           -------------------------------------------------
          | TOTAL ENERGY              -20.873693340098 Eh   |
          | TOTAL ENTHALPY            -20.715075821270 Eh   |
          | TOTAL FREE ENERGY         -20.757505964453 Eh   |
          | GRADIENT NORM               0.000031829161 Eh/α |
          | HOMO-LUMO GAP               6.934809849486 eV   |
           -------------------------------------------------

------------------------------------------------------------------------
 * finished run on 2025/04/11 at 16:00:45.662     
------------------------------------------------------------------------
 total:
 * wall-time:     0 d,  0 h,  0 min,  1.086 sec
 *  cpu-time:     0 d,  0 h,  0 min,  0.998 sec
 * ratio c/w:     0.919 speedup
 SCF:
 * wall-time:     0 d,  0 h,  0 min,  0.028 sec
 *  cpu-time:     0 d,  0 h,  0 min,  0.013 sec
 * ratio c/w:     0.466 speedup
 ANC optimizer:
 * wall-time:     0 d,  0 h,  0 min,  0.162 sec
 *  cpu-time:     0 d,  0 h,  0 min,  0.148 sec
 * ratio c/w:     0.913 speedup
 analytical hessian:
 * wall-time:     0 d,  0 h,  0 min,  0.837 sec
 *  cpu-time:     0 d,  0 h,  0 min,  0.826 sec
 * ratio c/w:     0.987 speedup

