
                                 *****************
                                 * O   R   C   A *
                                 *****************

                                            #,                                       
                                            ###                                      
                                            ####                                     
                                            #####                                    
                                            ######                                   
                                           ########,                                 
                                     ,,################,,,,,                         
                               ,,#################################,,                 
                          ,,##########################################,,             
                       ,#########################################, ''#####,          
                    ,#############################################,,   '####,        
                  ,##################################################,,,,####,       
                ,###########''''           ''''###############################       
              ,#####''   ,,,,##########,,,,          '''####'''          '####       
            ,##' ,,,,###########################,,,                        '##       
           ' ,,###''''                  '''############,,,                           
         ,,##''                                '''############,,,,        ,,,,,,###''
      ,#''                                            '''#######################'''  
     '                                                          ''''####''''         
             ,#######,   #######,   ,#######,      ##                                
            ,#'     '#,  ##    ##  ,#'     '#,    #''#        ,####,   ,####,        
            ##       ##  ##   ,#'  ##            #'  '#       #'       #'  '#        
            ##       ##  #######   ##           ,######,      #####,   #    #        
            '#,     ,#'  ##    ##  '#,     ,#' ,#      #,     #,   #   #,  ,#        
             '#######'   ##     ##  '#######'  #'      '#     '####' # '####'        



                #########################################################
                #                        -***-                          #
                #          Department of theory and spectroscopy        #
                #                                                       #
                #                      Frank Neese                      #
                #                                                       #
                #     Directorship, Architecture, Infrastructure        #
                #                    SHARK, DRIVERS                     #
                #        Core code/Algorithms in most modules           #
                #                                                       #
                #        Max Planck Institute fuer Kohlenforschung      #
                #                Kaiser Wilhelm Platz 1                 #
                #                 D-45470 Muelheim/Ruhr                 #
                #                      Germany                          #
                #                                                       #
                #                  All rights reserved                  #
                #                        -***-                          #
                #########################################################


                         Program Version 6.0.0  -   RELEASE  -


 With contributions from (in alphabetic order):
   Daniel Aravena         : Magnetic Suceptibility
   Michael Atanasov       : Ab Initio Ligand Field Theory (pilot matlab implementation)
   Alexander A. Auer      : GIAO ZORA, VPT2 properties, NMR spectrum
   Ute Becker             : All parallelization in ORCA, NUMFREQ, NUMCALC
   Giovanni Bistoni       : ED, misc. LED, open-shell LED, HFLD
   Martin Brehm           : Molecular dynamics
   Dmytro Bykov           : pre 5.0 version of the SCF Hessian
   Marcos Casanova-Páez   : Triplet and SCS-CIS(D). UHF-(DLPNO)-IP/EA/STEOM-CCSD. UHF-CVS-IP/STEOM-CCSD
   Vijay G. Chilkuri      : MRCI spin determinant printing, contributions to CSF-ICE
   Pauline Colinet        : FMM embedding
   Dipayan Datta          : RHF DLPNO-CCSD density
   Achintya Kumar Dutta   : EOM-CC, STEOM-CC
   Nicolas Foglia         : Exact transition moments, OPA infrastructure, MCD improvements
   Dmitry Ganyushin       : Spin-Orbit,Spin-Spin,Magnetic field MRCI
   Miquel Garcia          : C-PCM and meta-GGA Hessian, CCSD/C-PCM, Gaussian charge scheme
   Tiago L. C. Gouveia    : GS-ROHF, GS-ROCIS
   Yang Guo               : DLPNO-NEVPT2, F12-NEVPT2, CIM, IAO-localization
   Andreas Hansen         : Spin unrestricted coupled pair/coupled cluster methods
   Ingolf Harden          : AUTO-CI MPn and infrastructure 
   Benjamin Helmich-Paris : MC-RPA, TRAH-(SCF,CASSCF), AVAS, COSX integrals, SCF dyn. polar.
   Lee Huntington         : MR-EOM, pCC
   Robert Izsak           : Overlap fitted RIJCOSX, COSX-SCS-MP3, EOM
   Riya Kayal             : Wick's Theorem for AUTO-CI, AUTO-CI UHF-CCSDT
   Emily Kempfer          : AUTO-CI, RHF CISDT and CCSDT
   Christian Kollmar      : KDIIS, OOCD, Brueckner-CCSD(T), CCSD density, CASPT2, CASPT2-K, improved NEVPT2
   Axel Koslowski         : Symmetry handling
   Simone Kossmann        : Meta GGA functionals, TD-DFT gradient, OOMP2, (MP2 Hessian; deprecated post 5.0)
   Lucas Lang             : DCDCAS
   Marvin Lechner         : AUTO-CI (C++ implementation), FIC-MRCC
   Spencer Leger          : CASSCF response
   Dagmar Lenk            : GEPOL surface, SMD, ORCA-2-JSON
   Dimitrios Liakos       : Extrapolation schemes; Compound Job, initial MDCI parallelization
   Dimitrios Manganas     : Further ROCIS development; embedding schemes. LFT, Crystal Embedding
   Dimitrios Pantazis     : SARC Basis sets
   Anastasios Papadopoulos: AUTO-CI, single reference methods and gradients
   Taras Petrenko         : pre 6.0 DFT Hessian and TD-DFT gradient, (ASA, deprecated), ECA, 1-Electron XAS/XES, NRVS
   Peter Pinski           : DLPNO-MP2, DLPNO-MP2 Gradient
   Christoph Reimann      : Effective Core Potentials
   Marius Retegan         : Local ZFS, SOC
   Christoph Riplinger    : Optimizer, TS searches, QM/MM, DLPNO-CCSD(T), (RO)-DLPNO pert. Triples
   Michael Roemelt        : Original ROCIS implementation
   Masaaki Saitow         : Open-shell DLPNO-CCSD energy and density
   Barbara Sandhoefer     : DKH picture change effects
   Kantharuban Sivalingam : CASSCF convergence/infrastructure, NEVPT2 and variants, FIC-MRCI
   Bernardo de Souza      : ESD, SOC TD-DFT
   Georgi Stoychev        : AutoAux, RI-MP2 NMR, DLPNO-MP2 response, X2C
   Van Anh Tran           : RI-MP2 g-tensors
   Willem Van den Heuvel  : Paramagnetic NMR
   Zikuan Wang            : NOTCH, Electric field optimization 
   Frank Wennmohs         : Technical directorship and infrastructure
   Hang Xu                : AUTO-CI-Response properties 


 We gratefully acknowledge several colleagues who have allowed us to
 interface, adapt or use parts of their codes:
   Stefan Grimme, W. Hujo, H. Kruse, P. Pracht,  : VdW corrections, initial TS optimization,
                  C. Bannwarth, S. Ehlert,         DFT functionals, gCP, sTDA/sTD-DF
                  L. Wittmann, M. Mueller
   Ed Valeev, F. Pavosevic, A. Kumar             : LibInt (2-el integral package), F12 methods
   Garnet Chan, S. Sharma, J. Yang, R. Olivares  : DMRG
   Ulf Ekstrom                                   : XCFun DFT Library
   Mihaly Kallay                                 : mrcc  (arbitrary order and MRCC methods)
   Frank Weinhold                                : gennbo (NPA and NBO analysis)
   Simon Mueller                                 : openCOSMO-RS
   Christopher J. Cramer and Donald G. Truhlar   : smd solvation model
   Lars Goerigk                                  : TD-DFT with DH, B97 family of functionals
   V. Asgeirsson, H. Jonsson                     : NEB implementation
   FAccTs GmbH                                   : IRC, NEB, NEB-TS, DLPNO-Multilevel, CI-OPT
                                                   MM, QMMM, 2- and 3-layer-ONIOM, Crystal-QMMM,
                                                   LR-CPCM, SF, NACMEs, symmetry and pop. for TD-DFT,
                                                   nearIR, NL-DFT gradient (VV10), updates on ESD,
                                                   ML-optimized integration grids, MBIS, APM,
                                                   GOAT, DOCKER, SOLVATOR, interface openCOSMO-RS
   S Lehtola, MJT Oliveira, MAL Marques          : LibXC Library
   Liviu Ungur et al                             : ANISO software


 Your calculation uses the libint2 library for the computation of 2-el integrals
 For citations please refer to: http://libint.valeyev.net

 Your ORCA version has been built with support for libXC version: 6.2.2
 For citations please refer to: https://libxc.gitlab.io

 This ORCA versions uses:
   CBLAS   interface :  Fast vector & matrix operations
   LAPACKE interface :  Fast linear algebra routines
   SCALAPACK package :  Parallel linear algebra routines
   Shared memory     :  Shared parallel matrices
   BLAS/LAPACK       :  OpenBLAS 0.3.27  USE64BITINT DYNAMIC_ARCH NO_AFFINITY SkylakeX SINGLE_THREADED
        Core in use  :  SkylakeX
   Copyright (c) 2011-2014, The OpenBLAS Project


Your calculation utilizes the geometrical counterpoise correction gCP
Please cite in your paper:
H.Kruse, S. Grimme J.Chem.Phys., 136, (2012), 154101 
   

Your calculation utilizes the atom-pairwise dispersion correction
based on EEQ partial charges (D4)


Your calculation utilizes the SMD solvation module
Please cite in your paper:
A.V. Marenich, C.J. Cramer, D.G. Truhlar J. Phys. Chem. B, 113, (2009), 6378 

================================================================================

----- Orbital basis set information -----
Your calculation utilizes the basis: def2-mTZVPP
   Stefan Grimme, Andreas Hansen, Sebastian Ehlert, and Jan-Michael Mewes 
   J. Chem. Phys. 154, 064103 (2021). DOI: 10.1063/5.0040021

----- AuxJ basis set information -----
Your calculation utilizes the auxiliary basis: def2/J
   F. Weigend, Phys. Chem. Chem. Phys. 8, 1057 (2006).

================================================================================
                                        WARNINGS
                       Please study these warnings very carefully!
================================================================================

Using LibXC functional ID 497 : Re-regularized SCAN exchange by Furness et al
[ 1]  J. W. Furness, A. D. Kaplan, J. Ning, J. P. Perdew, and J. Sun.,  J. Phys. Chem. Lett. 11, 8208-8215 (2020)
[ 2]  J. W. Furness, A. D. Kaplan, J. Ning, J. P. Perdew, and J. Sun.,  J. Phys. Chem. Lett. 11, 9248-9248 (2020)
Using LibXC functional ID 498 : Re-regularized SCAN correlation by Furness et al
[ 1]  J. W. Furness, A. D. Kaplan, J. Ning, J. P. Perdew, and J. Sun.,  J. Phys. Chem. Lett. 11, 8208-8215 (2020)
[ 2]  J. W. Furness, A. D. Kaplan, J. Ning, J. P. Perdew, and J. Sun.,  J. Phys. Chem. Lett. 11, 9248-9248 (2020)
Using LibXC functional ID 497 : Re-regularized SCAN exchange by Furness et al
[ 1]  J. W. Furness, A. D. Kaplan, J. Ning, J. P. Perdew, and J. Sun.,  J. Phys. Chem. Lett. 11, 8208-8215 (2020)
[ 2]  J. W. Furness, A. D. Kaplan, J. Ning, J. P. Perdew, and J. Sun.,  J. Phys. Chem. Lett. 11, 9248-9248 (2020)
Using LibXC functional ID 498 : Re-regularized SCAN correlation by Furness et al
[ 1]  J. W. Furness, A. D. Kaplan, J. Ning, J. P. Perdew, and J. Sun.,  J. Phys. Chem. Lett. 11, 8208-8215 (2020)
[ 2]  J. W. Furness, A. D. Kaplan, J. Ning, J. P. Perdew, and J. Sun.,  J. Phys. Chem. Lett. 11, 9248-9248 (2020)

================================================================================
                                       INPUT FILE
================================================================================
NAME = sp_solv.inp
|  1> ! r2scan-3c def2/J RI DEFGRID2 scfconv6 printgap
|  2> %output
|  3>     printlevel normal
|  4> end
|  5> %cpcm
|  6>     smd true
|  7>     smdsolvent "water"
|  8> end
|  9> * xyz 0 1
| 10> C -4.461765187 -1.1624457397 -0.4856444405
| 11> C -3.6994767896 -2.3083511503 -0.3048499433
| 12> C -2.3434628856 -2.2060577484 -0.0558430606
| 13> C -1.7235263098 -0.9600823038 0.0126375678
| 14> C -2.4935926796 0.1936025777 -0.1708151157
| 15> C -3.8608738914 0.0799645629 -0.4170870442
| 16> C -1.8775090281 1.5238882807 -0.1036017392
| 17> O -2.545425748 2.5486318006 -0.2304242045
| 18> C -0.4209974813 1.572126183 0.1135231012
| 19> C 0.1657814136 2.8255377235 0.1183218995
| 20> C 1.5364686577 2.9595783886 0.3226407827
| 21> C 2.3157482098 1.850716449 0.5102479469
| 22> C 1.7660554273 0.5443447393 0.4974254813
| 23> C 0.3543147554 0.4037323424 0.3049741255
| 24> C -0.2740817079 -0.8992676388 0.2898894279
| 25> O 0.3388843506 -1.9623556069 0.496463361
| 26> N 2.5286153334 -0.5356380826 0.6974684869
| 27> C 3.9644632886 -0.640698912 0.6905916964
| 28> C 4.4121557008 -1.7204982135 -0.3071693479
| 29> O 4.1090047399 -1.3946223887 -1.6438213298
| 30> H -5.5201054299 -1.2395371863 -0.6788917079
| 31> H -4.1635240663 -3.2807556544 -0.3574078253
| 32> H -1.7341438203 -3.0856986029 0.0901184079
| 33> H -4.4287435865 0.9886946697 -0.5519370986
| 34> H -0.4654898199 3.6877232264 -0.0317383047
| 35> H 1.9803325373 3.9425411215 0.3397130153
| 36> H 3.3694141347 1.9782368628 0.6929356476
| 37> H 2.023912169 -1.421552441 0.6810714358
| 38> H 4.3148761432 -0.9276756467 1.6873422245
| 39> H 4.4178160634 0.311326146 0.4164010479
| 40> H 3.8767911065 -2.6516834148 -0.1072330959
| 41> H 5.4870898992 -1.8995647706 -0.1846656684
| 42> H 4.6336160977 -0.6287786162 -1.9159456608
| 43> *
| 44> 
| 45>                          ****END OF INPUT****
================================================================================

                       ****************************
                       * Single Point Calculation *
                       ****************************

---------------------------------
CARTESIAN COORDINATES (ANGSTROEM)
---------------------------------
  C     -4.461765   -1.162446   -0.485644
  C     -3.699477   -2.308351   -0.304850
  C     -2.343463   -2.206058   -0.055843
  C     -1.723526   -0.960082    0.012638
  C     -2.493593    0.193603   -0.170815
  C     -3.860874    0.079965   -0.417087
  C     -1.877509    1.523888   -0.103602
  O     -2.545426    2.548632   -0.230424
  C     -0.420997    1.572126    0.113523
  C      0.165781    2.825538    0.118322
  C      1.536469    2.959578    0.322641
  C      2.315748    1.850716    0.510248
  C      1.766055    0.544345    0.497425
  C      0.354315    0.403732    0.304974
  C     -0.274082   -0.899268    0.289889
  O      0.338884   -1.962356    0.496463
  N      2.528615   -0.535638    0.697468
  C      3.964463   -0.640699    0.690592
  C      4.412156   -1.720498   -0.307169
  O      4.109005   -1.394622   -1.643821
  H     -5.520105   -1.239537   -0.678892
  H     -4.163524   -3.280756   -0.357408
  H     -1.734144   -3.085699    0.090118
  H     -4.428744    0.988695   -0.551937
  H     -0.465490    3.687723   -0.031738
  H      1.980333    3.942541    0.339713
  H      3.369414    1.978237    0.692936
  H      2.023912   -1.421552    0.681071
  H      4.314876   -0.927676    1.687342
  H      4.417816    0.311326    0.416401
  H      3.876791   -2.651683   -0.107233
  H      5.487090   -1.899565   -0.184666
  H      4.633616   -0.628779   -1.915946

----------------------------
CARTESIAN COORDINATES (A.U.)
----------------------------
  NO LB      ZA    FRAG     MASS         X           Y           Z
   0 C     6.0000    0    12.011   -8.431514   -2.196704   -0.917735
   1 C     6.0000    0    12.011   -6.990998   -4.362151   -0.576083
   2 C     6.0000    0    12.011   -4.428503   -4.168845   -0.105528
   3 C     6.0000    0    12.011   -3.256993   -1.814293    0.023882
   4 C     6.0000    0    12.011   -4.712207    0.365856   -0.322794
   5 C     6.0000    0    12.011   -7.295994    0.151111   -0.788180
   6 C     6.0000    0    12.011   -3.547978    2.879732   -0.195779
   7 O     8.0000    0    15.999   -4.810158    4.816216   -0.435439
   8 C     6.0000    0    12.011   -0.795570    2.970888    0.214528
   9 C     6.0000    0    12.011    0.313281    5.339492    0.223596
  10 C     6.0000    0    12.011    2.903505    5.592793    0.609703
  11 C     6.0000    0    12.011    4.376130    3.497347    0.964229
  12 C     6.0000    0    12.011    3.337361    1.028662    0.939998
  13 C     6.0000    0    12.011    0.669558    0.762944    0.576318
  14 C     6.0000    0    12.011   -0.517939   -1.699370    0.547812
  15 O     8.0000    0    15.999    0.640399   -3.708315    0.938180
  16 N     7.0000    0    14.007    4.778390   -1.012209    1.318024
  17 C     6.0000    0    12.011    7.491750   -1.210745    1.305029
  18 C     6.0000    0    12.011    8.337766   -3.251270   -0.580466
  19 O     8.0000    0    15.999    7.764894   -2.635454   -3.106372
  20 H     1.0000    0     1.008  -10.431487   -2.342386   -1.282919
  21 H     1.0000    0     1.008   -7.867920   -6.199730   -0.675403
  22 H     1.0000    0     1.008   -3.277057   -5.831125    0.170299
  23 H     1.0000    0     1.008   -8.369112    1.868362   -1.043010
  24 H     1.0000    0     1.008   -0.879648    6.968787   -0.059977
  25 H     1.0000    0     1.008    3.742286    7.450323    0.641965
  26 H     1.0000    0     1.008    6.367270    3.738326    1.309459
  27 H     1.0000    0     1.008    3.824640   -2.686345    1.287038
  28 H     1.0000    0     1.008    8.153934   -1.753053    3.188615
  29 H     1.0000    0     1.008    8.348462    0.588321    0.786884
  30 H     1.0000    0     1.008    7.326073   -5.010955   -0.202641
  31 H     1.0000    0     1.008   10.369097   -3.589657   -0.348968
  32 H     1.0000    0     1.008    8.756265   -1.188219   -3.620613

--------------------------------
INTERNAL COORDINATES (ANGSTROEM)
--------------------------------
 C      0   0   0     0.000000000000     0.00000000     0.00000000
 C      1   0   0     1.388117236069     0.00000000     0.00000000
 C      2   1   0     1.382476790238   120.06739613     0.00000000
 C      3   2   1     1.393364906630   120.75860782   359.77961105
 C      4   3   2     1.399158999822   119.07907958     0.17447260
 C      1   2   3     1.381793698684   119.79985612     0.05565952
 C      5   4   3     1.467561499642   120.68865781   179.88794563
 O      7   5   4     1.229754432399   121.50784636   181.78024245
 C      7   5   4     1.473396069460   116.83457879     2.18944330
 C      9   7   5     1.383970010450   116.69784822   177.27382829
 C     10   9   7     1.392299043694   120.33804925   179.72118077
 C     11  10   9     1.368228003468   120.18619997     0.49979059
 C     12  11  10     1.417368552869   121.65755832     0.29988413
 C      9   7   5     1.415240872019   122.30721975   357.46880990
 C     14   9   7     1.446692301147   120.27882842     0.13040385
 O     15  14   9     1.244409983337   123.62457161   182.53953503
 N     13  12  11     1.337115443812   121.46060261   180.82976636
 C     17  13  12     1.439702892466   128.82923302   346.71718359
 C     18  17  13     1.536854621942   110.17551646   234.92035026
 O     19  18  17     1.408805905368   113.00220697    65.24976617
 H      1   2   3     1.078597082899   120.21009148   180.07190230
 H      2   1   3     1.078736634015   120.10331254   179.94791448
 H      3   2   1     1.079973382325   121.16299418   179.83680948
 H      6   1   2     1.080023580664   121.44515670   180.10584349
 H     10   9   7     1.079066854528   118.36690746     0.19107490
 H     11  10   9     1.078666926817   119.68026164   180.95528808
 H     12  11  10     1.076962456736   118.98176007   181.62609862
 H     17  13  12     1.019724667672   114.64766926   179.07988369
 H     18  17  13     1.094831690350   109.51071970   115.92637759
 H     18  17  13     1.089523272447   110.63572654   355.80401794
 H     19  18  17     1.092563788899   109.71106439   307.97338166
 H     19  18  17     1.096610922001   109.13223073   188.96922031
 H     20  19  18     0.967360021984   109.47099275    66.51205559

---------------------------
INTERNAL COORDINATES (A.U.)
---------------------------
 C      0   0   0     0.000000000000     0.00000000     0.00000000
 C      1   0   0     2.623161417945     0.00000000     0.00000000
 C      2   1   0     2.612502520051   120.06739613     0.00000000
 C      3   2   1     2.633078078147   120.75860782   359.77961105
 C      4   3   2     2.644027327474   119.07907958     0.17447260
 C      1   2   3     2.611211664090   119.79985612     0.05565952
 C      5   4   3     2.773289319011   120.68865781   179.88794563
 O      7   5   4     2.323899089209   121.50784636   181.78024245
 C      7   5   4     2.784315058075   116.83457879     2.18944330
 C      9   7   5     2.615324297310   116.69784822   177.27382829
 C     10   9   7     2.631063889102   120.33804925   179.72118077
 C     11  10   9     2.585576215316   120.18619997     0.49979059
 C     12  11  10     2.678438395754   121.65755832     0.29988413
 C      9   7   5     2.674417661649   122.30721975   357.46880990
 C     14   9   7     2.733852249219   120.27882842     0.13040385
 O     15  14   9     2.351594066824   123.62457161   182.53953503
 N     13  12  11     2.526781998241   121.46060261   180.82976636
 C     17  13  12     2.720644180974   128.82923302   346.71718359
 C     18  17  13     2.904234343121   110.17551646   234.92035026
 O     19  18  17     2.662257336997   113.00220697    65.24976617
 H      1   2   3     2.038253095525   120.21009148   180.07190230
 H      2   1   3     2.038516808917   120.10331254   179.94791448
 H      3   2   1     2.040853924519   121.16299418   179.83680948
 H      6   1   2     2.040948785631   121.44515670   180.10584349
 H     10   9   7     2.039140835249   118.36690746     0.19107490
 H     11  10   9     2.038385081403   119.68026164   180.95528808
 H     12  11  10     2.035164099745   118.98176007   181.62609862
 H     17  13  12     1.927000353905   114.64766926   179.07988369
 H     18  17  13     2.068932057500   109.51071970   115.92637759
 H     18  17  13     2.058900601458   110.63572654   355.80401794
 H     19  18  17     2.064646344859   109.71106439   307.97338166
 H     19  18  17     2.072294318049   109.13223073   188.96922031
 H     20  19  18     1.828045514453   109.47099275    66.51205559

---------------------
BASIS SET INFORMATION
---------------------
There are 4 groups of distinct atoms

 Group   1 Type C   : 11s6p1d contracted to 5s3p1d pattern {62111/411/1}
 Group   2 Type O   : 11s6p2d contracted to 5s3p2d pattern {62111/411/11}
 Group   3 Type N   : 11s6p2d contracted to 5s3p2d pattern {62111/411/11}
 Group   4 Type H   : 4s1p contracted to 2s1p pattern {31/1}

Atom   0C    basis set group =>   1
Atom   1C    basis set group =>   1
Atom   2C    basis set group =>   1
Atom   3C    basis set group =>   1
Atom   4C    basis set group =>   1
Atom   5C    basis set group =>   1
Atom   6C    basis set group =>   1
Atom   7O    basis set group =>   2
Atom   8C    basis set group =>   1
Atom   9C    basis set group =>   1
Atom  10C    basis set group =>   1
Atom  11C    basis set group =>   1
Atom  12C    basis set group =>   1
Atom  13C    basis set group =>   1
Atom  14C    basis set group =>   1
Atom  15O    basis set group =>   2
Atom  16N    basis set group =>   3
Atom  17C    basis set group =>   1
Atom  18C    basis set group =>   1
Atom  19O    basis set group =>   2
Atom  20H    basis set group =>   4
Atom  21H    basis set group =>   4
Atom  22H    basis set group =>   4
Atom  23H    basis set group =>   4
Atom  24H    basis set group =>   4
Atom  25H    basis set group =>   4
Atom  26H    basis set group =>   4
Atom  27H    basis set group =>   4
Atom  28H    basis set group =>   4
Atom  29H    basis set group =>   4
Atom  30H    basis set group =>   4
Atom  31H    basis set group =>   4
Atom  32H    basis set group =>   4
---------------------------------
AUXILIARY/J BASIS SET INFORMATION
---------------------------------
There are 4 groups of distinct atoms

 Group   1 Type C   : 12s5p4d2f1g contracted to 6s4p3d1f1g pattern {711111/2111/211/2/1}
 Group   2 Type O   : 12s5p4d2f1g contracted to 6s4p3d1f1g pattern {711111/2111/211/2/1}
 Group   3 Type N   : 12s5p4d2f1g contracted to 6s4p3d1f1g pattern {711111/2111/211/2/1}
 Group   4 Type H   : 5s2p1d contracted to 3s1p1d pattern {311/2/1}

Atom   0C    basis set group =>   1
Atom   1C    basis set group =>   1
Atom   2C    basis set group =>   1
Atom   3C    basis set group =>   1
Atom   4C    basis set group =>   1
Atom   5C    basis set group =>   1
Atom   6C    basis set group =>   1
Atom   7O    basis set group =>   2
Atom   8C    basis set group =>   1
Atom   9C    basis set group =>   1
Atom  10C    basis set group =>   1
Atom  11C    basis set group =>   1
Atom  12C    basis set group =>   1
Atom  13C    basis set group =>   1
Atom  14C    basis set group =>   1
Atom  15O    basis set group =>   2
Atom  16N    basis set group =>   3
Atom  17C    basis set group =>   1
Atom  18C    basis set group =>   1
Atom  19O    basis set group =>   2
Atom  20H    basis set group =>   4
Atom  21H    basis set group =>   4
Atom  22H    basis set group =>   4
Atom  23H    basis set group =>   4
Atom  24H    basis set group =>   4
Atom  25H    basis set group =>   4
Atom  26H    basis set group =>   4
Atom  27H    basis set group =>   4
Atom  28H    basis set group =>   4
Atom  29H    basis set group =>   4
Atom  30H    basis set group =>   4
Atom  31H    basis set group =>   4
Atom  32H    basis set group =>   4

Checking for AutoStart:
The File: sp_solv.gbw exists
Trying to determine its content:
     ... Fine, the file contains calculation information
     ... Fine, the calculation information was read
     ... Fine, the file contains a basis set
     ... Fine, the basis set was read
     ... Fine, the file contains a geometry
     ... Fine, the geometry was read
     ... Fine, the file contains a set of orbitals
     ... Fine, the orbitals can be read
     => possible old guess file was deleted
     => GBW file was renamed to GES file
     => GES file is set as startup file
     => Guess is set to MORead
     ... now leaving AutoStart

------------------------------------------------------------------------------
                             ORCA STARTUP CALCULATIONS
                           -- RI-GTO INTEGRALS CHOSEN --
------------------------------------------------------------------------------
------------------------------------------------------------------------------
                   ___                                                        
                  /   \      - P O W E R E D   B Y -                         
                 /     \                                                     
                 |  |  |   _    _      __       _____    __    __             
                 |  |  |  | |  | |    /  \     |  _  \  |  |  /  |          
                  \  \/   | |  | |   /    \    | | | |  |  | /  /          
                 / \  \   | |__| |  /  /\  \   | |_| |  |  |/  /          
                |  |  |   |  __  | /  /__\  \  |    /   |      \           
                |  |  |   | |  | | |   __   |  |    \   |  |\   \          
                \     /   | |  | | |  |  |  |  | |\  \  |  | \   \       
                 \___/    |_|  |_| |__|  |__|  |_| \__\ |__|  \__/        
                                                                              
                      - O R C A' S   B I G   F R I E N D -                    
                                      &                                       
                       - I N T E G R A L  F E E D E R -                       
                                                                              
 v1 FN, 2020, v2 2021, v3 2022-2024                                           
------------------------------------------------------------------------------


----------------------
SHARK INTEGRAL PACKAGE
----------------------

Number of atoms                             ...     33
Number of basis functions                   ...    465
Number of shells                            ...    223
Maximum angular momentum                    ...      2
Integral batch strategy                     ... SHARK/LIBINT Hybrid
RI-J (if used) integral strategy            ... SPLIT-RIJ (Revised 2003 algorithm where possible)
Printlevel                                  ...      1
Contraction scheme used                     ... SEGMENTED contraction
Prescreening option                         ... SCHWARTZ
   Thresh                                   ... 1.000e-10
   Tcut                                     ... 1.000e-11
   Tpresel                                  ... 1.000e-11 
Coulomb Range Separation                    ... NOT USED
Exchange Range Separation                   ... NOT USED
Multipole approximations                    ... NOT USED
Finite Nucleus Model                        ... NOT USED
CABS basis                                  ... NOT available
Auxiliary Coulomb fitting basis             ... AVAILABLE
   # of basis functions in Aux-J            ...   1123
   # of shells in Aux-J                     ...    365
   Maximum angular momentum in Aux-J        ...      4
Auxiliary J/K fitting basis                 ... NOT available
Auxiliary Correlation fitting basis         ... NOT available
Auxiliary 'external' fitting basis          ... NOT available

Checking pre-screening integrals            ... done (  0.0 sec) Dimension = 223
Check shell pair data                       ... done (  0.0 sec)
Shell pair information
Shell pair cut-off parameter TPreSel        ...   1.0e-11
Total number of shell pairs                 ...     24976
Shell pairs after pre-screening             ...     17986
Total number of primitive shell pairs       ...     92714
Primitive shell pairs kept                  ...     42481
          la=0 lb=0:   5392 shell pairs
          la=1 lb=0:   6840 shell pairs
          la=1 lb=1:   2156 shell pairs
          la=2 lb=0:   2062 shell pairs
          la=2 lb=1:   1318 shell pairs
          la=2 lb=2:    218 shell pairs

Calculating one electron integrals          ... done (  0.1 sec)
Calculating RI/J V-Matrix + Cholesky decomp.... done (  0.1 sec)
Calculating Nuclear repulsion               ... done (  0.0 sec) ENN=   1467.912094147876 Eh

Diagonalization of the overlap matrix:
Smallest eigenvalue                        ... 6.286e-06
Time for diagonalization                   ...    0.027 sec
Threshold for overlap eigenvalues          ... 1.000e-07
Number of eigenvalues below threshold      ... 0
Time for construction of square roots      ...    0.033 sec
Total time needed                          ...    0.076 sec

-------------------
DFT GRID GENERATION
-------------------

General Integration Accuracy     IntAcc      ... 4.388
Radial Grid Type                 RadialGrid  ... OptM3 with GC (2021)
Angular Grid (max. ang.)         AngularGrid ... 4 (Lebedev-302)
Angular grid pruning method      GridPruning ... 4 (adaptive)
Weight generation scheme         WeightScheme... mBecke (2022)
Basis function cutoff            BFCut       ... 1.0000e-10
Integration weight cutoff        WCut        ... 1.0000e-14
Partially contracted basis set               ... off
Rotationally invariant grid construction     ... off
Angular grids for H and He will be reduced by one unit
Diffuse basis detected: some atoms will have their outermost
                        angular grid increased by 1.

Total number of grid points                  ...   161943
Total number of batches                      ...     2548
Average number of points per batch           ...       63
Average number of grid points per atom       ...     4907
Initializing property integral containers    ... done (  0.0 sec)

SHARK setup successfully completed in   3.2 seconds

Maximum memory used throughout the entire STARTUP-calculation: 83.7 MB
-------------------------------------------------------------------------------
                                 ORCA GUESS
                   Start orbitals & Density for SCF / CASSCF
-------------------------------------------------------------------------------

------------
SCF SETTINGS
------------
Hamiltonian:
 Density Functional     Method          .... DFT(GTOs)
  Functional kind                       .... Exchange
  Functional name                       .... Re-regularized SCAN exchange by Furness et al
  Functional family                     .... MGGA
  Functional refs                              
    [ 0] J. W. Furness, A. D. Kaplan, J. Ning, J. P. Perdew, and J. Sun.,  J. Phys. Chem. Lett. 11, 8208-8215 (2020), doi: 10.1021/acs.jpclett.0c02405
    [ 1] J. W. Furness, A. D. Kaplan, J. Ning, J. P. Perdew, and J. Sun.,  J. Phys. Chem. Lett. 11, 9248-9248 (2020), doi: 10.1021/acs.jpclett.0c03077
  Functional external parameters        .... 6
    Parameter  0 _c1        =  6.670000e-01 : c1 parameter        
    Parameter  1 _c2        =  8.000000e-01 : c2 parameter        
    Parameter  2 _d         =  1.240000e+00 : d parameter         
    Parameter  3 _k1        =  6.500000e-02 : k1 parameter        
    Parameter  4 _eta       =  1.000000e-03 : eta parameter       
    Parameter  5 _dp2       =  3.610000e-01 : dp2 parameter       
  Functional kind                       .... Correlation
  Functional name                       .... Re-regularized SCAN correlation by Furness et al
  Functional family                     .... MGGA
  Functional refs                              
    [ 0] J. W. Furness, A. D. Kaplan, J. Ning, J. P. Perdew, and J. Sun.,  J. Phys. Chem. Lett. 11, 8208-8215 (2020), doi: 10.1021/acs.jpclett.0c02405
    [ 1] J. W. Furness, A. D. Kaplan, J. Ning, J. P. Perdew, and J. Sun.,  J. Phys. Chem. Lett. 11, 9248-9248 (2020), doi: 10.1021/acs.jpclett.0c03077
  Functional external parameters        .... 1
    Parameter  0 _eta       =  1.000000e-03 : Regularization parameter
 Gradients option       PostSCFGGA      .... off
 RI-approximation to the Coulomb term is turned on
   Number of AuxJ basis functions       .... 1123


General Settings:
 Integral files         IntName         .... sp_solv
 Hartree-Fock type      HFTyp           .... RHF
 Total Charge           Charge          ....    0
 Multiplicity           Mult            ....    1
 Number of Electrons    NEL             ....  140
 Basis Dimension        Dim             ....  465
 Nuclear Repulsion      ENuc            ....   1467.9120941479 Eh

Convergence Acceleration:
 AO-DIIS                CNVDIIS         .... on
   Start iteration      DIISMaxIt       ....    12
   Startup error        DIISStart       ....  0.200000
   # of expansion vecs  DIISMaxEq       ....     5
   Bias factor          DIISBfac        ....   1.050
   Max. coefficient     DIISMaxC        ....  10.000
 MO-DIIS                CNVKDIIS        .... off
 Trust-Rad. Augm. Hess. CNVTRAH         .... auto
   Auto Start mean grad. ratio tolernc. ....  1.125000
   Auto Start start iteration           ....     1
   Auto Start num. interpolation iter.  ....    10
   Max. Number of Micro iterations      ....    24
   Max. Number of Macro iterations      .... Maxiter - #DIIS iter
   Number of Davidson start vectors     ....     2
   Converg. threshold    (grad. norm)   ....   3.330e-04
   Grad. Scal. Fac. for Micro threshold ....   0.100
   Minimum threshold for Micro iter.    ....   1.000e-02
   NR start threshold (gradient norm)   ....   1.000e-04
   Initial trust radius                 ....   0.400
   Minimum AH scaling param. (alpha)    ....   1.000
   Maximum AH scaling param. (alpha)    .... 1000.000
   Quad. conv. algorithm                .... NR
   White noise on init. David. guess    .... on
   Maximum white noise                  ....   0.010
   Pseudo random numbers                .... off
   Inactive MOs                         .... canonical
   Orbital update algorithm             .... Taylor
   Preconditioner                       .... Diag
   Full preconditioner red. dimension   ....   250
   COSX micro iterations for RIJONX calc.... off
 SOSCF                  CNVSOSCF        .... on
   Start iteration      SOSCFMaxIt      ....   150
   Startup grad/error   SOSCFStart      ....  0.003300
   Hessian update       SOSCFHessUp     .... L-BFGS
 Level Shifting         CNVShift        .... on
   Level shift para.    LevelShift      ....    0.2500
   Turn off err/grad.   ShiftErr        ....    0.0010
 Zerner damping         CNVZerner       .... off
 Static damping         CNVDamp         .... on
   Fraction old density DampFac         ....    0.7000
   Max. Damping (<1)    DampMax         ....    0.9800
   Min. Damping (>=0)   DampMin         ....    0.0000
   Turn off err/grad.   DampErr         ....    0.1000

SCF Procedure:
 Maximum # iterations   MaxIter         ....   125
 SCF integral mode      SCFMode         .... Direct
   Integral package                     .... SHARK and LIBINT hybrid scheme
 Reset frequency        DirectResetFreq ....    20
 Integral Threshold     Thresh          ....  1.000e-10 Eh
 Primitive CutOff       TCut            ....  1.000e-11 Eh

Convergence Tolerance:
 Convergence Check Mode ConvCheckMode   .... Total+1el-Energy
 Convergence forced     ConvForced      .... 0
 Energy Change          TolE            ....  1.000e-06 Eh
 1-El. energy change                    ....  1.000e-03 Eh
 Orbital Gradient       TolG            ....  3.330e-04
 Orbital Rotation angle TolX            ....  3.330e-04
 DIIS Error             TolErr          ....  1.000e-06

---------------------
INITIAL GUESS: MOREAD
---------------------
Guess MOs are being read from file: sp_solv.ges
Input Geometry matches current geometry (good)
Atom 0: N(Shells)= 9 and 6 - projection required
Input basis set needs projection
NBasis(read)= 306
NBasis(calc)= 465
Basis set overlap was calculated
Using GuessMode=FMatrix for the initial guess
C*T matrix was formed
Effective Fockian was calculated
Effective Fockian was diagonalized
Initial density was built
                      ------------------
                      INITIAL GUESS DONE (   0.1 sec)
                      ------------------
             **** ENERGY FILE WAS UPDATED (sp_solv.en.tmp) ****
Finished Guess after   0.6 sec
Maximum memory used throughout the entire GUESS-calculation: 47.4 MB

-------------------------------------------------------------------------------------------
                                      ORCA LEAN-SCF
                              memory conserving SCF solver
-------------------------------------------------------------------------------------------

--------------------
CPCM SOLVATION MODEL
--------------------
CPCM parameters:
  Epsilon                                         ...      78.3550
  Refrac                                          ...       1.3328
  Rsolv                                           ...       1.3000
  Surface type                                    ... GAUSSIAN VDW
  Discretization scheme                           ... Constant charge density
    Threshold for H atoms                         ...       5.0000 (charges/Ang^2)
    Threshold for non-H atoms                     ...       5.0000 (charges/Ang^2)
  Epsilon function type                           ...         CPCM
Solvent:                                          ... WATER
SMD-CDS solvent descriptors:
  Soln                                            ...       1.3328
  Soln25                                          ...       1.3323
  Sola                                            ...       0.0000
  Solb                                            ...       0.0000
  Solg                                            ...       0.0000
  Solc                                            ...       0.0000
  Solh                                            ...       0.0000
Radii:
  Scheme                                          ... Element-dependent radii
  Radius for C  used is    3.4960 Bohr (=   1.8500 Ang.)
  Radius for O  used is    2.8724 Bohr (=   1.5200 Ang.)
  Radius for N  used is    3.5716 Bohr (=   1.8900 Ang.)
  Radius for H  used is    2.2677 Bohr (=   1.2000 Ang.)
Calculating surface                               ...        done! (  0.0s)
Cavity surface points                             ...         2444
Cavity Volume                                     ...    1719.3524
Cavity Surface-area                               ...     973.6834
Calculating surface distance matrix               ...        done! (  0.0s)
Performing Cholesky decomposition & store         ...        done! (  0.2s)
Overall time for CPCM initialization              ...                 0.3s

----------------------------------------D-I-I-S--------------------------------------------
Iteration    Energy (Eh)           Delta-E    RMSDP     MaxDP     DIISErr   Damp  Time(sec)
-------------------------------------------------------------------------------------------
               ***  Starting incremental Fock matrix formation  ***
    1    -897.3865295438381509     0.00e+00  2.39e-02  1.67e+00  6.27e-01  0.700  14.6
Warning: op=0 Small HOMO/LUMO gap (   0.058) - skipping pre-diagonalization
         Will do a full diagonalization
    2    -897.5133921168630877    -1.27e-01  1.74e-02  1.16e+00  4.42e-01  0.700  13.5
    3    -897.6032413721059129    -8.98e-02  1.22e-02  7.98e-01  3.10e-01  0.700  12.7
    4    -897.6662971499613377    -6.31e-02  8.48e-03  5.51e-01  2.17e-01  0.700  12.3
                               ***Turning on AO-DIIS***
    5    -897.7105539882095400    -4.43e-02  5.92e-03  3.78e-01  1.52e-01  0.700  12.2
    6    -897.7415703835727072    -3.10e-02  4.15e-03  2.65e-01  1.06e-01  0.700  11.9
    7    -897.7633425312060353    -2.18e-02  2.91e-03  1.86e-01  7.43e-02  0.700  11.7
    8    -897.7786013842442117    -1.53e-02  6.78e-03  4.35e-01  5.22e-02  0.000  11.7
                              *** Initializing SOSCF ***
---------------------------------------S-O-S-C-F--------------------------------------
Iteration    Energy (Eh)           Delta-E    RMSDP     MaxDP     MaxGrad    Time(sec)
--------------------------------------------------------------------------------------
    9    -897.8142679548750493    -3.57e-02  8.96e-05  5.44e-03  4.54e-04    12.9
               *** Restarting incremental Fock matrix formation ***
   10    -897.8142691185344120    -1.16e-06  1.80e-04  1.28e-02  3.05e-04    15.4
   11    -897.8142651865664448     3.93e-06  5.60e-05  3.89e-03  3.47e-04    10.6
   12    -897.8142713156130412    -6.13e-06  3.63e-05  2.25e-03  3.06e-05    10.7
                  *** Gradient check signals convergence ***

               *****************************************************
               *                     SUCCESS                       *
               *           SCF CONVERGED AFTER  12 CYCLES          *
               *****************************************************


SMD CDS free energy correction energy :                 5.77606     Kcal/mol
Total Energy after SMD CDS correction =              -897.805066572 Eh
             **** ENERGY FILE WAS UPDATED (sp_solv.en.tmp) ****

----------------
TOTAL SCF ENERGY
----------------

Total Energy       :       -897.80506657237174 Eh          -24430.51788 eV

Components:
Nuclear Repulsion  :       1467.91209414787591 Eh           39943.91879 eV
Electronic Energy  :      -2365.68516761020373 Eh          -64373.56610 eV
One Electron Energy:      -4136.87135726593260 Eh         -112569.99258 eV
Two Electron Energy:       1771.18618965572887 Eh           48196.42648 eV
CPCM Dielectric    :         -0.04119785328513 Eh              -1.12105 eV
SMD CDS (Gcds)     :          0.00920474324134 Eh               0.25047 eV

Virial components:
Potential Energy   :      -1792.12390981876274 Eh          -48766.17081 eV
Kinetic Energy     :        894.31884324639100 Eh           24335.65293 eV
Virial Ratio       :          2.00389818838360

DFT components:
N(Alpha)           :       70.000186967566 electrons
N(Beta)            :       70.000186967566 electrons
N(Total)           :      140.000373935132 electrons
E(X)               :     -119.571223394258 Eh       
E(C)               :       -4.619152086644 Eh       
E(XC)              :     -124.190375480902 Eh       

CPCM Solvation Model Properties:
Surface-charge          :         -0.05697409463411
Corrected charge        :         -0.00000000000000
Outlying charge corr.   :          0.00019006163084 Eh               0.00517 eV
Free-energy (cav+disp)  :          0.00920474324134 Eh               0.25047 eV

---------------
SCF CONVERGENCE
---------------

  Last Energy change         ...    6.1290e-06  Tolerance :   1.0000e-06
  Last MAX-Density change    ...    2.2451e-03  Tolerance :   1.0000e-05
  Last RMS-Density change    ...    3.6335e-05  Tolerance :   1.0000e-06
  Last DIIS Error            ...    4.5355e-04  Tolerance :   1.0000e-06
  Last Orbital Gradient      ...    3.0585e-05  Tolerance :   3.3300e-04
  Last Orbital Rotation      ...    3.2106e-04  Tolerance :   3.3300e-04


----------------
ORBITAL ENERGIES
----------------

  NO   OCC          E(Eh)            E(eV) 
   0   2.0000     -18.955456      -515.8042 
   1   2.0000     -18.948530      -515.6157 
   2   2.0000     -18.946126      -515.5503 
   3   2.0000     -14.185207      -385.9991 
   4   2.0000     -10.131357      -275.6882 
   5   2.0000     -10.127111      -275.5727 
   6   2.0000     -10.102026      -274.8901 
   7   2.0000     -10.077656      -274.2270 
   8   2.0000     -10.064839      -273.8782 
   9   2.0000     -10.059981      -273.7460 
  10   2.0000     -10.059691      -273.7381 
  11   2.0000     -10.057993      -273.6919 
  12   2.0000     -10.056025      -273.6384 
  13   2.0000     -10.049844      -273.4702 
  14   2.0000     -10.049787      -273.4686 
  15   2.0000     -10.049589      -273.4632 
  16   2.0000     -10.048098      -273.4227 
  17   2.0000     -10.047843      -273.4157 
  18   2.0000     -10.046050      -273.3669 
  19   2.0000     -10.041631      -273.2467 
  20   2.0000      -1.015545       -27.6344 
  21   2.0000      -1.011243       -27.5173 
  22   2.0000      -0.992624       -27.0107 
  23   2.0000      -0.923229       -25.1224 
  24   2.0000      -0.851064       -23.1586 
  25   2.0000      -0.832728       -22.6597 
  26   2.0000      -0.772993       -21.0342 
  27   2.0000      -0.743783       -20.2394 
  28   2.0000      -0.736855       -20.0508 
  29   2.0000      -0.730126       -19.8677 
  30   2.0000      -0.690942       -18.8015 
  31   2.0000      -0.651309       -17.7230 
  32   2.0000      -0.628165       -17.0933 
  33   2.0000      -0.613227       -16.6868 
  34   2.0000      -0.596357       -16.2277 
  35   2.0000      -0.568565       -15.4714 
  36   2.0000      -0.552073       -15.0227 
  37   2.0000      -0.520257       -14.1569 
  38   2.0000      -0.517121       -14.0716 
  39   2.0000      -0.490032       -13.3345 
  40   2.0000      -0.477143       -12.9837 
  41   2.0000      -0.462207       -12.5773 
  42   2.0000      -0.449842       -12.2408 
  43   2.0000      -0.442845       -12.0504 
  44   2.0000      -0.437242       -11.8980 
  45   2.0000      -0.432710       -11.7746 
  46   2.0000      -0.421073       -11.4580 
  47   2.0000      -0.417865       -11.3707 
  48   2.0000      -0.412170       -11.2157 
  49   2.0000      -0.406157       -11.0521 
  50   2.0000      -0.400558       -10.8998 
  51   2.0000      -0.397787       -10.8243 
  52   2.0000      -0.385125       -10.4798 
  53   2.0000      -0.382001       -10.3948 
  54   2.0000      -0.367999       -10.0138 
  55   2.0000      -0.355254        -9.6670 
  56   2.0000      -0.346349        -9.4246 
  57   2.0000      -0.343460        -9.3460 
  58   2.0000      -0.336811        -9.1651 
  59   2.0000      -0.328796        -8.9470 
  60   2.0000      -0.322206        -8.7677 
  61   2.0000      -0.306162        -8.3311 
  62   2.0000      -0.291058        -7.9201 
  63   2.0000      -0.264496        -7.1973 
  64   2.0000      -0.252047        -6.8585 
  65   2.0000      -0.250867        -6.8264 
  66   2.0000      -0.250790        -6.8243 
  67   2.0000      -0.243760        -6.6331 
  68   2.0000      -0.230593        -6.2747 
  69   2.0000      -0.193772        -5.2728 
  70   0.0000      -0.133326        -3.6280 
  71   0.0000      -0.079926        -2.1749 
  72   0.0000      -0.048715        -1.3256 
  73   0.0000      -0.027353        -0.7443 
  74   0.0000       0.023995         0.6529 
  75   0.0000       0.030265         0.8236 
  76   0.0000       0.065742         1.7889 
  77   0.0000       0.080079         2.1791 
  78   0.0000       0.085869         2.3366 
  79   0.0000       0.101579         2.7641 
  80   0.0000       0.103702         2.8219 
*Only the first 10 virtual orbitals were printed.

                    ********************************
                    * MULLIKEN POPULATION ANALYSIS *
                    ********************************

-----------------------
MULLIKEN ATOMIC CHARGES
-----------------------
   0 C :   -0.169913
   1 C :   -0.159042
   2 C :   -0.239032
   3 C :    0.194953
   4 C :    0.133822
   5 C :   -0.229128
   6 C :    0.083158
   7 O :   -0.441914
   8 C :    0.180600
   9 C :   -0.255387
  10 C :   -0.172058
  11 C :   -0.326793
  12 C :    0.286955
  13 C :   -0.130795
  14 C :    0.043203
  15 O :   -0.508475
  16 N :   -0.073584
  17 C :   -0.235716
  18 C :   -0.171347
  19 O :   -0.481575
  20 H :    0.185227
  21 H :    0.185461
  22 H :    0.197170
  23 H :    0.195861
  24 H :    0.197410
  25 H :    0.184042
  26 H :    0.178664
  27 H :    0.345236
  28 H :    0.174397
  29 H :    0.165569
  30 H :    0.156263
  31 H :    0.154327
  32 H :    0.352443
Sum of atomic charges:    0.0000000

--------------------------------
MULLIKEN REDUCED ORBITAL CHARGES
--------------------------------
  0 C s       :     3.247506  s :     3.247506
      pz      :     0.956867  p :     2.884950
      px      :     1.026784
      py      :     0.901299
      dz2     :     0.003195  d :     0.037458
      dxz     :     0.002845
      dyz     :     0.006268
      dx2y2   :     0.013234
      dxy     :     0.011915

  1 C s       :     3.245185  s :     3.245185
      pz      :     0.942813  p :     2.876218
      px      :     0.931147
      py      :     1.002258
      dz2     :     0.003408  d :     0.037639
      dxz     :     0.005652
      dyz     :     0.003530
      dx2y2   :     0.012310
      dxy     :     0.012739

  2 C s       :     3.260734  s :     3.260734
      pz      :     0.948594  p :     2.941427
      px      :     0.988974
      py      :     1.003860
      dz2     :     0.003340  d :     0.036871
      dxz     :     0.005224
      dyz     :     0.003835
      dx2y2   :     0.011095
      dxy     :     0.013377

  3 C s       :     3.190050  s :     3.190050
      pz      :     0.978427  p :     2.569621
      px      :     0.736768
      py      :     0.854426
      dz2     :     0.003858  d :     0.045376
      dxz     :     0.004768
      dyz     :     0.007214
      dx2y2   :     0.015819
      dxy     :     0.013718

  4 C s       :     3.240708  s :     3.240708
      pz      :     1.000935  p :     2.580191
      px      :     0.838739
      py      :     0.740518
      dz2     :     0.004101  d :     0.045279
      dxz     :     0.006304
      dyz     :     0.004838
      dx2y2   :     0.014443
      dxy     :     0.015592

  5 C s       :     3.259121  s :     3.259121
      pz      :     0.937957  p :     2.932897
      px      :     0.947682
      py      :     1.047258
      dz2     :     0.003330  d :     0.037110
      dxz     :     0.005173
      dyz     :     0.004097
      dx2y2   :     0.012418
      dxy     :     0.012093

  6 C s       :     3.377573  s :     3.377573
      pz      :     0.758328  p :     2.446546
      px      :     0.887764
      py      :     0.800453
      dz2     :     0.005118  d :     0.092722
      dxz     :     0.009838
      dyz     :     0.014391
      dx2y2   :     0.038673
      dxy     :     0.024703

  7 O s       :     3.855629  s :     3.855629
      pz      :     1.434060  p :     4.558725
      px      :     1.676399
      py      :     1.448266
      dz2     :     0.005503  d :     0.027560
      dxz     :     0.005380
      dyz     :     0.007054
      dx2y2   :     0.003223
      dxy     :     0.006400

  8 C s       :     3.211036  s :     3.211036
      pz      :     0.996493  p :     2.562370
      px      :     0.698851
      py      :     0.867026
      dz2     :     0.003909  d :     0.045994
      dxz     :     0.004070
      dyz     :     0.008798
      dx2y2   :     0.015802
      dxy     :     0.013415

  9 C s       :     3.243484  s :     3.243484
      pz      :     0.969219  p :     2.975041
      px      :     1.002998
      py      :     1.002824
      dz2     :     0.003276  d :     0.036861
      dxz     :     0.005158
      dyz     :     0.003886
      dx2y2   :     0.011380
      dxy     :     0.013160

 10 C s       :     3.264348  s :     3.264348
      pz      :     0.937584  p :     2.868740
      px      :     0.939787
      py      :     0.991370
      dz2     :     0.003478  d :     0.038970
      dxz     :     0.006454
      dyz     :     0.003758
      dx2y2   :     0.012610
      dxy     :     0.012669

 11 C s       :     3.321677  s :     3.321677
      pz      :     1.005708  p :     2.969703
      px      :     1.045590
      py      :     0.918406
      dz2     :     0.003335  d :     0.035413
      dxz     :     0.002758
      dyz     :     0.005675
      dx2y2   :     0.012966
      dxy     :     0.010680

 12 C s       :     3.057442  s :     3.057442
      pz      :     0.896274  p :     2.589689
      px      :     0.868228
      py      :     0.825187
      dz2     :     0.005314  d :     0.065914
      dxz     :     0.009574
      dyz     :     0.013021
      dx2y2   :     0.018433
      dxy     :     0.019573

 13 C s       :     3.436918  s :     3.436918
      pz      :     1.095591  p :     2.651616
      px      :     0.811828
      py      :     0.744198
      dz2     :     0.004040  d :     0.042261
      dxz     :     0.005376
      dyz     :     0.004824
      dx2y2   :     0.014567
      dxy     :     0.013455

 14 C s       :     3.435239  s :     3.435239
      pz      :     0.782879  p :     2.430530
      px      :     0.851489
      py      :     0.796162
      dz2     :     0.005673  d :     0.091028
      dxz     :     0.009027
      dyz     :     0.016496
      dx2y2   :     0.035692
      dxy     :     0.024139

 15 O s       :     3.850297  s :     3.850297
      pz      :     1.483828  p :     4.621518
      px      :     1.707317
      py      :     1.430373
      dz2     :     0.006582  d :     0.036660
      dxz     :     0.005232
      dyz     :     0.007509
      dx2y2   :     0.010650
      dxy     :     0.006687

 16 N s       :     3.312739  s :     3.312739
      pz      :     1.564430  p :     3.670433
      px      :     0.993582
      py      :     1.112421
      dz2     :     0.014241  d :     0.090412
      dxz     :     0.015957
      dyz     :     0.007536
      dx2y2   :     0.025832
      dxy     :     0.026847

 17 C s       :     3.274403  s :     3.274403
      pz      :     1.060165  p :     2.914470
      px      :     0.823199
      py      :     1.031106
      dz2     :     0.008409  d :     0.046844
      dxz     :     0.011325
      dyz     :     0.006132
      dx2y2   :     0.013205
      dxy     :     0.007773

 18 C s       :     3.308124  s :     3.308124
      pz      :     0.723571  p :     2.804847
      px      :     1.095216
      py      :     0.986060
      dz2     :     0.019126  d :     0.058376
      dxz     :     0.011331
      dyz     :     0.014456
      dx2y2   :     0.007643
      dxy     :     0.005820

 19 O s       :     3.749377  s :     3.749377
      pz      :     1.370772  p :     4.715300
      px      :     1.760141
      py      :     1.584387
      dz2     :     0.002135  d :     0.016898
      dxz     :     0.002535
      dyz     :     0.003012
      dx2y2   :     0.003166
      dxy     :     0.006050

 20 H s       :     0.795223  s :     0.795223
      pz      :     0.004016  p :     0.019550
      px      :     0.012480
      py      :     0.003054

 21 H s       :     0.795028  s :     0.795028
      pz      :     0.003672  p :     0.019511
      px      :     0.004845
      py      :     0.010994

 22 H s       :     0.782790  s :     0.782790
      pz      :     0.003841  p :     0.020040
      px      :     0.006756
      py      :     0.009443

 23 H s       :     0.784188  s :     0.784188
      pz      :     0.003754  p :     0.019951
      px      :     0.005697
      py      :     0.010499

 24 H s       :     0.782375  s :     0.782375
      pz      :     0.004087  p :     0.020215
      px      :     0.007024
      py      :     0.009104

 25 H s       :     0.796446  s :     0.796446
      pz      :     0.003602  p :     0.019512
      px      :     0.004709
      py      :     0.011201

 26 H s       :     0.800837  s :     0.800837
      pz      :     0.004372  p :     0.020499
      px      :     0.012732
      py      :     0.003395

 27 H s       :     0.617828  s :     0.617828
      pz      :     0.008510  p :     0.036936
      px      :     0.011530
      py      :     0.016895

 28 H s       :     0.807883  s :     0.807883
      pz      :     0.010225  p :     0.017720
      px      :     0.003566
      py      :     0.003929

 29 H s       :     0.815923  s :     0.815923
      pz      :     0.003997  p :     0.018508
      px      :     0.004430
      py      :     0.010081

 30 H s       :     0.826279  s :     0.826279
      pz      :     0.002605  p :     0.017459
      px      :     0.005156
      py      :     0.009697

 31 H s       :     0.828455  s :     0.828455
      pz      :     0.002347  p :     0.017219
      px      :     0.011307
      py      :     0.003565

 32 H s       :     0.604792  s :     0.604792
      pz      :     0.009201  p :     0.042764
      px      :     0.014653
      py      :     0.018911


------------------------
MULLIKEN OVERLAP CHARGES
------------------------
B(  0-C ,  1-C ) :   0.5769 B(  0-C ,  2-C ) :   0.0791 B(  0-C ,  3-C ) :  -0.3167 
B(  0-C ,  4-C ) :   0.0982 B(  0-C ,  5-C ) :   0.5007 B(  0-C ,  6-C ) :   0.0504 
B(  0-C , 20-H ) :   0.8436 B(  0-C , 21-H ) :  -0.0787 B(  0-C , 23-H ) :  -0.0840 
B(  1-C ,  2-C ) :   0.4039 B(  1-C ,  3-C ) :   0.1373 B(  1-C ,  4-C ) :  -0.3097 
B(  1-C ,  5-C ) :   0.0521 B(  1-C , 20-H ) :  -0.0776 B(  1-C , 21-H ) :   0.8449 
B(  1-C , 22-H ) :  -0.0922 B(  2-C ,  3-C ) :   0.6393 B(  2-C ,  4-C ) :  -0.2517 
B(  2-C ,  5-C ) :  -0.3119 B(  2-C ,  6-C ) :   0.1245 B(  2-C , 13-C ) :   0.1630 
B(  2-C , 14-C ) :  -0.4623 B(  2-C , 15-O ) :   0.1134 B(  2-C , 21-H ) :  -0.0847 
B(  2-C , 22-H ) :   0.8771 B(  3-C ,  4-C ) :  -2.3461 B(  3-C ,  5-C ) :  -0.2420 
B(  3-C ,  6-C ) :   1.4405 B(  3-C ,  7-O ) :  -0.0504 B(  3-C ,  8-C ) :  -1.8445 
B(  3-C ,  9-C ) :  -0.0503 B(  3-C , 12-C ) :   0.2073 B(  3-C , 13-C ) :   1.6663 
B(  3-C , 14-C ) :  -1.7809 B(  3-C , 15-O ) :  -0.4395 B(  3-C , 22-H ) :  -0.0681 
B(  4-C ,  5-C ) :   0.7382 B(  4-C ,  6-C ) :  -2.0055 B(  4-C ,  7-O ) :  -0.4400 
B(  4-C ,  8-C ) :   1.5614 B(  4-C ,  9-C ) :   0.1774 B(  4-C , 13-C ) :  -2.1563 
B(  4-C , 14-C ) :   1.5205 B(  4-C , 23-H ) :  -0.0655 B(  5-C ,  6-C ) :  -0.5933 
B(  5-C ,  7-O ) :   0.1177 B(  5-C ,  8-C ) :   0.1865 B(  5-C , 14-C ) :   0.1620 
B(  5-C , 20-H ) :  -0.0830 B(  5-C , 23-H ) :   0.8742 B(  6-C ,  7-O ) :   1.4355 
B(  6-C ,  8-C ) :  -1.8192 B(  6-C ,  9-C ) :  -0.5845 B(  6-C , 10-C ) :   0.0880 
B(  6-C , 12-C ) :   0.1908 B(  6-C , 13-C ) :   1.4346 B(  6-C , 14-C ) :  -1.3199 
B(  7-O ,  8-C ) :  -0.4431 B(  7-O ,  9-C ) :   0.1116 B(  7-O , 13-C ) :  -0.0633 
B(  8-C ,  9-C ) :   0.6505 B(  8-C , 10-C ) :   0.1895 B(  8-C , 11-C ) :  -0.5171 
B(  8-C , 12-C ) :  -0.0629 B(  8-C , 13-C ) :  -2.9148 B(  8-C , 14-C ) :   0.9921 
B(  8-C , 24-H ) :  -0.0718 B(  9-C , 10-C ) :   0.2584 B(  9-C , 11-C ) :   0.1869 
B(  9-C , 12-C ) :  -0.5024 B(  9-C , 13-C ) :  -0.1047 B(  9-C , 14-C ) :   0.2114 
B(  9-C , 24-H ) :   0.8997 B(  9-C , 25-H ) :  -0.1011 B( 10-C , 11-C ) :   0.3814 
B( 10-C , 12-C ) :   0.2259 B( 10-C , 13-C ) :  -0.3726 B( 10-C , 24-H ) :  -0.0953 
B( 10-C , 25-H ) :   0.8673 B( 11-C , 12-C ) :   0.1122 B( 11-C , 13-C ) :   0.2015 
B( 11-C , 14-C ) :   0.0927 B( 11-C , 16-N ) :  -0.2069 B( 11-C , 17-C ) :  -0.0565 
B( 11-C , 25-H ) :  -0.0905 B( 11-C , 26-H ) :   0.8276 B( 12-C , 13-C ) :  -0.3240 
B( 12-C , 14-C ) :  -0.9189 B( 12-C , 15-O ) :   0.1185 B( 12-C , 16-N ) :   0.5653 
B( 12-C , 17-C ) :  -0.2411 B( 12-C , 19-O ) :   0.0535 B( 12-C , 26-H ) :  -0.0999 
B( 12-C , 27-H ) :  -0.0565 B( 13-C , 14-C ) :  -1.8498 B( 13-C , 15-O ) :  -0.3308 
B( 13-C , 27-H ) :  -0.0581 B( 14-C , 15-O ) :   1.1663 B( 15-O , 16-N ) :  -0.1709 
B( 15-O , 27-H ) :   0.0665 B( 16-N , 17-C ) :   0.3096 B( 16-N , 18-C ) :  -0.0600 
B( 16-N , 27-H ) :   0.7039 B( 16-N , 28-H ) :  -0.0926 B( 17-C , 18-C ) :   0.4827 
B( 17-C , 19-O ) :  -0.1711 B( 17-C , 27-H ) :  -0.0714 B( 17-C , 28-H ) :   0.7557 
B( 17-C , 29-H ) :   0.8347 B( 17-C , 31-H ) :  -0.1384 B( 18-C , 19-O ) :   0.4633 
B( 18-C , 30-H ) :   0.8315 B( 18-C , 31-H ) :   0.8699 B( 18-C , 32-H ) :  -0.0787 
B( 19-O , 30-H ) :  -0.1062 B( 19-O , 31-H ) :  -0.0878 B( 19-O , 32-H ) :   0.6369 
B( 30-H , 31-H ) :  -0.0576 


                     *******************************
                     * LOEWDIN POPULATION ANALYSIS *
                     *******************************

----------------------
LOEWDIN ATOMIC CHARGES
----------------------
   0 C :   -0.139754
   1 C :   -0.132376
   2 C :   -0.108887
   3 C :   -0.027205
   4 C :   -0.042682
   5 C :   -0.102185
   6 C :    0.276083
   7 O :   -0.550339
   8 C :   -0.032530
   9 C :   -0.127268
  10 C :   -0.125698
  11 C :   -0.121536
  12 C :    0.203462
  13 C :   -0.041628
  14 C :    0.269412
  15 O :   -0.586111
  16 N :   -0.660184
  17 C :   -0.014814
  18 C :    0.033128
  19 O :   -0.632981
  20 H :    0.184220
  21 H :    0.184446
  22 H :    0.196639
  23 H :    0.194944
  24 H :    0.195851
  25 H :    0.186037
  26 H :    0.189813
  27 H :    0.299370
  28 H :    0.193494
  29 H :    0.195125
  30 H :    0.185836
  31 H :    0.172535
  32 H :    0.285782

-------------------------------
LOEWDIN REDUCED ORBITAL CHARGES
-------------------------------
  0 C s       :     2.907160  s :     2.907160
      pz      :     0.948778  p :     3.150966
      px      :     1.106672
      py      :     1.095516
      dz2     :     0.005461  d :     0.081628
      dxz     :     0.004459
      dyz     :     0.011796
      dx2y2   :     0.031856
      dxy     :     0.028057

  1 C s       :     2.907827  s :     2.907827
      pz      :     0.938561  p :     3.142689
      px      :     1.094010
      py      :     1.110118
      dz2     :     0.005866  d :     0.081861
      dxz     :     0.010519
      dyz     :     0.005934
      dx2y2   :     0.029143
      dxy     :     0.030399

  2 C s       :     2.896510  s :     2.896510
      pz      :     0.944463  p :     3.131986
      px      :     1.090767
      py      :     1.096756
      dz2     :     0.005660  d :     0.080391
      dxz     :     0.009395
      dyz     :     0.006871
      dx2y2   :     0.026537
      dxy     :     0.031929

  3 C s       :     2.847648  s :     2.847648
      pz      :     0.965598  p :     3.083850
      px      :     1.029627
      py      :     1.088625
      dz2     :     0.007378  d :     0.095708
      dxz     :     0.008118
      dyz     :     0.013241
      dx2y2   :     0.035358
      dxy     :     0.031612

  4 C s       :     2.847099  s :     2.847099
      pz      :     0.982567  p :     3.099422
      px      :     1.082442
      py      :     1.034412
      dz2     :     0.007903  d :     0.096162
      dxz     :     0.011592
      dyz     :     0.008421
      dx2y2   :     0.032856
      dxy     :     0.035390

  5 C s       :     2.897283  s :     2.897283
      pz      :     0.934633  p :     3.124176
      px      :     1.076958
      py      :     1.112585
      dz2     :     0.005673  d :     0.080727
      dxz     :     0.009606
      dyz     :     0.007020
      dx2y2   :     0.029243
      dxy     :     0.029184

  6 C s       :     2.784603  s :     2.784603
      pz      :     0.737961  p :     2.738946
      px      :     1.000032
      py      :     1.000952
      dz2     :     0.012730  d :     0.200368
      dxz     :     0.017374
      dyz     :     0.025754
      dx2y2   :     0.087294
      dxy     :     0.057217

  7 O s       :     3.555531  s :     3.555531
      pz      :     1.428735  p :     4.736393
      px      :     1.708018
      py      :     1.599641
      dz2     :     0.030178  d :     0.258414
      dxz     :     0.022840
      dyz     :     0.034049
      dx2y2   :     0.087082
      dxy     :     0.084265

  8 C s       :     2.847166  s :     2.847166
      pz      :     0.972713  p :     3.088450
      px      :     1.028726
      py      :     1.087012
      dz2     :     0.007451  d :     0.096914
      dxz     :     0.006912
      dyz     :     0.016218
      dx2y2   :     0.035416
      dxy     :     0.030918

  9 C s       :     2.893795  s :     2.893795
      pz      :     0.968829  p :     3.152933
      px      :     1.087645
      py      :     1.096459
      dz2     :     0.005550  d :     0.080540
      dxz     :     0.009213
      dyz     :     0.006930
      dx2y2   :     0.027166
      dxy     :     0.031681

 10 C s       :     2.903289  s :     2.903289
      pz      :     0.931391  p :     3.137614
      px      :     1.094784
      py      :     1.111439
      dz2     :     0.005993  d :     0.084795
      dxz     :     0.012167
      dyz     :     0.006400
      dx2y2   :     0.029939
      dxy     :     0.030295

 11 C s       :     2.892060  s :     2.892060
      pz      :     0.995382  p :     3.152941
      px      :     1.111095
      py      :     1.046463
      dz2     :     0.005507  d :     0.076535
      dxz     :     0.004478
      dyz     :     0.010276
      dx2y2   :     0.030540
      dxy     :     0.025734

 12 C s       :     2.771212  s :     2.771212
      pz      :     0.856412  p :     2.884777
      px      :     1.016030
      py      :     1.012336
      dz2     :     0.010497  d :     0.140548
      dxz     :     0.018281
      dyz     :     0.024296
      dx2y2   :     0.044119
      dxy     :     0.043356

 13 C s       :     2.833577  s :     2.833577
      pz      :     1.066191  p :     3.119710
      px      :     1.023741
      py      :     1.029777
      dz2     :     0.007364  d :     0.088342
      dxz     :     0.009336
      dyz     :     0.008461
      dx2y2   :     0.031883
      dxy     :     0.031298

 14 C s       :     2.779409  s :     2.779409
      pz      :     0.773397  p :     2.753518
      px      :     0.983915
      py      :     0.996207
      dz2     :     0.013237  d :     0.197660
      dxz     :     0.016645
      dyz     :     0.030882
      dx2y2   :     0.081341
      dxy     :     0.055554

 15 O s       :     3.558325  s :     3.558325
      pz      :     1.473804  p :     4.742403
      px      :     1.688104
      py      :     1.580495
      dz2     :     0.036226  d :     0.285384
      dxz     :     0.025908
      dyz     :     0.039076
      dx2y2   :     0.093668
      dxy     :     0.090505

 16 N s       :     3.096944  s :     3.096944
      pz      :     1.527045  p :     3.988806
      px      :     1.212472
      py      :     1.249290
      dz2     :     0.064338  d :     0.574434
      dxz     :     0.103530
      dyz     :     0.052685
      dx2y2   :     0.164513
      dxy     :     0.189368

 17 C s       :     2.854676  s :     2.854676
      pz      :     1.059837  p :     3.054228
      px      :     0.922909
      py      :     1.071482
      dz2     :     0.018806  d :     0.105910
      dxz     :     0.024837
      dyz     :     0.013723
      dx2y2   :     0.029193
      dxy     :     0.019352

 18 C s       :     2.874435  s :     2.874435
      pz      :     0.855489  p :     2.962524
      px      :     1.074583
      py      :     1.032452
      dz2     :     0.043771  d :     0.129913
      dxz     :     0.023697
      dyz     :     0.032047
      dx2y2   :     0.018064
      dxy     :     0.012334

 19 O s       :     3.514271  s :     3.514271
      pz      :     1.476147  p :     4.849021
      px      :     1.761197
      py      :     1.611677
      dz2     :     0.078258  d :     0.269689
      dxz     :     0.069497
      dyz     :     0.077764
      dx2y2   :     0.020774
      dxy     :     0.023395

 20 H s       :     0.769895  s :     0.769895
      pz      :     0.009012  p :     0.045886
      px      :     0.029923
      py      :     0.006950

 21 H s       :     0.769742  s :     0.769742
      pz      :     0.008159  p :     0.045812
      px      :     0.011273
      py      :     0.026379

 22 H s       :     0.755972  s :     0.755972
      pz      :     0.008670  p :     0.047388
      px      :     0.016320
      py      :     0.022399

 23 H s       :     0.758018  s :     0.758018
      pz      :     0.008391  p :     0.047037
      px      :     0.013074
      py      :     0.025573

 24 H s       :     0.756154  s :     0.756154
      pz      :     0.009359  p :     0.047995
      px      :     0.017129
      py      :     0.021507

 25 H s       :     0.768413  s :     0.768413
      pz      :     0.007934  p :     0.045550
      px      :     0.010979
      py      :     0.026638

 26 H s       :     0.762542  s :     0.762542
      pz      :     0.010149  p :     0.047645
      px      :     0.030276
      py      :     0.007219

 27 H s       :     0.594579  s :     0.594579
      pz      :     0.021680  p :     0.106050
      px      :     0.034224
      py      :     0.050146

 28 H s       :     0.765059  s :     0.765059
      pz      :     0.025156  p :     0.041447
      px      :     0.007064
      py      :     0.009228

 29 H s       :     0.762545  s :     0.762545
      pz      :     0.009135  p :     0.042329
      px      :     0.008753
      py      :     0.024441

 30 H s       :     0.774541  s :     0.774541
      pz      :     0.005321  p :     0.039624
      px      :     0.012322
      py      :     0.021981

 31 H s       :     0.786387  s :     0.786387
      pz      :     0.005766  p :     0.041078
      px      :     0.027148
      py      :     0.008164

 32 H s       :     0.591425  s :     0.591425
      pz      :     0.024734  p :     0.122794
      px      :     0.042115
      py      :     0.055945


---------------------------------
LOEWDIN BOND ORDERS (THRESH 0.050000)
---------------------------------
B(  0-C ,  1-C ) :   1.4763 B(  0-C ,  2-C ) :   0.0910 B(  0-C ,  3-C ) :   0.1095 
B(  0-C ,  4-C ) :   0.0908 B(  0-C ,  5-C ) :   1.5216 B(  0-C , 20-H ) :   0.8669 
B(  0-C , 21-H ) :   0.0528 B(  0-C , 23-H ) :   0.0520 B(  1-C ,  2-C ) :   1.5165 
B(  1-C ,  3-C ) :   0.0911 B(  1-C ,  4-C ) :   0.1091 B(  1-C ,  5-C ) :   0.0923 
B(  1-C , 20-H ) :   0.0529 B(  1-C , 21-H ) :   0.8667 B(  1-C , 22-H ) :   0.0520 
B(  2-C ,  3-C ) :   1.3965 B(  2-C ,  4-C ) :   0.0849 B(  2-C ,  5-C ) :   0.1164 
B(  2-C , 14-C ) :   0.0871 B(  2-C , 15-O ) :   0.0820 B(  2-C , 21-H ) :   0.0550 
B(  2-C , 22-H ) :   0.8436 B(  3-C ,  4-C ) :   1.3159 B(  3-C ,  5-C ) :   0.0856 
B(  3-C ,  6-C ) :   0.0826 B(  3-C , 13-C ) :   0.0815 B(  3-C , 14-C ) :   0.9759 
B(  3-C , 15-O ) :   0.2051 B(  3-C , 22-H ) :   0.0515 B(  4-C ,  5-C ) :   1.3908 
B(  4-C ,  6-C ) :   0.9943 B(  4-C ,  7-O ) :   0.2068 B(  4-C ,  8-C ) :   0.0815 
B(  4-C , 14-C ) :   0.0762 B(  4-C , 23-H ) :   0.0520 B(  5-C ,  6-C ) :   0.0916 
B(  5-C ,  7-O ) :   0.0814 B(  5-C , 20-H ) :   0.0551 B(  5-C , 23-H ) :   0.8471 
B(  6-C ,  7-O ) :   2.1984 B(  6-C ,  8-C ) :   0.9862 B(  6-C ,  9-C ) :   0.1051 
B(  6-C , 13-C ) :   0.0735 B(  7-O ,  8-C ) :   0.2057 B(  7-O ,  9-C ) :   0.1085 
B(  8-C ,  9-C ) :   1.4422 B(  8-C , 10-C ) :   0.0909 B(  8-C , 11-C ) :   0.1103 
B(  8-C , 12-C ) :   0.0803 B(  8-C , 13-C ) :   1.2639 B(  8-C , 14-C ) :   0.0827 
B(  8-C , 24-H ) :   0.0525 B(  9-C , 10-C ) :   1.4186 B(  9-C , 11-C ) :   0.0925 
B(  9-C , 12-C ) :   0.0647 B(  9-C , 13-C ) :   0.0955 B(  9-C , 24-H ) :   0.8425 
B(  9-C , 25-H ) :   0.0530 B( 10-C , 11-C ) :   1.5873 B( 10-C , 12-C ) :   0.0906 
B( 10-C , 13-C ) :   0.0779 B( 10-C , 24-H ) :   0.0506 B( 10-C , 25-H ) :   0.8628 
B( 10-C , 26-H ) :   0.0555 B( 11-C , 12-C ) :   1.1982 B( 11-C , 13-C ) :   0.0840 
B( 11-C , 16-N ) :   0.2029 B( 11-C , 25-H ) :   0.0567 B( 11-C , 26-H ) :   0.8509 
B( 12-C , 13-C ) :   1.1307 B( 12-C , 14-C ) :   0.0782 B( 12-C , 15-O ) :   0.0501 
B( 12-C , 16-N ) :   1.5952 B( 12-C , 17-C ) :   0.0786 B( 13-C , 14-C ) :   1.0793 
B( 13-C , 15-O ) :   0.2129 B( 13-C , 16-N ) :   0.2111 B( 14-C , 15-O ) :   2.0812 
B( 14-C , 16-N ) :   0.0649 B( 15-O , 16-N ) :   0.2042 B( 15-O , 27-H ) :   0.0974 
B( 16-N , 17-C ) :   1.3256 B( 16-N , 18-C ) :   0.1532 B( 16-N , 19-O ) :   0.0530 
B( 16-N , 27-H ) :   0.7880 B( 16-N , 28-H ) :   0.0977 B( 16-N , 29-H ) :   0.0919 
B( 17-C , 18-C ) :   0.9692 B( 17-C , 19-O ) :   0.1569 B( 17-C , 28-H ) :   0.8084 
B( 17-C , 29-H ) :   0.8096 B( 18-C , 19-O ) :   1.4565 B( 18-C , 30-H ) :   0.8206 
B( 18-C , 31-H ) :   0.8271 B( 19-O , 30-H ) :   0.0994 B( 19-O , 31-H ) :   0.1038 
B( 19-O , 32-H ) :   0.9611 

------------------------------------------
LOEWDIN REDUCED ORBITAL POPULATIONS PER MO
-------------------------------------------
THRESHOLD FOR PRINTING IS 0.1%%
                      0         1         2         3         4         5   
                 -18.95546 -18.94853 -18.94613 -14.18521 -10.13136 -10.12711
                   2.00000   2.00000   2.00000   2.00000   2.00000   2.00000
                  --------  --------  --------  --------  --------  --------
 6 C  s               0.0       0.0       0.0       0.0      99.2       0.0
 7 O  s               0.0      99.9       0.0       0.0       0.0       0.0
 7 O  py              0.0       0.0       0.0       0.0       0.1       0.0
 7 O  dxy             0.0       0.0       0.0       0.0       0.2       0.0
14 C  s               0.0       0.0       0.0       0.0       0.0      99.2
15 O  s               0.0       0.0      99.9       0.0       0.0       0.0
15 O  py              0.0       0.0       0.0       0.0       0.0       0.1
15 O  dxy             0.0       0.0       0.0       0.0       0.0       0.2
16 N  s               0.0       0.0       0.0      99.8       0.0       0.0
19 O  s              99.9       0.0       0.0       0.0       0.0       0.0

                      6         7         8         9        10        11   
                 -10.10203 -10.07766 -10.06484 -10.05998 -10.05969 -10.05799
                   2.00000   2.00000   2.00000   2.00000   2.00000   2.00000
                  --------  --------  --------  --------  --------  --------
 2 C  py              0.0       0.0       0.0       0.1       0.0       0.0
 3 C  s               0.0       0.0       0.0      98.4       0.0       1.1
 4 C  s               0.0       0.0       0.0       1.1       0.0      98.4
 5 C  px              0.0       0.0       0.0       0.0       0.0       0.1
 8 C  s               0.0       0.0       0.0       0.0      99.3       0.0
 9 C  py              0.0       0.0       0.0       0.0       0.1       0.0
12 C  s              99.2       0.0       0.0       0.0       0.0       0.0
13 C  s               0.0       0.0       0.0       0.0       0.2       0.0
13 C  px              0.1       0.0       0.0       0.0       0.0       0.0
16 N  px              0.0       0.0       0.1       0.0       0.0       0.0
16 N  dx2y2           0.0       0.0       0.2       0.0       0.0       0.0
16 N  dxy             0.2       0.0       0.0       0.0       0.0       0.0
17 C  s               0.0       0.0      99.4       0.0       0.0       0.0
18 C  s               0.0      99.4       0.0       0.0       0.0       0.0
19 O  pz              0.0       0.1       0.0       0.0       0.0       0.0
19 O  dz2             0.0       0.2       0.0       0.0       0.0       0.0

                     12        13        14        15        16        17   
                 -10.05603 -10.04984 -10.04979 -10.04959 -10.04810 -10.04784
                   2.00000   2.00000   2.00000   2.00000   2.00000   2.00000
                  --------  --------  --------  --------  --------  --------
 0 C  s               0.0       0.0       2.7       1.6      93.7       1.7
 0 C  py              0.0       0.0       0.1       0.1       0.0       0.0
 1 C  s               0.0       0.0       2.0      93.5       1.7       2.4
 1 C  px              0.0       0.0       0.0       0.0       0.1       0.1
 2 C  s               0.0       0.0       0.0       1.8       2.2      95.5
 2 C  px              0.0       0.0       0.0       0.1       0.0       0.0
 3 C  py              0.0       0.0       0.0       0.0       0.0       0.1
 4 C  px              0.0       0.0       0.1       0.0       0.0       0.0
 5 C  s               0.0       0.0      94.8       2.7       2.0       0.0
 5 C  py              0.0       0.0       0.0       0.0       0.1       0.0
 8 C  s               0.3       0.0       0.0       0.0       0.0       0.0
 9 C  px              0.0       0.1       0.0       0.0       0.0       0.0
10 C  s               0.0      99.0       0.0       0.0       0.0       0.0
11 C  s               0.0       0.5       0.0       0.0       0.0       0.0
12 C  px              0.1       0.0       0.0       0.0       0.0       0.0
13 C  s              99.3       0.0       0.0       0.0       0.0       0.0

                     18        19        20        21        22        23   
                 -10.04605 -10.04163  -1.01554  -1.01124  -0.99262  -0.92323
                   2.00000   2.00000   2.00000   2.00000   2.00000   2.00000
                  --------  --------  --------  --------  --------  --------
 2 C  s               0.0       0.0       0.1       0.2       0.0       0.0
 2 C  px              0.0       0.0       0.0       0.4       0.0       0.0
 3 C  s               0.0       0.0       0.4       1.1       0.0       0.0
 3 C  px              0.0       0.0       0.1       1.9       0.0       0.0
 3 C  py              0.0       0.0       0.1       0.2       0.0       0.0
 4 C  s               0.0       0.0       1.5       0.0       0.0       0.0
 4 C  px              0.0       0.0       0.1       0.1       0.0       0.0
 4 C  py              0.0       0.0       1.7       0.4       0.0       0.0
 5 C  s               0.0       0.0       0.2       0.0       0.0       0.0
 5 C  px              0.0       0.0       0.3       0.0       0.0       0.0
 5 C  py              0.0       0.0       0.2       0.0       0.0       0.0
 6 C  s               0.0       0.0      16.3       0.9       0.0       0.0
[...]
19 O  dyz             2.4       0.0       0.0       0.0       0.0       0.0
19 O  dx2y2           2.7       0.0       0.0       0.0       0.0       0.0
19 O  dxy            20.2       0.0       0.0       0.0       0.0       0.0
30 H  s               0.1       0.0       0.0       0.0       0.0       0.0
30 H  py              0.1       0.0       0.0       0.0       0.0       0.0
32 H  s              13.5       0.0       0.0       0.0       0.0       0.0
32 H  pz              1.3       0.0       0.0       0.0       0.0       0.0
32 H  px              4.8       0.0       0.0       0.0       0.0       0.0
32 H  py             10.4       0.0       0.0       0.0       0.0       0.0

                    450       451       452       453       454       455   
                  22.02530  22.05623  22.12842  22.14259  22.18049  22.20119
                   0.00000   0.00000   0.00000   0.00000   0.00000   0.00000
                  --------  --------  --------  --------  --------  --------
 0 C  s               0.0       1.7       5.4       0.5      35.4       0.6
 1 C  s               0.0       2.7       4.1       0.9      32.2       2.8
 2 C  s               0.2       5.2       6.1       0.3       0.4       8.5
 3 C  s               0.4       2.5       0.4       0.1      15.4       3.5
 4 C  s               0.0       4.2       0.0       1.3      12.8       4.1
 5 C  s               0.1       4.7       5.8       1.2       0.0       7.0
 6 C  s               0.1       2.6      13.2      15.1       1.5       4.9
 8 C  s               0.0      14.4       1.9       0.1       0.8      12.3
 8 C  py              0.0       0.1       0.0       0.0       0.0       0.0
 9 C  s               0.3      18.3      10.3       0.0       0.0       2.9
10 C  s               0.5       0.2       4.2       0.6       0.0      16.3
11 C  s               0.0       7.2       7.1       0.5       0.0      20.1
12 C  s               0.1       7.1       4.6       2.5       0.0       0.1
13 C  s               0.3      15.1       0.4      13.5       0.3       4.1
14 C  s               0.0       0.3      15.0       2.2       0.6      11.9
16 N  s               0.0       0.0       0.0       0.1       0.0       0.0
17 C  s               1.0      12.7      21.1      59.2       0.1       0.1
18 C  s              96.3       0.0       0.1       1.5       0.0       0.1

                    456       457       458       459       460       461   
                  22.21218  22.26107  22.35331  22.36919  22.38527  32.06990
                   0.00000   0.00000   0.00000   0.00000   0.00000   0.00000
                  --------  --------  --------  --------  --------  --------
 0 C  s               3.1       0.5       0.1       6.8       2.3       0.0
 1 C  s               3.7       0.3       0.1       6.6       2.8       0.0
 2 C  s              14.6       1.5       0.0      15.8       8.4       0.0
 3 C  s               5.1       0.6       5.7       9.0       5.0       0.0
 4 C  s               7.1       0.1       6.9      10.5       2.9       0.0
 5 C  s              16.4       0.9       0.1      18.1       5.9       0.0
 6 C  s               4.3       4.6      28.7       0.1       5.0       0.0
 8 C  s               4.0      12.4       5.3       4.1       7.4       0.0
 9 C  s               2.3      18.8       0.2       6.8      13.3       0.0
10 C  s              13.1      13.6       0.0       3.4       5.3       0.0
11 C  s              21.1       0.2       0.6       3.4       4.7       0.0
12 C  s               0.0      37.8       0.1      10.7      28.2       0.0
13 C  s               0.9       2.4       8.7       3.2       4.3       0.0
13 C  px              0.0       0.0       0.1       0.0       0.1       0.0
14 C  s               2.9       4.6      42.3       0.8       3.7       0.0
16 N  s               0.0       0.2       0.0       0.0       0.0      99.8
17 C  s               0.8       0.7       0.3       0.2       0.3       0.0

                    462       463       464   
                  43.60550  43.72219  43.85814
                   0.00000   0.00000   0.00000
                  --------  --------  --------
 7 O  s               0.5      83.4      15.9
15 O  s               2.5      14.8      82.6
19 O  s              96.9       1.7       1.3


                      *****************************
                      * MAYER POPULATION ANALYSIS *
                      *****************************

  NA   - Mulliken gross atomic population
  ZA   - Total nuclear charge
  QA   - Mulliken gross atomic charge
  VA   - Mayer's total valence
  BVA  - Mayer's bonded valence
  FA   - Mayer's free valence

  ATOM       NA         ZA         QA         VA         BVA        FA
  0 C      6.1699     6.0000    -0.1699     3.6907     3.6907     0.0000
  1 C      6.1590     6.0000    -0.1590     3.6762     3.6762     0.0000
  2 C      6.2390     6.0000    -0.2390     3.7381     3.7381     0.0000
  3 C      5.8050     6.0000     0.1950     3.5162     3.5162     0.0000
  4 C      5.8662     6.0000     0.1338     3.4131     3.4131     0.0000
  5 C      6.2291     6.0000    -0.2291     3.7292     3.7292     0.0000
  6 C      5.9168     6.0000     0.0832     3.5766     3.5766     0.0000
  7 O      8.4419     8.0000    -0.4419     1.9809     1.9809    -0.0000
  8 C      5.8194     6.0000     0.1806     3.1444     3.1444    -0.0000
  9 C      6.2554     6.0000    -0.2554     3.7468     3.7468     0.0000
 10 C      6.1721     6.0000    -0.1721     3.6854     3.6854     0.0000
 11 C      6.3268     6.0000    -0.3268     3.6134     3.6134     0.0000
 12 C      5.7130     6.0000     0.2870     3.5601     3.5601    -0.0000
 13 C      6.1308     6.0000    -0.1308     3.5301     3.5301    -0.0000
 14 C      5.9568     6.0000     0.0432     3.5507     3.5507    -0.0000
 15 O      8.5085     8.0000    -0.5085     1.9195     1.9195    -0.0000
 16 N      7.0736     7.0000    -0.0736     3.1342     3.1342     0.0000
 17 C      6.2357     6.0000    -0.2357     3.6545     3.6545     0.0000
 18 C      6.1713     6.0000    -0.1713     3.8576     3.8576     0.0000
 19 O      8.4816     8.0000    -0.4816     1.7938     1.7938     0.0000
 20 H      0.8148     1.0000     0.1852     0.9566     0.9566     0.0000
 21 H      0.8145     1.0000     0.1855     0.9562     0.9562     0.0000
 22 H      0.8028     1.0000     0.1972     0.9481     0.9481     0.0000
 23 H      0.8041     1.0000     0.1959     0.9491     0.9491     0.0000
 24 H      0.8026     1.0000     0.1974     0.9477     0.9477     0.0000
 25 H      0.8160     1.0000     0.1840     0.9571     0.9571     0.0000
 26 H      0.8213     1.0000     0.1787     0.9625     0.9625    -0.0000
 27 H      0.6548     1.0000     0.3452     0.8908     0.8908     0.0000
 28 H      0.8256     1.0000     0.1744     0.9493     0.9493     0.0000
 29 H      0.8344     1.0000     0.1656     0.9608     0.9608     0.0000
 30 H      0.8437     1.0000     0.1563     0.9504     0.9504     0.0000
 31 H      0.8457     1.0000     0.1543     0.9516     0.9516    -0.0000
 32 H      0.6476     1.0000     0.3524     0.8795     0.8795     0.0000

  Mayer bond orders larger than 0.100000
B(  0-C ,  1-C ) :   1.3097 B(  0-C ,  5-C ) :   1.3547 B(  0-C , 20-H ) :   0.9604 
B(  1-C ,  2-C ) :   1.3409 B(  1-C , 21-H ) :   0.9603 B(  2-C ,  3-C ) :   1.2977 
B(  2-C , 15-O ) :   0.1004 B(  2-C , 22-H ) :   0.9719 B(  3-C ,  4-C ) :   1.5058 
B(  3-C , 14-C ) :   0.9216 B(  3-C , 15-O ) :  -0.1984 B(  4-C ,  5-C ) :   1.2875 
B(  4-C ,  6-C ) :   0.8702 B(  4-C ,  7-O ) :  -0.2231 B(  5-C ,  7-O ) :   0.1044 
B(  5-C , 23-H ) :   0.9738 B(  6-C ,  7-O ) :   2.0579 B(  6-C ,  8-C ) :   0.8792 
B(  7-O ,  8-C ) :  -0.2148 B(  7-O ,  9-C ) :   0.1228 B(  8-C ,  9-C ) :   1.3380 
B(  8-C , 13-C ) :   1.2548 B(  9-C , 10-C ) :   1.2311 B(  9-C , 24-H ) :   0.9786 
B( 10-C , 11-C ) :   1.4008 B( 10-C , 25-H ) :   0.9742 B( 11-C , 12-C ) :   1.0964 
B( 11-C , 26-H ) :   0.9615 B( 12-C , 13-C ) :   1.2356 B( 12-C , 16-N ) :   1.2922 
B( 13-C , 14-C ) :   0.9702 B( 13-C , 15-O ) :  -0.1172 B( 14-C , 15-O ) :   1.8445 
B( 16-N , 17-C ) :   0.8422 B( 16-N , 27-H ) :   0.8250 B( 17-C , 18-C ) :   0.9477 
B( 17-C , 28-H ) :   0.9366 B( 17-C , 29-H ) :   0.9559 B( 18-C , 19-O ) :   0.9546 
B( 18-C , 30-H ) :   0.9680 B( 18-C , 31-H ) :   0.9631 B( 19-O , 32-H ) :   0.8679 


-------
TIMINGS
-------

Total SCF time: 0 days 0 hours 2 min 31 sec 

Total time                  ....     151.882 sec
Sum of individual times     ....     149.306 sec  ( 98.3%)

SCF preparation             ....       0.648 sec  (  0.4%)
Fock matrix formation       ....     144.310 sec  ( 95.0%)
  Startup                   ....       0.096 sec  (  0.1% of F)
  Split-RI-J                ....      37.784 sec  ( 26.2% of F)
  XC integration            ....      73.694 sec  ( 51.1% of F)
    XC Preparation          ....       0.000 sec  (  0.0% of XC)
    Basis function eval.    ....      12.012 sec  ( 16.3% of XC)
    Density eval.           ....      27.996 sec  ( 38.0% of XC)
    XC-Functional eval.     ....       5.408 sec  (  7.3% of XC)
    XC-Potential eval.      ....      25.196 sec  ( 34.2% of XC)
  CPCM terms                ....      31.733 sec  ( 22.0% of F)
Diagonalization             ....       0.000 sec  (  0.0%)
Density matrix formation    ....       0.445 sec  (  0.3%)
Total Energy calculation    ....       0.096 sec  (  0.1%)
Population analysis         ....       0.390 sec  (  0.3%)
Orbital Transformation      ....       0.264 sec  (  0.2%)
Orbital Orthonormalization  ....       0.000 sec  (  0.0%)
DIIS solution               ....       1.989 sec  (  1.3%)
  MO trafo                  ....       0.000 sec  (  0.0 % of DIIS)
  Orb grad                  ....       0.000 sec  (  0.0 % of DIIS)
  Energy W gradient         ....       0.000 sec  (  0.0 % of DIIS)
  DIIS error                ....       0.090 sec  (  4.5 % of DIIS)
  DIIS work                 ....       1.751 sec  ( 88.0 % of DIIS)
  Form Q                    ....       0.000 sec  (  0.0 % of DIIS)
  Form QpQm                 ....       0.000 sec  (  0.0 % of DIIS)
  Exp/Cayley                ....       0.000 sec  (  0.0 % of DIIS)
  Orb update                ....       0.000 sec  (  0.0 % of DIIS)
  Wake-sleep                ....       0.027 sec  (  1.4 % of DIIS)
SOSCF solution              ....       1.164 sec  (  0.8%)
  MO trafo                  ....       0.162 sec  ( 13.9 % of SOSCF)
  Orb grad                  ....       0.005 sec  (  0.4 % of SOSCF)
  Rot update                ....       0.137 sec  ( 11.7 % of SOSCF)
  Step                      ....       0.860 sec  ( 73.9 % of SOSCF)
Finished LeanSCF after 152.1 sec

Maximum memory used throughout the entire LEANSCF-calculation: 83.7 MB


-------------------------------------------------------------------------------
                          DFT DISPERSION CORRECTION                            
                                                                               
                                DFTD4 V3.4.0                                   
-------------------------------------------------------------------------------
The R2SCAN3C composite method is recognized
Using three-body term ABC
Active option DFTDOPT                   ...         5   

-------------------------   ----------------
Dispersion correction           -0.015624435
-------------------------   ----------------

------------------   -----------------
gCP correction             0.016344721
------------------   -----------------

-------------------------   --------------------
FINAL SINGLE POINT ENERGY      -897.804346285402
-------------------------   --------------------


------------------------------------------------------------------------------
                              ORCA PROPERTY CALCULATIONS
------------------------------------------------------------------------------

GBWName                                 ... sp_solv.gbw
Number of atoms                         ...     33
Number of basis functions               ...    465
Max core memory                         ...   1024 MB

Electric properties:
Dipole moment                           ... YES
Quadrupole moment                       ...  NO
Static polarizability (Dipole/Dipole)   ...  NO
Static polarizability (Dipole/Quad.)    ...  NO
Static polarizability (Quad./Quad.)     ...  NO
Static polarizability (Velocity)        ...  NO

Atomic electric properties:
Dipole moment                           ...  NO
Quadrupole moment                       ...  NO
Static polarizability                   ...  NO

Choice of electric origin               ... Center of mass
Position of electric origin             ...     0.000010    -0.000002     0.000005

General magnetic properties:
Magnetizability                         ...  NO

EPR properties:
g-Tensor (aka g-matrix)                 ...  NO
Zero-Field splitting spin-orbit         ...  NO
Zero-field splitting spin-spin          ...  NO
Hyperfine couplings                     ...  NO (   0 nuclei)
Quadrupole couplings                    ...  NO (   0 nuclei)
Contact density                         ...  NO (   0 nuclei)

NMR properties:
Chemical shifts                         ...  NO (   0 nuclei)
Spin-rotation constants                 ...  NO (   0 nuclei)
Spin-spin couplings                     ...  NO (   0 nuclei,    0 pairs)

Choice of magnetic origin               ... GIAO
Position of magnetic origin             ...     0.000000     0.000000     0.000000

Properties with geometric perturbations:
SCF Hessian                             ...  NO
IR spectrum                             ...  NO
VCD spectrum                            ...  NO
X-ray spectroscopy properties:
SCF XES/XAS/RIXS spectra                ...  NO


-------------
DIPOLE MOMENT
-------------

Method             : SCF
Type of density    : Electron Density
Multiplicity       :   1
Irrep              :   0
Energy             :  -897.8050665723717430 Eh
Relativity type    : 
Basis              : AO
                                X                 Y                 Z
Electronic contribution:    -10.595961948       3.739164453       0.427945833
Nuclear contribution   :     12.981177591      -3.980305595       0.058260303
                        -----------------------------------------
Total Dipole Moment    :      2.385215643      -0.241141142       0.486206136
                        -----------------------------------------
Magnitude (a.u.)       :      2.446180517
Magnitude (Debye)      :      6.217696745



--------------------
Rotational spectrum 
--------------------
 
Rotational constants in cm-1:             0.019557             0.008016             0.006014 
Rotational constants in MHz :           586.313759           240.314480           180.280901 

Dipole components along the rotational axes: 
x,y,z [a.u.] :     2.400886    -0.174007     0.435051 
x,y,z [Debye]:     6.102566    -0.442290     1.105811 

 

Dipole moment calculation done in   0.1 sec 

Maximum memory used throughout the entire PROP-calculation: 41.7 MB

--------------------------------
SUGGESTED CITATIONS FOR THIS RUN
--------------------------------

Below you find a list of papers that are relevant to this ORCA run
We neither can nor want to force you to cite these papers, but we appreciate if you do
You receive ORCA, which is the product of decades of hard work by many enthusiastic individuals, for free
The only thing we kindly ask in return is that you cite our papers,
We deeply appreciate it, if you show your appreciation for ORCA by not just citing the generic ORCA reference.

Please note that relegating all ORCA citations to the supporting information does *not* help us.
SI sections are not indexed - citations you put there will not count into any citation statistics
But we need these citations in order to attract the funding resources that allow us to do what we are doing

Therefore, if you are a happy ORCA user, please consider citing a few of the papers listed below in the main body of your paper

In addition to the list printed below, the program has created the file sp_solv.bibtex that contains the list in bibtex format
You can import this file easily into all common literature databanks and citation aid programs


List of essential papers. We consider these as the minimum necessary citations

  1. Neese,F.
     Software update: the ORCA program system, version 5.0
     WIRES Comput. Molec. Sci., 2022 12(1)e1606
     doi.org/10.1002/wcms.1606
  2. Grimme,S.; Hansen,A.; Ehlert,S.; Mewes,J.
     r2SCAN-3c: A 'Swiss army knife' composite electronic-structure method
     J. Chem. Phys., 2021 154 064103
     doi.org/10.1063/5.0040021

List of papers to cite with high priority. The work reported in these papers was absolutely
necessary for this run to complete.
Our perspective: the developers of density functionals and basis sets usually get cited in chemistry papers
Good! But without the algorithms to do something with them, the functionals or basis sets would not do anything.
Hence, in our opinion, the algorithm design and method developments papers are equally worthy of getting cited

  1. Neese,F.
     An improvement of the resolution of the identity approximation for the formation of the Coulomb matrix
     J. Comp. Chem., 2003 24(14)1740-1747
     doi.org/10.1002/jcc.10318
  2. Garcia-Rates,M.; Neese,F.
     Effect of the Solute Cavity on the Solvation Energy and its Derivatives within the Framework of the Gaussian Charge Scheme
     J. Comput. Chem., 2020 41 922-939
     doi.org/10.1002/jcc.26139
  3. Neese,F.
     The SHARK Integral Generation and Digestion System
     J. Comp. Chem., 2022  1-16
     doi.org/10.1002/jcc.26942
  4. Lehtola,S.; Steigemann,C.; Oliveira,M.; Marques,M.
     Recent developments in Libxc - A comprehensive library of functionals for density functional theory
     Software X, 2018 7 
     doi.org/10.1016/j.softx.2017.11.002
  5. Caldeweyher,E.; Bannwarth,C.; Grimme,S.
     Extension of the D3 dispersion coefficient model
     J. Chem. Phys., 2017 147 034112-XXXX
     doi.org/10.1063/1.4993215
  6. Caldeweyher,E.; Ehlert,S.; Hansen,A.; Neugebauer,H.; Spicher,S.; Bannwarth,C.; Grimme,S.
     A generally applicable atomic-charge dependent London dispersion correction
     J. Chem. Phys., 2019 150 154122-XXXX
     doi.org/10.1063/1.5090222
  7. Caldeweyher,E.; Mewes,J.; Ehlert,S.; Grimme,S.
     Extension and evaluation of the D4 London-dispersion model for periodic systems
     Phys. Chem. Chem. Phys., 2020 22(16)8499-8512
     doi.org/10.1039/D0CP00502A

List of suggested additional citations. These are papers that are important in the 'surrounding' of 
of this run, or papers that preceded the highly important papers. If you like your results we are grateful for a citation.

  1. Neese,F.
     The ORCA program system
     WIRES Comput. Molec. Sci., 2012 2(1)73-78
     doi.org/10.1002/wcms.81
  2. Neese,F.
     Software update: the ORCA program system, version 4.0
     WIRES Comput. Molec. Sci., 2018 8(1)1-6
     doi.org/10.1002/wcms.1327
  3. Neese,F.; Wennmohs,F.; Becker,U.; Riplinger,C.
     The ORCA quantum chemistry program package
     J. Chem. Phys., 2020 152 Art. No. L224108
     doi.org/10.1063/5.0004608

List of optional additional citations

  1. Neese,F.
     Approximate second-order SCF convergence for spin unrestricted wavefunctions
     Chem. Phys. Lett., 2000 325(1-3)93-98
     doi.org/10.1016/s0009-2614(00)00662-x

Timings for individual modules:

Sum of individual times          ...      156.484 sec (=   2.608 min)
Startup calculation              ...        3.287 sec (=   0.055 min)   2.1 %
SCF iterations                   ...      152.907 sec (=   2.548 min)  97.7 %
Property calculations            ...        0.290 sec (=   0.005 min)   0.2 %
                             ****ORCA TERMINATED NORMALLY****
TOTAL RUN TIME: 0 days 0 hours 2 minutes 37 seconds 297 msec
