 Entering Gaussian System
 *********************************************
 Gaussian 98:
 frequency output generated by the xtb code
 *********************************************
                         Standard orientation:
 --------------------------------------------------------------------
  Center     Atomic     Atomic              Coordinates (Angstroms)
  Number     Number      Type              X           Y           Z
 --------------------------------------------------------------------
    1          6             0       -3.398458   -1.010084    0.323203
    2          6             0       -2.050585   -0.361684    0.611495
    3          6             0       -1.309187   -0.021955   -0.690509
    4          6             0        0.002244    0.634086   -0.355468
    5          8             0        0.174555    1.831535   -0.244205
    6          8             0        0.960085   -0.258093   -0.153010
    7          6             0        2.260068    0.224531    0.227091
    8          6             0        3.211898   -0.955373    0.259352
    9          1             0       -3.907494   -1.243970    1.254140
   10          1             0       -4.028000   -0.339055   -0.255355
   11          1             0       -3.265114   -1.930303   -0.239394
   12          1             0       -1.433750   -1.039641    1.204220
   13          1             0       -2.195349    0.555305    1.186674
   14          1             0       -1.905577    0.670175   -1.284168
   15          1             0       -1.117916   -0.935261   -1.252167
   16          1             0        2.572680    0.982881   -0.498295
   17          1             0        2.175726    0.705537    1.207086
   18          1             0        4.199776   -0.612169    0.548010
   19          1             0        2.864252   -1.693469    0.975895
   20          1             0        3.264909   -1.417623   -0.721869
 --------------------------------------------------------------------
     1 basis functions        1 primitive gaussians
     1 alpha electrons        1 beta electrons
 
 Harmonic frequencies (cm**-1), IR intensities (km*mol⁻¹),
 Raman scattering activities (A**4/amu), Raman depolarization ratios,
 reduced masses (AMU), force constants (mDyne/A) and normal coordinates:
                      1                      2                      3
                        a                      a                      a 
 Frequencies --    16.1226                28.2135                74.9600
 Red. masses --     8.2366                11.4269                 6.7498
 Frc consts  --     0.0000                 0.0000                 0.0000
 IR Inten    --     0.2691                 2.8494                 0.1481
 Raman Activ --     0.0000                 0.0000                 0.0000
 Depolar     --     0.0000                 0.0000                 0.0000
 Atom AN      X      Y      Z        X      Y      Z        X      Y      Z
   1   6    -0.13   0.14  -0.07    -0.16   0.18  -0.05     0.24  -0.42  -0.01
   2   6    -0.16   0.18  -0.02    -0.17   0.18  -0.01    -0.16   0.39   0.00
   3   6     0.07  -0.20   0.01     0.07  -0.24   0.02    -0.00   0.11   0.02
   4   6     0.02  -0.12   0.05     0.01  -0.14   0.07     0.00   0.10   0.03
   5   8    -0.03  -0.11  -0.10    -0.20  -0.16   0.47     0.05   0.10   0.07
   6   8     0.02  -0.08   0.30     0.20  -0.05  -0.34    -0.04   0.05  -0.01
   7   6    -0.01  -0.01   0.30     0.12   0.08  -0.27     0.01  -0.08  -0.03
   8   6     0.22   0.16  -0.42     0.14   0.10   0.12    -0.12  -0.18  -0.05
   9   1    -0.08   0.12  -0.03    -0.09   0.14  -0.02     0.02  -0.03  -0.01
  10   1    -0.00  -0.00  -0.10    -0.01   0.02  -0.10     0.03  -0.31  -0.18
  11   1    -0.02  -0.01   0.06    -0.04   0.00   0.07     0.25  -0.20   0.17
  12   1    -0.08   0.09   0.08    -0.09   0.09   0.09     0.00   0.28   0.14
  13   1    -0.07   0.10  -0.09    -0.06   0.10  -0.09    -0.21   0.17  -0.14
  14   1     0.05  -0.10  -0.08     0.05  -0.12  -0.08     0.02  -0.00  -0.06
  15   1     0.04  -0.10   0.08     0.05  -0.12   0.09     0.01  -0.01   0.07
  16   1    -0.08   0.12   0.18     0.05  -0.03  -0.13     0.02  -0.03  -0.01
  17   1     0.01  -0.15   0.16     0.00   0.10  -0.12     0.02  -0.02  -0.01
  18   1     0.05   0.06  -0.10     0.03   0.06   0.03    -0.02  -0.09  -0.02
  19   1     0.13  -0.08  -0.22     0.03   0.08   0.08    -0.06  -0.04  -0.01
  20   1     0.06   0.19  -0.19     0.06  -0.05   0.07    -0.06  -0.05  -0.02
                      4                      5                      6
                        a                      a                      a 
 Frequencies --   106.4898               173.2832               188.2499
 Red. masses --     8.4481                10.6778                 4.5506
 Frc consts  --     0.0000                 0.0000                 0.0000
 IR Inten    --     0.2576                 8.0239                 2.0748
 Raman Activ --     0.0000                 0.0000                 0.0000
 Depolar     --     0.0000                 0.0000                 0.0000
 Atom AN      X      Y      Z        X      Y      Z        X      Y      Z
   1   6    -0.15  -0.06  -0.29     0.04   0.09  -0.00     0.11   0.04   0.13
   2   6    -0.20  -0.10   0.07     0.14  -0.11  -0.03     0.15   0.08  -0.19
   3   6    -0.00   0.04   0.23     0.21  -0.30  -0.04     0.01   0.02  -0.28
   4   6     0.02   0.01   0.21    -0.01   0.13   0.02    -0.03  -0.04  -0.06
   5   8     0.14   0.04  -0.14    -0.41   0.20  -0.02    -0.05  -0.07   0.21
   6   8    -0.02   0.01   0.42     0.11   0.34   0.13    -0.10  -0.09   0.07
   7   6     0.16   0.06  -0.29     0.18   0.06   0.06    -0.13  -0.04   0.13
   8   6     0.07  -0.00  -0.10    -0.25  -0.31  -0.10    -0.01   0.06  -0.03
   9   1    -0.10  -0.05  -0.12    -0.00   0.07   0.00     0.09   0.04   0.08
  10   1    -0.01   0.01  -0.10     0.05   0.05  -0.02    -0.00  -0.01   0.05
  11   1    -0.01   0.00  -0.11    -0.03   0.01   0.02     0.00  -0.01   0.06
  12   1    -0.09  -0.05   0.03     0.01  -0.04   0.01     0.07   0.04  -0.07
  13   1    -0.09  -0.05   0.05     0.08  -0.01  -0.03     0.07   0.04  -0.07
  14   1     0.02   0.03   0.06     0.03  -0.18  -0.09     0.01   0.02  -0.07
  15   1     0.01   0.02   0.05     0.16  -0.12   0.07    -0.00   0.01  -0.08
  16   1    -0.01  -0.09  -0.22     0.10  -0.00   0.02    -0.06   0.01   0.05
  17   1     0.16   0.15  -0.14     0.11   0.01   0.03    -0.04  -0.03   0.05
  18   1     0.08   0.03  -0.26    -0.01  -0.22  -0.08     0.10   0.12  -0.47
  19   1     0.12   0.14   0.16    -0.13  -0.05  -0.01     0.29   0.18   0.30
  20   1    -0.16  -0.18   0.05    -0.19  -0.10  -0.03    -0.36  -0.22   0.08
                      7                      8                      9
                        a                      a                      a 
 Frequencies --   233.5636               252.7246               317.6657
 Red. masses --     1.9962                 9.6151                 9.4194
 Frc consts  --     0.0000                 0.0000                 0.0000
 IR Inten    --     0.1053                 6.3773                 3.6429
 Raman Activ --     0.0000                 0.0000                 0.0000
 Depolar     --     0.0000                 0.0000                 0.0000
 Atom AN      X      Y      Z        X      Y      Z        X      Y      Z
   1   6    -0.02   0.05  -0.01    -0.08  -0.03  -0.13     0.40   0.19  -0.29
   2   6     0.12  -0.23   0.01    -0.13  -0.07   0.26     0.27   0.10   0.29
   3   6    -0.03   0.08   0.00    -0.04  -0.01   0.31     0.06  -0.13   0.15
   4   6    -0.01   0.02   0.01     0.04   0.06  -0.08    -0.05  -0.08  -0.01
   5   8     0.05   0.02   0.01     0.03   0.08  -0.20     0.01  -0.12   0.05
   6   8    -0.04  -0.01  -0.00     0.18   0.10  -0.51    -0.17  -0.16   0.00
   7   6    -0.04   0.01  -0.02     0.00  -0.06   0.27    -0.27   0.06  -0.07
   8   6    -0.02   0.03  -0.00     0.04  -0.04   0.05    -0.25   0.12  -0.05
   9   1    -0.25   0.51  -0.01    -0.10  -0.03  -0.09    -0.02  -0.02  -0.18
  10   1     0.23  -0.14  -0.43     0.03   0.01  -0.07     0.20   0.10  -0.12
  11   1    -0.04  -0.26   0.43     0.02   0.01  -0.05     0.19   0.10  -0.14
  12   1     0.03  -0.13  -0.06    -0.07  -0.04   0.09     0.06   0.02   0.10
  13   1     0.09  -0.10   0.07    -0.07  -0.03   0.09     0.07   0.04   0.06
  14   1    -0.03   0.07   0.08    -0.03  -0.02   0.09    -0.03  -0.10   0.02
  15   1    -0.03   0.07  -0.08    -0.02  -0.01   0.09     0.02  -0.07   0.11
  16   1    -0.02   0.00  -0.01     0.08   0.09   0.22    -0.11   0.01  -0.04
  17   1    -0.01   0.01  -0.01    -0.12  -0.16   0.14    -0.08   0.04  -0.03
  18   1    -0.01   0.01   0.01     0.07   0.02  -0.22    -0.07   0.03  -0.00
  19   1    -0.01   0.00  -0.01     0.17   0.05   0.15    -0.08   0.03  -0.02
  20   1     0.00   0.01  -0.00    -0.19  -0.10   0.04    -0.07   0.04  -0.02
                     10                     11                     12
                        a                      a                      a 
 Frequencies --   353.5604               408.9839               627.1742
 Red. masses --    11.1034                 9.9328                11.4190
 Frc consts  --     0.0000                 0.0000                 0.0000
 IR Inten    --    12.7854                 1.2154                22.9285
 Raman Activ --     0.0000                 0.0000                 0.0000
 Depolar     --     0.0000                 0.0000                 0.0000
 Atom AN      X      Y      Z        X      Y      Z        X      Y      Z
   1   6     0.18   0.08  -0.11     0.07   0.02  -0.04    -0.00   0.00   0.02
   2   6     0.10   0.09   0.09    -0.00   0.11   0.04     0.02   0.02  -0.19
   3   6    -0.13   0.12   0.00    -0.19   0.21  -0.02     0.38   0.17   0.17
   4   6    -0.12   0.04  -0.02     0.06  -0.33  -0.04     0.16  -0.06   0.51
   5   8    -0.54   0.11  -0.08    -0.28  -0.33  -0.06    -0.31   0.08  -0.24
   6   8    -0.13   0.00   0.08     0.34  -0.02   0.07     0.08  -0.26  -0.15
   7   6     0.10  -0.33  -0.04     0.23   0.28   0.10    -0.19  -0.08  -0.07
   8   6     0.43  -0.13   0.08    -0.15  -0.01  -0.04    -0.12   0.08  -0.01
   9   1    -0.01   0.00  -0.07     0.00  -0.02  -0.03     0.08   0.04   0.06
  10   1     0.08   0.03  -0.06     0.02  -0.01  -0.03    -0.05  -0.02   0.04
  11   1     0.09   0.04  -0.04     0.06   0.02  -0.02    -0.05  -0.02   0.03
  12   1     0.05   0.02   0.00     0.02   0.03  -0.02    -0.02   0.00  -0.02
  13   1     0.03   0.02   0.04    -0.00   0.02   0.04    -0.01   0.00  -0.05
  14   1    -0.05   0.08   0.06     0.01   0.26   0.15     0.22   0.15   0.06
  15   1    -0.10   0.05  -0.04    -0.27   0.11  -0.16     0.13   0.10  -0.03
  16   1     0.03  -0.11  -0.02     0.06   0.08   0.03    -0.07   0.00  -0.00
  17   1     0.06  -0.08  -0.01     0.06   0.07   0.03    -0.10  -0.03  -0.02
  18   1     0.07   0.10   0.05     0.02  -0.16  -0.02    -0.04   0.05  -0.00
  19   1     0.21  -0.06   0.04    -0.14   0.02  -0.03    -0.02   0.02   0.00
  20   1     0.22  -0.06   0.04    -0.14   0.02  -0.03    -0.02   0.01   0.00
                     13                     14                     15
                        a                      a                      a 
 Frequencies --   719.5487               788.9272               819.8211
 Red. masses --    12.0315                 2.3274                 2.1996
 Frc consts  --     0.0000                 0.0000                 0.0000
 IR Inten    --    20.2898                 6.8843                 3.3966
 Raman Activ --     0.0000                 0.0000                 0.0000
 Depolar     --     0.0000                 0.0000                 0.0000
 Atom AN      X      Y      Z        X      Y      Z        X      Y      Z
   1   6    -0.15  -0.07   0.00    -0.03   0.03  -0.00     0.01   0.00   0.00
   2   6    -0.05  -0.03   0.11    -0.10   0.21   0.00     0.01  -0.01  -0.01
   3   6     0.28   0.09   0.12    -0.04   0.18   0.01    -0.02  -0.00  -0.01
   4   6     0.43   0.08  -0.64     0.03  -0.01  -0.04    -0.03   0.01   0.05
   5   8    -0.21   0.14   0.17    -0.07  -0.01  -0.00     0.01   0.01  -0.02
   6   8     0.04  -0.20   0.18     0.03  -0.12   0.00     0.02  -0.01  -0.11
   7   6    -0.13  -0.07  -0.01     0.03   0.03   0.02    -0.04  -0.03   0.27
   8   6    -0.08   0.05  -0.01     0.01   0.01   0.01    -0.01  -0.02   0.10
   9   1    -0.03  -0.01   0.01     0.04  -0.08   0.00    -0.00   0.01  -0.00
  10   1    -0.05  -0.02   0.01    -0.16  -0.20  -0.07     0.01   0.01   0.00
  11   1    -0.06  -0.02   0.01     0.24  -0.01   0.07    -0.01   0.00  -0.00
  12   1    -0.06  -0.01   0.08    -0.02  -0.30  -0.40     0.01   0.02   0.01
  13   1    -0.06  -0.01   0.02     0.23  -0.17   0.41    -0.01   0.00  -0.02
  14   1     0.04   0.06   0.10     0.09  -0.14  -0.30    -0.01  -0.00  -0.00
  15   1    -0.04   0.02  -0.00     0.07  -0.13   0.32     0.01   0.00  -0.00
  16   1    -0.07  -0.06  -0.06    -0.01  -0.00  -0.01     0.17  -0.38  -0.25
  17   1    -0.02   0.05  -0.03    -0.01   0.03  -0.00    -0.07   0.47  -0.17
  18   1    -0.03   0.03  -0.01     0.02  -0.04  -0.01     0.04   0.01  -0.15
  19   1    -0.00  -0.00  -0.01    -0.02   0.00  -0.01     0.25  -0.31  -0.17
  20   1    -0.02   0.03  -0.01    -0.03   0.02  -0.01    -0.19   0.36  -0.16
                     16                     17                     18
                        a                      a                      a 
 Frequencies --   877.2688               914.3783               929.8317
 Red. masses --     7.0573                 5.6202                 6.9636
 Frc consts  --     0.0000                 0.0000                 0.0000
 IR Inten    --    15.6667                 3.4152                 0.5509
 Raman Activ --     0.0000                 0.0000                 0.0000
 Depolar     --     0.0000                 0.0000                 0.0000
 Atom AN      X      Y      Z        X      Y      Z        X      Y      Z
   1   6     0.04  -0.09   0.00     0.11  -0.10  -0.05     0.21   0.14  -0.21
   2   6     0.04  -0.09   0.01     0.01  -0.02  -0.08    -0.01  -0.01  -0.29
   3   6    -0.12   0.21  -0.03    -0.04   0.26   0.14     0.02  -0.05   0.42
   4   6    -0.03   0.10  -0.00    -0.02  -0.12  -0.09    -0.11  -0.02  -0.16
   5   8    -0.08   0.14  -0.01    -0.02  -0.23   0.01     0.02  -0.10   0.03
   6   8    -0.12  -0.45  -0.06     0.16   0.28   0.07    -0.23   0.04  -0.03
   7   6     0.22   0.17   0.07    -0.12  -0.10  -0.04     0.08   0.10   0.04
   8   6     0.18   0.04   0.04    -0.16  -0.04  -0.04     0.12  -0.03   0.02
   9   1    -0.05   0.09  -0.01     0.07   0.17   0.06     0.44   0.18   0.20
  10   1     0.18   0.18   0.05     0.15   0.18   0.09    -0.22  -0.11   0.08
  11   1    -0.24  -0.02  -0.06    -0.33  -0.06  -0.03    -0.08  -0.08   0.12
  12   1     0.16   0.14   0.03     0.19   0.11  -0.08    -0.17  -0.08   0.01
  13   1    -0.21  -0.04  -0.03    -0.27  -0.11   0.07    -0.05  -0.03  -0.05
  14   1    -0.07  -0.14  -0.18     0.09  -0.06  -0.21    -0.08  -0.01   0.20
  15   1     0.13  -0.03   0.18     0.03  -0.08   0.30    -0.03   0.01   0.07
  16   1    -0.08   0.07  -0.01     0.07  -0.04   0.01    -0.01   0.03   0.00
  17   1    -0.04   0.04   0.01     0.06  -0.03   0.00    -0.02   0.03   0.00
  18   1     0.16  -0.32  -0.00    -0.14   0.26   0.01     0.08  -0.13  -0.00
  19   1    -0.17   0.07  -0.03     0.13  -0.05   0.03    -0.03   0.00  -0.01
  20   1    -0.15   0.02  -0.01     0.12  -0.03   0.01    -0.04   0.00  -0.00
                     19                     20                     21
                        a                      a                      a 
 Frequencies --   987.4146              1056.6280              1074.5551
 Red. masses --    11.2330                 5.7025                 9.1833
 Frc consts  --     0.0000                 0.0000                 0.0000
 IR Inten    --     6.9517                17.3088               131.8742
 Raman Activ --     0.0000                 0.0000                 0.0000
 Depolar     --     0.0000                 0.0000                 0.0000
 Atom AN      X      Y      Z        X      Y      Z        X      Y      Z
   1   6    -0.17  -0.08   0.07     0.09  -0.07   0.02    -0.02   0.07  -0.02
   2   6     0.06   0.03   0.13    -0.09   0.09  -0.05     0.02  -0.09   0.05
   3   6     0.44   0.20  -0.01    -0.03  -0.27  -0.01    -0.06   0.20  -0.05
   4   6    -0.18  -0.13  -0.11     0.18  -0.01   0.07    -0.12   0.01  -0.03
   5   8     0.00  -0.34  -0.01     0.05   0.12   0.01    -0.02  -0.06  -0.01
   6   8    -0.41   0.27  -0.08     0.01   0.19   0.02     0.44   0.04   0.11
   7   6     0.01   0.17   0.02    -0.34   0.04  -0.09    -0.49   0.12  -0.08
   8   6     0.19  -0.12   0.03     0.27  -0.10   0.05     0.24  -0.23   0.01
   9   1    -0.17  -0.08  -0.06    -0.02   0.05  -0.00     0.05  -0.01   0.02
  10   1     0.03   0.01  -0.03     0.12   0.10   0.03    -0.09  -0.07  -0.01
  11   1     0.02   0.02  -0.03    -0.11  -0.01  -0.03     0.08   0.01   0.03
  12   1     0.03   0.02   0.03     0.09  -0.00  -0.16    -0.08  -0.01   0.12
  13   1     0.03   0.01   0.03    -0.07  -0.07   0.12     0.01   0.03  -0.08
  14   1     0.23   0.12  -0.03     0.27   0.16  -0.02    -0.25  -0.15  -0.01
  15   1     0.20   0.09  -0.03    -0.43  -0.16   0.01     0.29   0.11  -0.00
  16   1    -0.02   0.05   0.01    -0.17   0.06  -0.01    -0.17   0.08  -0.01
  17   1    -0.04   0.04  -0.00    -0.19   0.05  -0.05    -0.13   0.09  -0.04
  18   1     0.10  -0.15  -0.01     0.16  -0.27  -0.01     0.09  -0.15   0.00
  19   1     0.00  -0.03  -0.01    -0.06  -0.02  -0.04     0.02  -0.06  -0.02
  20   1    -0.01  -0.02  -0.00    -0.08  -0.02  -0.00     0.02  -0.08   0.01
                     22                     23                     24
                        a                      a                      a 
 Frequencies --  1088.2913              1105.2004              1120.0599
 Red. masses --     8.8828                 7.4523                 8.2579
 Frc consts  --     0.0000                 0.0000                 0.0000
 IR Inten    --     1.3624                44.0249                33.5694
 Raman Activ --     0.0000                 0.0000                 0.0000
 Depolar     --     0.0000                 0.0000                 0.0000
 Atom AN      X      Y      Z        X      Y      Z        X      Y      Z
   1   6    -0.43  -0.22  -0.25     0.09   0.02  -0.23    -0.02   0.01   0.01
   2   6     0.56   0.28   0.08    -0.10  -0.01   0.49     0.02  -0.01  -0.02
   3   6    -0.03  -0.03   0.05     0.18   0.02  -0.46    -0.01   0.06   0.04
   4   6    -0.02   0.01   0.08    -0.10   0.01   0.09    -0.10  -0.01  -0.05
   5   8     0.01   0.02  -0.01     0.02   0.03  -0.02     0.00  -0.12   0.00
   6   8     0.04  -0.00  -0.00     0.02  -0.01  -0.03     0.13   0.22   0.08
   7   6    -0.03  -0.00  -0.01     0.03  -0.06   0.02    -0.02  -0.54  -0.14
   8   6     0.01  -0.01   0.00    -0.01   0.05  -0.01     0.04   0.44   0.12
   9   1     0.02   0.01   0.03     0.29   0.15   0.14    -0.02  -0.01  -0.01
  10   1    -0.23  -0.10   0.01    -0.16  -0.04   0.10    -0.00  -0.01  -0.01
  11   1    -0.24  -0.12   0.00    -0.18  -0.11   0.09     0.02   0.01  -0.00
  12   1     0.19   0.09  -0.00    -0.17  -0.09   0.17     0.01   0.01   0.01
  13   1     0.18   0.08   0.02    -0.20  -0.09   0.23     0.02   0.01  -0.03
  14   1    -0.13  -0.05   0.09     0.05   0.04  -0.07    -0.03  -0.02  -0.00
  15   1    -0.15  -0.08   0.09    -0.07  -0.03  -0.09     0.09   0.04   0.01
  16   1    -0.01   0.00  -0.00     0.00  -0.03  -0.01     0.07  -0.11   0.02
  17   1    -0.00   0.00  -0.00     0.05  -0.01   0.00    -0.01  -0.16  -0.02
  18   1     0.01  -0.01   0.00     0.00  -0.01   0.01     0.14  -0.26  -0.03
  19   1    -0.00  -0.00  -0.00    -0.03   0.03   0.00    -0.26   0.13  -0.08
  20   1    -0.00  -0.00   0.00    -0.02   0.00   0.00    -0.31   0.18  -0.03
                     25                     26                     27
                        a                      a                      a 
 Frequencies --  1137.2978              1200.3911              1228.4068
 Red. masses --     5.1488                 8.2902                 6.5328
 Frc consts  --     0.0000                 0.0000                 0.0000
 IR Inten    --    13.7727               244.5527               193.3973
 Raman Activ --     0.0000                 0.0000                 0.0000
 Depolar     --     0.0000                 0.0000                 0.0000
 Atom AN      X      Y      Z        X      Y      Z        X      Y      Z
   1   6    -0.00  -0.01   0.02    -0.08   0.21  -0.01    -0.11   0.19  -0.00
   2   6    -0.00   0.01  -0.04     0.16  -0.33   0.03     0.11  -0.24  -0.00
   3   6     0.01  -0.01   0.04    -0.18   0.20  -0.09     0.06  -0.01   0.08
   4   6    -0.04   0.00  -0.00     0.46  -0.15   0.14    -0.46   0.14  -0.14
   5   8     0.01  -0.02  -0.01    -0.04  -0.05  -0.02     0.06   0.10   0.02
   6   8     0.05   0.06  -0.16    -0.23   0.20  -0.05     0.20  -0.18   0.01
   7   6    -0.11  -0.13   0.45     0.02  -0.02   0.02    -0.01   0.02  -0.03
   8   6     0.07   0.09  -0.28     0.02   0.01  -0.02    -0.03  -0.02   0.07
   9   1    -0.02  -0.01  -0.01     0.06  -0.09   0.01     0.04  -0.09   0.00
  10   1     0.02   0.01  -0.00    -0.17  -0.15  -0.06    -0.14  -0.12  -0.06
  11   1     0.01   0.01  -0.01     0.21   0.03   0.07     0.19   0.04   0.06
  12   1     0.01   0.00  -0.02    -0.01   0.07   0.24     0.20   0.14   0.05
  13   1     0.01   0.00  -0.00    -0.11   0.01  -0.18    -0.14  -0.02  -0.10
  14   1     0.02   0.02   0.01     0.01  -0.07  -0.22     0.40   0.22  -0.11
  15   1    -0.00   0.00   0.00    -0.17  -0.12   0.21    -0.18  -0.10   0.12
  16   1    -0.27  -0.25  -0.22    -0.04  -0.01  -0.02    -0.09   0.04  -0.01
  17   1     0.35   0.26  -0.00    -0.07   0.02  -0.02     0.20  -0.05   0.04
  18   1    -0.02  -0.05   0.14     0.01  -0.03   0.01    -0.01   0.03  -0.02
  19   1    -0.23   0.28   0.08    -0.02   0.02   0.00     0.04  -0.06  -0.02
  20   1     0.13  -0.28   0.08     0.01  -0.02   0.00    -0.03   0.06  -0.01
                     28                     29                     30
                        a                      a                      a 
 Frequencies --  1233.5312              1256.6539              1266.4052
 Red. masses --     2.6181                 4.4405                 2.2084
 Frc consts  --     0.0000                 0.0000                 0.0000
 IR Inten    --    17.2418                52.3698                15.4782
 Raman Activ --     0.0000                 0.0000                 0.0000
 Depolar     --     0.0000                 0.0000                 0.0000
 Atom AN      X      Y      Z        X      Y      Z        X      Y      Z
   1   6    -0.03   0.04  -0.01    -0.00  -0.04  -0.17     0.09  -0.19   0.02
   2   6     0.03  -0.05   0.02    -0.06  -0.02   0.22     0.02  -0.03  -0.02
   3   6    -0.00  -0.02   0.02    -0.39  -0.14   0.13    -0.03   0.19  -0.00
   4   6    -0.13   0.04  -0.04     0.16  -0.04  -0.06    -0.13   0.03  -0.03
   5   8     0.01   0.03   0.01    -0.01   0.03   0.01     0.01   0.03   0.00
   6   8     0.04  -0.08   0.13    -0.03   0.04  -0.00     0.06  -0.05   0.01
   7   6    -0.03  -0.01   0.08     0.02  -0.01   0.01    -0.03   0.01  -0.01
   8   6     0.06   0.04  -0.27    -0.01  -0.01   0.01     0.00   0.00   0.00
   9   1     0.02  -0.01   0.01     0.15   0.08   0.07    -0.04   0.04  -0.01
  10   1    -0.04  -0.03  -0.01    -0.06   0.01   0.05     0.14   0.10   0.05
  11   1     0.04   0.00   0.02    -0.08  -0.06   0.03    -0.15  -0.03  -0.06
  12   1     0.06   0.04   0.00     0.15   0.06  -0.04    -0.48  -0.22   0.25
  13   1    -0.02  -0.00  -0.02     0.26   0.14  -0.10     0.45   0.22  -0.25
  14   1     0.12   0.07  -0.04     0.40   0.15  -0.26     0.18   0.08  -0.16
  15   1    -0.01  -0.01   0.00     0.40   0.22  -0.22    -0.20  -0.13   0.22
  16   1     0.57  -0.15   0.11    -0.10   0.02  -0.02     0.04  -0.01   0.01
  17   1    -0.54   0.15  -0.10    -0.02   0.01  -0.01     0.04  -0.01   0.01
  18   1    -0.03  -0.01   0.09    -0.00   0.01  -0.00     0.00   0.00  -0.00
  19   1    -0.14   0.20   0.06     0.01  -0.01   0.00    -0.00  -0.00  -0.00
  20   1     0.11  -0.22   0.05    -0.00   0.01  -0.00    -0.00  -0.00   0.00
                     31                     32                     33
                        a                      a                      a 
 Frequencies --  1319.4291              1337.4080              1395.4494
 Red. masses --     3.8974                 4.6126                 3.3446
 Frc consts  --     0.0000                 0.0000                 0.0000
 IR Inten    --     5.1027                19.7403                 8.3898
 Raman Activ --     0.0000                 0.0000                 0.0000
 Depolar     --     0.0000                 0.0000                 0.0000
 Atom AN      X      Y      Z        X      Y      Z        X      Y      Z
   1   6    -0.00  -0.01   0.02    -0.01  -0.00   0.12     0.00   0.00   0.00
   2   6     0.03   0.01  -0.02     0.41   0.19  -0.17    -0.00  -0.00  -0.00
   3   6     0.04   0.02  -0.01    -0.24  -0.12   0.05     0.01   0.00  -0.01
   4   6    -0.13   0.01  -0.03     0.02   0.01  -0.03    -0.04  -0.00  -0.01
   5   8     0.01   0.00   0.00     0.00   0.02   0.01     0.00   0.00   0.00
   6   8     0.11   0.10   0.04     0.01  -0.02   0.01     0.04   0.02   0.01
   7   6     0.38  -0.21   0.06    -0.02   0.01  -0.00     0.09  -0.04   0.02
   8   6    -0.06  -0.11  -0.03    -0.00   0.00   0.00    -0.32   0.31  -0.03
   9   1    -0.02  -0.01  -0.01    -0.14  -0.07  -0.06    -0.00  -0.00  -0.00
  10   1     0.01   0.00  -0.00    -0.01  -0.06  -0.05    -0.00  -0.00   0.00
  11   1    -0.00   0.01  -0.01    -0.05   0.03  -0.05    -0.00  -0.00  -0.00
  12   1    -0.05  -0.02   0.02    -0.42  -0.20   0.21    -0.00  -0.00  -0.00
  13   1    -0.02  -0.01   0.00    -0.42  -0.20   0.21     0.00   0.00  -0.00
  14   1     0.00   0.02   0.03     0.20   0.10  -0.11     0.00   0.02   0.02
  15   1    -0.01  -0.02   0.04     0.19   0.09  -0.10     0.01  -0.01   0.02
  16   1    -0.56   0.14  -0.08     0.02  -0.00   0.00    -0.12  -0.02  -0.07
  17   1    -0.54   0.15  -0.13     0.02  -0.01   0.01    -0.14  -0.03  -0.00
  18   1    -0.10   0.19   0.01     0.00  -0.01  -0.00     0.15  -0.50  -0.04
  19   1    -0.05   0.07   0.06     0.01  -0.01  -0.00     0.43  -0.22  -0.04
  20   1    -0.02   0.08  -0.05     0.00  -0.00   0.00     0.38  -0.25   0.16
                     34                     35                     36
                        a                      a                      a 
 Frequencies --  1408.5378              1437.7052              1462.9324
 Red. masses --     3.1448                 2.2028                 1.5170
 Frc consts  --     0.0000                 0.0000                 0.0000
 IR Inten    --     1.3147                 6.4848                 5.1955
 Raman Activ --     0.0000                 0.0000                 0.0000
 Depolar     --     0.0000                 0.0000                 0.0000
 Atom AN      X      Y      Z        X      Y      Z        X      Y      Z
   1   6    -0.39  -0.19  -0.05     0.00  -0.00   0.00     0.00   0.00  -0.00
   2   6     0.06   0.03  -0.05    -0.02  -0.01  -0.01    -0.00  -0.00   0.00
   3   6    -0.01  -0.01  -0.01    -0.15  -0.08  -0.26     0.00   0.00   0.00
   4   6     0.00  -0.00   0.00     0.07  -0.04  -0.01    -0.00   0.00   0.00
   5   8     0.00   0.00  -0.00     0.00   0.04   0.00     0.00  -0.00  -0.00
   6   8     0.00  -0.00   0.00    -0.02   0.01  -0.00     0.00   0.00  -0.00
   7   6    -0.00  -0.00  -0.00    -0.02   0.01  -0.00    -0.01   0.00   0.05
   8   6    -0.00   0.00   0.00     0.01  -0.01   0.00    -0.05  -0.03   0.20
   9   1     0.38   0.19   0.28     0.02   0.01   0.01     0.00   0.00   0.00
  10   1     0.38   0.34  -0.04     0.01  -0.01  -0.02    -0.00  -0.00  -0.00
  11   1     0.50   0.08  -0.04     0.00   0.01  -0.02    -0.00   0.00  -0.00
  12   1    -0.07   0.01   0.09     0.02   0.02  -0.00     0.00   0.00  -0.00
  13   1    -0.03  -0.06   0.09     0.02  -0.00   0.00     0.00   0.00  -0.00
  14   1    -0.00  -0.01  -0.01     0.02   0.46   0.48    -0.00  -0.00   0.00
  15   1    -0.01   0.00  -0.01     0.39  -0.24   0.49    -0.00  -0.00   0.00
  16   1     0.00  -0.00  -0.00     0.02  -0.01  -0.01     0.01  -0.04  -0.02
  17   1    -0.00  -0.00   0.00     0.01  -0.02   0.01    -0.02   0.00   0.01
  18   1     0.00  -0.00  -0.00    -0.00   0.01   0.00     0.16   0.11  -0.69
  19   1     0.00  -0.00  -0.00    -0.01   0.01   0.00    -0.43   0.00  -0.18
  20   1     0.00  -0.00   0.00    -0.01   0.01  -0.01     0.47   0.01   0.03
                     37                     38                     39
                        a                      a                      a 
 Frequencies --  1465.6751              1480.8762              1486.3852
 Red. masses --     1.8836                 1.5745                 1.8817
 Frc consts  --     0.0000                 0.0000                 0.0000
 IR Inten    --     0.6870                 3.9864                 1.1419
 Raman Activ --     0.0000                 0.0000                 0.0000
 Depolar     --     0.0000                 0.0000                 0.0000
 Atom AN      X      Y      Z        X      Y      Z        X      Y      Z
   1   6     0.00  -0.00   0.00    -0.00  -0.00  -0.00    -0.04  -0.02  -0.01
   2   6    -0.00  -0.00  -0.01     0.01   0.00   0.02     0.12   0.06   0.24
   3   6    -0.00  -0.00  -0.00     0.00   0.00   0.00     0.01   0.01   0.00
   4   6     0.01  -0.02   0.00     0.00  -0.00   0.00     0.00  -0.00   0.00
   5   8    -0.00   0.01  -0.00     0.00  -0.00   0.00     0.00  -0.00   0.00
   6   8    -0.05  -0.03  -0.02     0.00  -0.00   0.00    -0.00   0.00  -0.00
   7   6    -0.01  -0.26  -0.05    -0.06  -0.02  -0.02     0.00  -0.01  -0.00
   8   6    -0.04   0.03   0.00    -0.12  -0.17  -0.05     0.01   0.01   0.01
   9   1    -0.00   0.00  -0.00    -0.00   0.00  -0.00     0.01  -0.00   0.01
  10   1    -0.00  -0.00  -0.00     0.00   0.01   0.01     0.04   0.07   0.04
  11   1    -0.00   0.00  -0.00     0.01  -0.00   0.01     0.07  -0.02   0.05
  12   1     0.00   0.02   0.02    -0.00  -0.04  -0.04    -0.03  -0.46  -0.48
  13   1     0.01  -0.01   0.02    -0.03   0.02  -0.04    -0.38   0.26  -0.49
  14   1    -0.00   0.01   0.01    -0.00  -0.00  -0.00    -0.01   0.01   0.02
  15   1     0.01  -0.00   0.01    -0.00   0.00  -0.00    -0.00  -0.01   0.02
  16   1     0.06   0.45   0.50     0.04  -0.01   0.01    -0.00   0.02   0.02
  17   1     0.23   0.57  -0.26     0.04  -0.01   0.00     0.01   0.02  -0.01
  18   1     0.01  -0.04  -0.03     0.08  -0.26  -0.03    -0.01   0.02   0.00
  19   1     0.03  -0.03  -0.02     0.12   0.41   0.50    -0.01  -0.03  -0.04
  20   1     0.05  -0.03   0.02     0.31   0.53  -0.24    -0.02  -0.04   0.02
                     40                     41                     42
                        a                      a                      a 
 Frequencies --  1492.3094              1495.1335              1695.1939
 Red. masses --     1.5294                 1.5815                13.3160
 Frc consts  --     0.0000                 0.0000                 0.0000
 IR Inten    --     2.4299                 1.2122               674.4103
 Raman Activ --     0.0000                 0.0000                 0.0000
 Depolar     --     0.0000                 0.0000                 0.0000
 Atom AN      X      Y      Z        X      Y      Z        X      Y      Z
   1   6     0.08  -0.19   0.06    -0.05   0.04   0.20     0.00  -0.00  -0.01
   2   6     0.02  -0.04   0.02    -0.02   0.00   0.08    -0.01  -0.01   0.01
   3   6     0.00   0.01   0.00     0.01   0.01  -0.00    -0.06  -0.06  -0.03
   4   6    -0.00  -0.00  -0.00     0.00  -0.00   0.00     0.16   0.78   0.08
   5   8     0.00   0.00   0.00     0.00  -0.00  -0.00    -0.09  -0.58  -0.06
   6   8     0.00  -0.00  -0.00    -0.00   0.00  -0.00     0.01  -0.05   0.00
   7   6     0.00   0.00   0.00    -0.00  -0.00  -0.00     0.01   0.01   0.00
   8   6     0.00   0.00   0.00    -0.00  -0.00  -0.00    -0.01  -0.01  -0.00
   9   1    -0.24   0.65   0.04     0.32  -0.05   0.18     0.01   0.01   0.00
  10   1    -0.31  -0.17   0.17     0.17  -0.34  -0.58    -0.00   0.00   0.00
  11   1     0.21   0.28  -0.43    -0.29   0.23  -0.43    -0.00  -0.00  -0.00
  12   1     0.03  -0.00  -0.01     0.02  -0.03  -0.05    -0.00  -0.00   0.00
  13   1    -0.03   0.00  -0.03     0.00   0.04  -0.05     0.01   0.01  -0.00
  14   1     0.01  -0.00  -0.01    -0.01  -0.02  -0.02     0.03   0.05   0.01
  15   1    -0.02  -0.00  -0.00    -0.01   0.01  -0.02    -0.04  -0.03   0.02
  16   1     0.00  -0.00  -0.00     0.00   0.00   0.00    -0.01   0.02   0.00
  17   1    -0.00  -0.00   0.00     0.00   0.00  -0.00    -0.01   0.02  -0.00
  18   1    -0.00   0.00   0.00     0.00  -0.00   0.00    -0.00   0.00  -0.00
  19   1    -0.00  -0.00  -0.00     0.00   0.00   0.00     0.01  -0.00   0.00
  20   1    -0.00  -0.00   0.00     0.00   0.00  -0.00     0.01  -0.00   0.00
                     43                     44                     45
                        a                      a                      a 
 Frequencies --  2926.3543              2948.0841              2972.5421
 Red. masses --     1.9851                 1.4586                 1.9545
 Frc consts  --     0.0000                 0.0000                 0.0000
 IR Inten    --    39.4820                37.8047                48.2006
 Raman Activ --     0.0000                 0.0000                 0.0000
 Depolar     --     0.0000                 0.0000                 0.0000
 Atom AN      X      Y      Z        X      Y      Z        X      Y      Z
   1   6    -0.00   0.00  -0.00     0.00   0.00   0.00    -0.01   0.02   0.00
   2   6     0.00  -0.00  -0.00     0.00  -0.00  -0.00     0.11  -0.27  -0.03
   3   6    -0.00   0.00  -0.00     0.00  -0.00  -0.00    -0.01   0.03   0.00
   4   6    -0.00   0.00  -0.00    -0.00   0.01  -0.00    -0.00   0.00  -0.00
   5   8    -0.00  -0.00   0.00    -0.00  -0.00  -0.00     0.00   0.00   0.00
   6   8    -0.00  -0.00   0.01     0.02   0.01   0.00    -0.00  -0.00  -0.00
   7   6    -0.07  -0.04   0.29     0.03   0.20   0.03    -0.00  -0.00  -0.00
   8   6     0.00   0.00  -0.01    -0.01  -0.01  -0.00     0.00   0.00   0.00
   9   1    -0.00  -0.00   0.00    -0.00  -0.00   0.00     0.00   0.01  -0.01
  10   1     0.00  -0.00   0.00    -0.00   0.00  -0.00     0.03  -0.03   0.03
  11   1     0.00  -0.00  -0.00     0.00  -0.00  -0.00     0.00  -0.05  -0.04
  12   1     0.00   0.00  -0.00    -0.00   0.00  -0.00    -0.29   0.31  -0.30
  13   1    -0.00   0.00   0.00    -0.00   0.01   0.00    -0.10   0.66   0.42
  14   1     0.00  -0.00   0.00    -0.00   0.00  -0.00     0.05  -0.05   0.05
  15   1    -0.00   0.00   0.00    -0.00   0.00   0.00     0.02  -0.09  -0.06
  16   1     0.19   0.46  -0.42    -0.21  -0.47   0.50     0.00   0.00  -0.00
  17   1     0.05  -0.32  -0.62     0.06  -0.26  -0.61    -0.00   0.00   0.00
  18   1     0.00   0.00  -0.00     0.02   0.01   0.00    -0.00  -0.00   0.00
  19   1    -0.01  -0.03   0.02     0.01   0.02  -0.02     0.00  -0.00  -0.00
  20   1    -0.00   0.02   0.03    -0.00   0.01   0.02    -0.00  -0.00  -0.00
                     46                     47                     48
                        a                      a                      a 
 Frequencies --  2987.5457              3006.1618              3011.8827
 Red. masses --     1.4894                 1.4809                 2.0300
 Frc consts  --     0.0000                 0.0000                 0.0000
 IR Inten    --    33.6476                19.1061                37.0919
 Raman Activ --     0.0000                 0.0000                 0.0000
 Depolar     --     0.0000                 0.0000                 0.0000
 Atom AN      X      Y      Z        X      Y      Z        X      Y      Z
   1   6     0.00   0.01  -0.02     0.00   0.00  -0.02    -0.01   0.01  -0.00
   2   6     0.10  -0.01   0.18     0.01   0.00   0.03     0.02  -0.04   0.00
   3   6    -0.02   0.01  -0.02     0.07   0.04   0.19     0.13  -0.27   0.01
   4   6     0.00   0.00   0.00     0.00   0.00   0.00     0.00  -0.01   0.00
   5   8    -0.00  -0.00  -0.00    -0.00  -0.00   0.00    -0.00   0.00  -0.00
   6   8    -0.00   0.00  -0.00     0.00   0.00   0.00    -0.00   0.00  -0.00
   7   6     0.00   0.00   0.00    -0.00  -0.00   0.00    -0.00  -0.00  -0.00
   8   6     0.00   0.00  -0.00    -0.00  -0.00  -0.00     0.00   0.00   0.00
   9   1    -0.02  -0.01   0.04    -0.02  -0.01   0.03    -0.00   0.00   0.00
  10   1     0.03  -0.03   0.02     0.02  -0.03   0.02     0.02  -0.02   0.02
  11   1    -0.00   0.02   0.01    -0.01   0.03   0.02     0.00  -0.02  -0.01
  12   1    -0.44   0.52  -0.41    -0.06   0.07  -0.06    -0.06   0.07  -0.06
  13   1     0.09  -0.47  -0.26     0.02  -0.08  -0.05    -0.01   0.07   0.04
  14   1     0.08  -0.09   0.07    -0.37   0.44  -0.34    -0.37   0.42  -0.38
  15   1    -0.02   0.07   0.04     0.13  -0.59  -0.34    -0.10   0.55   0.35
  16   1    -0.00  -0.00   0.00    -0.00  -0.00   0.00     0.00   0.00  -0.00
  17   1     0.00  -0.00  -0.00    -0.00  -0.00  -0.00    -0.00   0.00   0.00
  18   1     0.00   0.00   0.00     0.00   0.00   0.00    -0.00  -0.00  -0.00
  19   1    -0.00  -0.00   0.00    -0.00   0.00  -0.00    -0.00  -0.00   0.00
  20   1     0.00  -0.00  -0.00    -0.00   0.00   0.00     0.00  -0.00  -0.00
                     49                     50                     51
                        a                      a                      a 
 Frequencies --  3039.4490              3042.2109              3048.8482
 Red. masses --     1.9573                 1.8913                 1.3070
 Frc consts  --     0.0000                 0.0000                 0.0000
 IR Inten    --    70.0137                61.8068                34.5234
 Raman Activ --     0.0000                 0.0000                 0.0000
 Depolar     --     0.0000                 0.0000                 0.0000
 Atom AN      X      Y      Z        X      Y      Z        X      Y      Z
   1   6    -0.12   0.26  -0.05    -0.03   0.05   0.28    -0.14  -0.07   0.06
   2   6    -0.02   0.03  -0.01     0.00   0.01   0.02    -0.00  -0.00   0.00
   3   6    -0.00   0.01  -0.00     0.00   0.00   0.01    -0.00  -0.00  -0.00
   4   6    -0.00   0.00  -0.00    -0.00   0.00   0.00     0.00   0.00   0.00
   5   8     0.00  -0.00  -0.00    -0.00  -0.00  -0.00    -0.00  -0.00  -0.00
   6   8     0.00  -0.00   0.00     0.00  -0.00  -0.00    -0.00   0.00  -0.00
   7   6     0.00   0.00  -0.00    -0.00  -0.00   0.00     0.00   0.00   0.00
   8   6    -0.00  -0.00  -0.00    -0.00  -0.00  -0.00    -0.00   0.00  -0.00
   9   1    -0.06   0.02   0.08     0.27   0.13  -0.48     0.34   0.16  -0.68
  10   1     0.43  -0.47   0.42    -0.24   0.27  -0.18     0.22  -0.27   0.23
  11   1     0.07  -0.46  -0.31     0.09  -0.57  -0.31    -0.08   0.36   0.24
  12   1     0.04  -0.05   0.04    -0.02   0.03  -0.02    -0.01   0.01  -0.01
  13   1     0.01  -0.04  -0.03     0.01  -0.05  -0.03    -0.00  -0.01  -0.00
  14   1     0.01  -0.02   0.02    -0.02   0.03  -0.02     0.00  -0.00   0.00
  15   1     0.00  -0.01  -0.01     0.01  -0.04  -0.02    -0.00   0.00   0.00
  16   1    -0.00  -0.00   0.00     0.00   0.00  -0.00    -0.00  -0.00   0.00
  17   1    -0.00   0.00  -0.00    -0.00   0.00   0.00     0.00  -0.00  -0.00
  18   1     0.00   0.00   0.00     0.00   0.00   0.00     0.00   0.00   0.00
  19   1     0.00   0.00  -0.00     0.00   0.00  -0.00    -0.00  -0.00   0.00
  20   1    -0.00   0.00   0.00    -0.00   0.00   0.00     0.00  -0.00  -0.00
                     52                     53                     54
                        a                      a                      a 
 Frequencies --  3055.9765              3058.9444              3065.3486
 Red. masses --     1.9470                 1.4025                 1.8271
 Frc consts  --     0.0000                 0.0000                 0.0000
 IR Inten    --    30.2936                19.6410                23.1833
 Raman Activ --     0.0000                 0.0000                 0.0000
 Depolar     --     0.0000                 0.0000                 0.0000
 Atom AN      X      Y      Z        X      Y      Z        X      Y      Z
   1   6     0.00  -0.00  -0.00     0.00   0.00   0.00     0.00  -0.00  -0.00
   2   6     0.00  -0.00  -0.00    -0.00   0.00  -0.00     0.00  -0.00  -0.00
   3   6     0.00  -0.00  -0.00    -0.00   0.00   0.00     0.00  -0.00  -0.00
   4   6     0.00   0.00  -0.00     0.00  -0.00   0.00     0.00  -0.00  -0.00
   5   8    -0.00   0.00   0.00     0.00  -0.00   0.00     0.00   0.00   0.00
   6   8    -0.00  -0.00   0.00    -0.00   0.00  -0.00     0.00   0.00   0.00
   7   6     0.00   0.00  -0.02     0.00   0.01  -0.00    -0.01  -0.01  -0.00
   8   6     0.06   0.01  -0.29     0.03   0.19  -0.02    -0.24  -0.11  -0.07
   9   1     0.00  -0.00  -0.00    -0.00  -0.00   0.00    -0.00  -0.00   0.00
  10   1    -0.00   0.00  -0.00    -0.00   0.00  -0.00    -0.00   0.00  -0.00
  11   1    -0.00   0.00   0.00     0.00  -0.00  -0.00     0.00   0.00   0.00
  12   1    -0.00  -0.00  -0.00     0.00  -0.00   0.00    -0.00   0.00  -0.00
  13   1    -0.00   0.00   0.00     0.00   0.00   0.00    -0.00   0.00   0.00
  14   1     0.00  -0.00  -0.00     0.00  -0.00   0.00    -0.00   0.00  -0.00
  15   1    -0.00   0.00   0.00     0.00  -0.00  -0.00    -0.00   0.00   0.00
  16   1    -0.01  -0.02   0.02    -0.01  -0.02   0.02     0.01   0.01  -0.01
  17   1    -0.00   0.02   0.04     0.00  -0.01  -0.02    -0.00   0.01   0.02
  18   1    -0.01  -0.00  -0.04     0.15   0.07   0.04     0.86   0.30   0.25
  19   1    -0.18  -0.37   0.33    -0.26  -0.53   0.54     0.01   0.07  -0.09
  20   1    -0.03   0.35   0.71     0.03  -0.21  -0.50    -0.03   0.03   0.08
