      -----------------------------------------------------------      
     |                   =====================                   |     
     |                           x T B                           |     
     |                   =====================                   |     
     |                         S. Grimme                         |     
     |          Mulliken Center for Theoretical Chemistry        |     
     |                    University of Bonn                     |     
      -----------------------------------------------------------      

   * xtb version 6.7.1 (edcfbbe) compiled by 'albert@albert-system' on 2024-07-22

   xtb is free software: you can redistribute it and/or modify it under
   the terms of the GNU Lesser General Public License as published by
   the Free Software Foundation, either version 3 of the License, or
   (at your option) any later version.
   
   xtb is distributed in the hope that it will be useful,
   but WITHOUT ANY WARRANTY; without even the implied warranty of
   MERCHANTABILITY or FITNESS FOR A PARTICULAR PURPOSE.  See the
   GNU Lesser General Public License for more details.
   
   Cite this work as:
   * C. Bannwarth, E. Caldeweyher, S. Ehlert, A. Hansen, P. Pracht,
     J. Seibert, S. Spicher, S. Grimme, WIREs Comput. Mol. Sci., 2020, 11,
     e01493. DOI: 10.1002/wcms.1493
   
   for GFN2-xTB:
   * C. Bannwarth, S. Ehlert and S. Grimme., J. Chem. Theory Comput., 2019,
     15, 1652-1671. DOI: 10.1021/acs.jctc.8b01176
   for GFN1-xTB:
   * S. Grimme, C. Bannwarth, P. Shushkov, J. Chem. Theory Comput., 2017,
     13, 1989-2009. DOI: 10.1021/acs.jctc.7b00118
   for GFN0-xTB:
   * P. Pracht, E. Caldeweyher, S. Ehlert, S. Grimme, ChemRxiv, 2019, preprint.
     DOI: 10.26434/chemrxiv.8326202.v1
   for GFN-FF:
   * S. Spicher and S. Grimme, Angew. Chem. Int. Ed., 2020, 59, 15665-15673.
     DOI: 10.1002/anie.202004239
   
   for ALPB and GBSA implicit solvation:
   * S. Ehlert, M. Stahn, S. Spicher, S. Grimme, J. Chem. Theory Comput.,
     2021, 17, 4250-4261. DOI: 10.1021/acs.jctc.1c00471
   
   for ddCOSMO and CPCM-X implicit solvation:
   * M. Stahn, S. Ehlert, S. Grimme, J. Phys. Chem. A,
     2023, XX, XXXX-XXXX. DOI: 10.1021/acs.jpca.3c04382
   
   for DFT-D4:
   * E. Caldeweyher, C. Bannwarth and S. Grimme, J. Chem. Phys., 2017,
     147, 034112. DOI: 10.1063/1.4993215
   * E. Caldeweyher, S. Ehlert, A. Hansen, H. Neugebauer, S. Spicher,
     C. Bannwarth and S. Grimme, J. Chem. Phys., 2019, 150, 154122.
     DOI: 10.1063/1.5090222
   * E. Caldeweyher, J.-M. Mewes, S. Ehlert and S. Grimme, Phys. Chem. Chem. Phys.
     2020, 22, 8499-8512. DOI: 10.1039/D0CP00502A
   
   for sTDA-xTB:
   * S. Grimme and C. Bannwarth, J. Chem. Phys., 2016, 145, 054103.
     DOI: 10.1063/1.4959605
   
   in the mass-spec context:
   * V. Asgeirsson, C. Bauer and S. Grimme, Chem. Sci., 2017, 8, 4879.
     DOI: 10.1039/c7sc00601b
   * J. Koopman and S. Grimme, ACS Omega 2019, 4, 12, 15120-15133.
     DOI: 10.1021/acsomega.9b02011
   
   for metadynamics refer to:
   * S. Grimme, J. Chem. Theory Comput., 2019, 155, 2847-2862
     DOI: 10.1021/acs.jctc.9b00143
   
   for SPH calculations refer to:
   * S. Spicher and S. Grimme, J. Chem. Theory Comput., 2021, 17, 1701-1714
     DOI: 10.1021/acs.jctc.0c01306
   
   for ONIOM refer to:
   * C. Plett, A. Katbashev, S. Ehlert, S. Grimme, M. Bursch,
     Phys. Chem. Chem. Phys., 2023, 25, 17860-17868. DOI: 10.1039/D3CP02178E
   
   for DIPRO refer to:
   * J. Kohn, N. Gildemeister, S. Grimme, D. Fazzi, A. Hansen,
     J. Chem. Phys., 2023, just accepted.
   
   for PTB refer to:
   * S. Grimme, M. Mueller, A. Hansen, J. Chem. Phys., 2023, 158, 124111.
     DOI: 10.1063/5.0137838
   
   with help from (in alphabetical order)
   P. Atkinson, C. Bannwarth, F. Bohle, G. Brandenburg, E. Caldeweyher
   M. Checinski, S. Dohm, S. Ehlert, S. Ehrlich, I. Gerasimov, C. Hölzer
   A. Katbashev, J. Kohn, J. Koopman, C. Lavigne, S. Lehtola, F. März, M. Müller,
   F. Musil, H. Neugebauer, J. Pisarek, C. Plett, P. Pracht, F. Pultar,
   J. Seibert, P. Shushkov, S. Spicher, M. Stahn, M. Steiner, T. Strunk,
   J. Stückrath, T. Rose, and J. Unsleber
   
 * started run on 2025/04/11 at 15:59:02.650     
   ID    Z sym.   atoms
    1    6 C      1-5, 8
    2    8 O      6, 7
    3    1 H      9-20

           -------------------------------------------------
          |                Calculation Setup                |
           -------------------------------------------------

          program call               : /srv/scratch/z5358697/.xtb/bin/xtb solv.coord --gfn2 --sp --chrg 0 --norestart --parallel 1 --alpb water reference -I xtb_sp-xcontrol-inp
          hostname                   : k068
          coordinate file            : solv.coord
          omp threads                :                     1


           -------------------------------------------------
          |                 G F N 2 - x T B                 |
           -------------------------------------------------

        Reference                      10.1021/acs.jctc.8b01176
      * Hamiltonian:
        H0-scaling (s, p, d)           1.850000    2.230000    2.230000
        zeta-weighting                 0.500000
      * Dispersion:
        s8                             2.700000
        a1                             0.520000
        a2                             5.000000
        s9                             5.000000
      * Repulsion:
        kExp                           1.500000    1.000000
        rExp                           1.000000
      * Coulomb:
        alpha                          2.000000
        third order                    shell-resolved
        anisotropic                    true
        a3                             3.000000
        a5                             4.000000
        cn-shift                       1.200000
        cn-exp                         4.000000
        max-rad                        5.000000

      * Solvation model:               ALPB
        Solvent                        water
        Parameter file                 internal GFN2-xTB/ALPB
        Dielectric constant                8.0200E+01
        Reference state                gsolv=reference [X=1]
        Free energy shift                  2.8945E-03 Eh       1.8164E+00 kcal/mol
        Temperature                        2.9815E+02 K
        Density                            1.0000E+00 kg/L
        Solvent mass                       1.8000E+01 g/mol
        Interaction kernel             P16
        Born radius scaling (c1)           1.4744E+00
        Born radii integrator          GBOBC
        Born offset                        0.0000E+00 a0       0.0000E+00 AA
        H-bond correction              true
        Ion screening                  false
        Surface tension                    1.0000E-05 Eh       1.5569E+01 dyn/cm
        Grid points                               974 per atom

          ...................................................
          :                      SETUP                      :
          :.................................................:
          :  # basis functions                  44          :
          :  # atomic orbitals                  44          :
          :  # shells                           28          :
          :  # electrons                        48          :
          :  max. iterations                   250          :
          :  Hamiltonian                  GFN2-xTB          :
          :  restarted?                      false          :
          :  GBSA solvation                   true          :
          :  PC potential                    false          :
          :  electronic temp.          300.0000000     K    :
          :  accuracy                    1.0000000          :
          :  -> integral cutoff          0.2500000E+02      :
          :  -> integral neglect         0.1000000E-07      :
          :  -> SCF convergence          0.1000000E-05 Eh   :
          :  -> wf. convergence          0.1000000E-03 e    :
          :  Broyden damping             0.4000000          :
          :  net charge                          0          :
          :  unpaired electrons                  0          :
          ...................................................

 iter      E             dE          RMSdq      gap      omega  full diag
   1    -27.3692978 -0.273693E+02  0.404E+00    5.75       0.0  T
   2    -27.4284689 -0.591711E-01  0.204E+00    4.94       1.0  T
   3    -27.4300008 -0.153185E-02  0.100E+00    5.24       1.0  T
   4    -27.4314072 -0.140647E-02  0.160E-01    5.00       1.0  T
   5    -27.4316116 -0.204393E-03  0.674E-02    5.05       1.0  T
   6    -27.4316132 -0.158320E-05  0.179E-02    5.04       1.3  T
   7    -27.4316139 -0.692642E-06  0.366E-03    5.04       6.1  T
   8    -27.4316139 -0.185090E-07  0.200E-03    5.04      11.2  T
   9    -27.4316139 -0.482417E-08  0.295E-04    5.04      75.9  T
  10    -27.4316139 -0.249177E-09  0.142E-04    5.04     157.4  T

   *** convergence criteria satisfied after 10 iterations ***

         #    Occupation            Energy/Eh            Energy/eV
      -------------------------------------------------------------
         1        2.0000           -0.7511273             -20.4392
       ...           ...                  ...                  ...
        18        2.0000           -0.4719247             -12.8417
        19        2.0000           -0.4562962             -12.4165
        20        2.0000           -0.4492147             -12.2238
        21        2.0000           -0.4407545             -11.9935
        22        2.0000           -0.4297134             -11.6931
        23        2.0000           -0.4268925             -11.6163
        24        2.0000           -0.4222914             -11.4911 (HOMO)
        25                         -0.2369996              -6.4491 (LUMO)
        26                         -0.0038680              -0.1053
        27                          0.0950436               2.5863
        28                          0.1059779               2.8838
        29                          0.1205972               3.2816
       ...                                ...                  ...
        44                          0.6183976              16.8275
      -------------------------------------------------------------
                  HL-Gap            0.1852918 Eh            5.0420 eV
             Fermi-level           -0.3296455 Eh           -8.9701 eV

 SCC (total)                   0 d,  0 h,  0 min,  0.018 sec
 SCC setup                      ...        0 min,  0.001 sec (  6.888%)
 Dispersion                     ...        0 min,  0.000 sec (  0.630%)
 classical contributions        ...        0 min,  0.000 sec (  0.129%)
 integral evaluation            ...        0 min,  0.002 sec (  8.496%)
 iterations                     ...        0 min,  0.010 sec ( 56.433%)
 molecular gradient             ...        0 min,  0.005 sec ( 26.482%)
 printout                       ...        0 min,  0.000 sec (  0.858%)

         :::::::::::::::::::::::::::::::::::::::::::::::::::::
         ::                     SUMMARY                     ::
         :::::::::::::::::::::::::::::::::::::::::::::::::::::
         :: total energy             -27.116395938555 Eh    ::
         :: total w/o Gsasa/hb       -27.118383372417 Eh    ::
         :: gradient norm              0.000156809133 Eh/a0 ::
         :: HOMO-LUMO gap              5.042047439850 eV    ::
         ::.................................................::
         :: SCC energy               -27.431641921690 Eh    ::
         :: -> isotropic ES            0.058118170010 Eh    ::
         :: -> anisotropic ES          0.001277653755 Eh    ::
         :: -> anisotropic XC          0.008314092353 Eh    ::
         :: -> dispersion             -0.011392697331 Eh    ::
         :: -> Gsolv                  -0.006963731057 Eh    ::
         ::    -> Gelec               -0.008951164919 Eh    ::
         ::    -> Gsasa                0.001432795426 Eh    ::
         ::    -> Ghb                 -0.002339910724 Eh    ::
         ::    -> Gshift               0.002894549160 Eh    ::
         :: repulsion energy           0.315245983136 Eh    ::
         :: add. restraining           0.000000000000 Eh    ::
         :: total charge               0.000000000000 e     ::
         :::::::::::::::::::::::::::::::::::::::::::::::::::::

           -------------------------------------------------
          |                Property Printout                |
           -------------------------------------------------

    * Orbital Energies and Occupations

         #    Occupation            Energy/Eh            Energy/eV
      -------------------------------------------------------------
         1        2.0000           -0.7511273             -20.4392
       ...           ...                  ...                  ...
        12        2.0000           -0.5251315             -14.2896
        13        2.0000           -0.5127385             -13.9523
        14        2.0000           -0.5069345             -13.7944
        15        2.0000           -0.4968381             -13.5197
        16        2.0000           -0.4801840             -13.0665
        17        2.0000           -0.4749484             -12.9240
        18        2.0000           -0.4719247             -12.8417
        19        2.0000           -0.4562962             -12.4165
        20        2.0000           -0.4492147             -12.2238
        21        2.0000           -0.4407545             -11.9935
        22        2.0000           -0.4297134             -11.6931
        23        2.0000           -0.4268925             -11.6163
        24        2.0000           -0.4222914             -11.4911 (HOMO)
        25                         -0.2369996              -6.4491 (LUMO)
        26                         -0.0038680              -0.1053
        27                          0.0950436               2.5863
        28                          0.1059779               2.8838
        29                          0.1205972               3.2816
        30                          0.1403700               3.8197
        31                          0.1408506               3.8327
        32                          0.1449879               3.9453
        33                          0.1456093               3.9622
        34                          0.1743154               4.7434
        35                          0.1875537               5.1036
       ...                                ...                  ...
        44                          0.6183976              16.8275
      -------------------------------------------------------------
                  HL-Gap            0.1852918 Eh            5.0420 eV
             Fermi-level           -0.3296455 Eh           -8.9701 eV

     #   Z          covCN         q      C6AA      α(0)
     1   6 C        3.751    -0.115    22.758     6.803
     2   6 C        3.800    -0.062    21.684     6.630
     3   6 C        3.803    -0.058    21.611     6.618
     4   6 C        3.804    -0.100    22.400     6.738
     5   6 C        2.711     0.364    20.826     7.470
     6   8 O        0.856    -0.486    23.481     6.497
     7   8 O        1.704    -0.272    18.505     5.808
     8   6 C        3.643     0.005    20.851     6.564
     9   1 H        0.925     0.042     2.417     2.431
    10   1 H        0.925     0.040     2.447     2.446
    11   1 H        0.925     0.039     2.460     2.453
    12   1 H        0.924     0.042     2.423     2.434
    13   1 H        0.924     0.041     2.433     2.439
    14   1 H        0.924     0.049     2.338     2.391
    15   1 H        0.924     0.038     2.480     2.463
    16   1 H        0.925     0.080     1.975     2.198
    17   1 H        0.924     0.093     1.853     2.129
    18   1 H        0.924     0.076     2.016     2.220
    19   1 H        0.925     0.087     1.913     2.163
    20   1 H        0.925     0.096     1.823     2.112

 Mol. C6AA /au·bohr⁶  :       3000.276677
 Mol. C8AA /au·bohr⁸  :      63882.557597
 Mol. α(0) /au        :         81.006776


Wiberg/Mayer (AO) data.
largest (>0.10) Wiberg bond orders for each atom

 ---------------------------------------------------------------------------
     #   Z sym  total        # sym  WBO       # sym  WBO       # sym  WBO
 ---------------------------------------------------------------------------
     1   6 C    3.996 --     2 C    1.020    11 H    0.987     9 H    0.986
                            10 H    0.985
     2   6 C    3.996 --     1 C    1.020     3 C    1.007    12 H    0.977
                            13 H    0.977
     3   6 C    3.993 --     2 C    1.007     4 C    0.999    15 H    0.978
                            14 H    0.975
     4   6 C    3.989 --     3 C    0.999     5 C    0.982    16 H    0.965
                            17 H    0.935
     5   6 C    3.904 --     6 O    1.693     7 O    1.161     4 C    0.982
     6   8 O    1.978 --     5 C    1.693     7 O    0.170
     7   8 O    2.313 --     5 C    1.161     8 C    0.937     6 O    0.170
     8   6 C    3.901 --    18 H    0.977    20 H    0.975    19 H    0.973
                             7 O    0.937
     9   1 H    0.998 --     1 C    0.986
    10   1 H    0.998 --     1 C    0.985
    11   1 H    0.998 --     1 C    0.987
    12   1 H    0.998 --     2 C    0.977
    13   1 H    0.998 --     2 C    0.977
    14   1 H    0.998 --     3 C    0.975
    15   1 H    0.999 --     3 C    0.978
    16   1 H    0.994 --     4 C    0.965
    17   1 H    0.991 --     4 C    0.935
    18   1 H    0.994 --     8 C    0.977
    19   1 H    0.992 --     8 C    0.973
    20   1 H    0.991 --     8 C    0.975
 ---------------------------------------------------------------------------

Topologies differ in total number of bonds
Writing topology from bond orders to xtbtopo.mol

molecular dipole:
                 x           y           z       tot (Debye)
 q only:        0.011      -0.593       0.884
   full:        0.059      -0.600       0.910       2.774
molecular quadrupole (traceless):
                xx          xy          yy          xz          yz          zz
 q only:       10.095      -1.751      -4.591       2.806       2.793      -5.504
  q+dip:        7.676      -2.063      -2.787       3.033       3.560      -4.890
   full:        8.377      -1.959      -3.144       2.906       4.126      -5.233


           -------------------------------------------------
          | TOTAL ENERGY              -27.116395938555 Eh   |
          | GRADIENT NORM               0.000156809133 Eh/α |
          | HOMO-LUMO GAP               5.042047439850 eV   |
           -------------------------------------------------

------------------------------------------------------------------------
 * finished run on 2025/04/11 at 15:59:02.702     
------------------------------------------------------------------------
 total:
 * wall-time:     0 d,  0 h,  0 min,  0.051 sec
 *  cpu-time:     0 d,  0 h,  0 min,  0.023 sec
 * ratio c/w:     0.448 speedup
 SCF:
 * wall-time:     0 d,  0 h,  0 min,  0.019 sec
 *  cpu-time:     0 d,  0 h,  0 min,  0.015 sec
 * ratio c/w:     0.793 speedup

