20
 energy: -386.243443932667 gnorm: 0.000482701386 xtb: 6.7.1 (edcfbbe)
C           -2.41566166093058       -0.73606786998386        1.07911311414652
C           -2.11110182685068       -0.78246097563296       -0.41448460737080
C           -1.42621291893108        0.50037391607618       -0.91657233784351
C           -0.15001286161934        0.78198278985968       -0.17550747713347
O            0.03252422499479        1.72705142761738        0.57670086880630
O            0.78758185734900       -0.15060389682017       -0.42033103322755
C            2.06565088203803        0.00985594991291        0.27395386320160
C            2.96293031594800       -1.11224313377378       -0.18119821982084
H           -3.03528459157968        0.13262027291578        1.32698281915815
H           -2.95147413967759       -1.63550970812028        1.39704865388998
H           -1.49569906824335       -0.67146080913221        1.67182630052505
H           -3.03884200481479       -0.90650465206708       -0.98275420476854
H           -1.47776552324110       -1.64596318259643       -0.64364085506495
H           -2.08418087167905        1.36137672484923       -0.77586128626362
H           -1.19504747720207        0.40523121780961       -1.98302720210155
H            2.47489775151210        0.99137196011693        0.01767505553364
H            1.87697762054876       -0.02596289194426        1.35117359904468
H            2.53627976111258       -2.08673354666467        0.07276652750526
H            3.13136660153294       -1.06762190439349       -1.26094555597662
H            3.93040164888977       -1.01968343049792        0.32087049456718
20
 energy: -386.243445827181 gnorm: 0.000217964838 xtb: 6.7.1 (edcfbbe)
C           -2.41460180902867       -0.73671532441249        1.07900423264848
C           -2.11022919352669       -0.78255233415719       -0.41474798602968
C           -1.42676541674754        0.50122538937315       -0.91638642114394
C           -0.15044508116219        0.78271576976743       -0.17548253496613
O            0.03251299379448        1.72821624711127        0.57632271606790
O            0.78721582862550       -0.14963650657782       -0.42123105808269
C            2.06542755519938        0.01032918817885        0.27324880114455
C            2.96196651855067       -1.11298213929241       -0.18041899920260
H           -3.03581523539258        0.13097438356267        1.32708796724785
H           -2.94886792596739       -1.63715825665516        1.39687945475711
H           -1.49470342611195       -0.67050143100468        1.67189669023855
H           -3.03795845828651       -0.90720021877485       -0.98301410731653
H           -1.47621763553232       -1.64556438965406       -0.64418733885813
H           -2.08506717286886        1.36190527990821       -0.77493251712079
H           -1.19596294432537        0.40677035185595       -1.98297018407019
H            2.47598791846664        0.99123454598229        0.01639500106929
H            1.87665676935333       -0.02442608198277        1.35054947963115
H            2.53368603583146       -2.08681427510435        0.07366622431011
H            3.13112680673595       -1.06906427400867       -1.26014346273578
H            3.92938239459883       -1.02170788884109        0.32225175590883
20
 energy: -386.243445827181 gnorm: 0.000217964838 xtb: 6.7.1 (edcfbbe)
C           -2.41460180902867       -0.73671532441249        1.07900423264848
C           -2.11022919352669       -0.78255233415719       -0.41474798602968
C           -1.42676541674754        0.50122538937315       -0.91638642114394
C           -0.15044508116219        0.78271576976743       -0.17548253496613
O            0.03251299379448        1.72821624711127        0.57632271606790
O            0.78721582862550       -0.14963650657782       -0.42123105808269
C            2.06542755519938        0.01032918817885        0.27324880114455
C            2.96196651855067       -1.11298213929241       -0.18041899920260
H           -3.03581523539258        0.13097438356267        1.32708796724785
H           -2.94886792596739       -1.63715825665516        1.39687945475711
H           -1.49470342611195       -0.67050143100468        1.67189669023855
H           -3.03795845828651       -0.90720021877485       -0.98301410731653
H           -1.47621763553232       -1.64556438965406       -0.64418733885813
H           -2.08506717286886        1.36190527990821       -0.77493251712079
H           -1.19596294432537        0.40677035185595       -1.98297018407019
H            2.47598791846664        0.99123454598229        0.01639500106929
H            1.87665676935333       -0.02442608198277        1.35054947963115
H            2.53368603583146       -2.08681427510435        0.07366622431011
H            3.13112680673595       -1.06906427400867       -1.26014346273578
H            3.92938239459883       -1.02170788884109        0.32225175590883
