
                                 *****************
                                 * O   R   C   A *
                                 *****************

                                            #,                                       
                                            ###                                      
                                            ####                                     
                                            #####                                    
                                            ######                                   
                                           ########,                                 
                                     ,,################,,,,,                         
                               ,,#################################,,                 
                          ,,##########################################,,             
                       ,#########################################, ''#####,          
                    ,#############################################,,   '####,        
                  ,##################################################,,,,####,       
                ,###########''''           ''''###############################       
              ,#####''   ,,,,##########,,,,          '''####'''          '####       
            ,##' ,,,,###########################,,,                        '##       
           ' ,,###''''                  '''############,,,                           
         ,,##''                                '''############,,,,        ,,,,,,###''
      ,#''                                            '''#######################'''  
     '                                                          ''''####''''         
             ,#######,   #######,   ,#######,      ##                                
            ,#'     '#,  ##    ##  ,#'     '#,    #''#        ,####,   ,####,        
            ##       ##  ##   ,#'  ##            #'  '#       #'       #'  '#        
            ##       ##  #######   ##           ,######,      #####,   #    #        
            '#,     ,#'  ##    ##  '#,     ,#' ,#      #,     #,   #   #,  ,#        
             '#######'   ##     ##  '#######'  #'      '#     '####' # '####'        



                #########################################################
                #                        -***-                          #
                #          Department of theory and spectroscopy        #
                #                                                       #
                #                      Frank Neese                      #
                #                                                       #
                #     Directorship, Architecture, Infrastructure        #
                #                    SHARK, DRIVERS                     #
                #        Core code/Algorithms in most modules           #
                #                                                       #
                #        Max Planck Institute fuer Kohlenforschung      #
                #                Kaiser Wilhelm Platz 1                 #
                #                 D-45470 Muelheim/Ruhr                 #
                #                      Germany                          #
                #                                                       #
                #                  All rights reserved                  #
                #                        -***-                          #
                #########################################################


                         Program Version 6.0.0  -   RELEASE  -


 With contributions from (in alphabetic order):
   Daniel Aravena         : Magnetic Suceptibility
   Michael Atanasov       : Ab Initio Ligand Field Theory (pilot matlab implementation)
   Alexander A. Auer      : GIAO ZORA, VPT2 properties, NMR spectrum
   Ute Becker             : All parallelization in ORCA, NUMFREQ, NUMCALC
   Giovanni Bistoni       : ED, misc. LED, open-shell LED, HFLD
   Martin Brehm           : Molecular dynamics
   Dmytro Bykov           : pre 5.0 version of the SCF Hessian
   Marcos Casanova-Páez   : Triplet and SCS-CIS(D). UHF-(DLPNO)-IP/EA/STEOM-CCSD. UHF-CVS-IP/STEOM-CCSD
   Vijay G. Chilkuri      : MRCI spin determinant printing, contributions to CSF-ICE
   Pauline Colinet        : FMM embedding
   Dipayan Datta          : RHF DLPNO-CCSD density
   Achintya Kumar Dutta   : EOM-CC, STEOM-CC
   Nicolas Foglia         : Exact transition moments, OPA infrastructure, MCD improvements
   Dmitry Ganyushin       : Spin-Orbit,Spin-Spin,Magnetic field MRCI
   Miquel Garcia          : C-PCM and meta-GGA Hessian, CCSD/C-PCM, Gaussian charge scheme
   Tiago L. C. Gouveia    : GS-ROHF, GS-ROCIS
   Yang Guo               : DLPNO-NEVPT2, F12-NEVPT2, CIM, IAO-localization
   Andreas Hansen         : Spin unrestricted coupled pair/coupled cluster methods
   Ingolf Harden          : AUTO-CI MPn and infrastructure 
   Benjamin Helmich-Paris : MC-RPA, TRAH-(SCF,CASSCF), AVAS, COSX integrals, SCF dyn. polar.
   Lee Huntington         : MR-EOM, pCC
   Robert Izsak           : Overlap fitted RIJCOSX, COSX-SCS-MP3, EOM
   Riya Kayal             : Wick's Theorem for AUTO-CI, AUTO-CI UHF-CCSDT
   Emily Kempfer          : AUTO-CI, RHF CISDT and CCSDT
   Christian Kollmar      : KDIIS, OOCD, Brueckner-CCSD(T), CCSD density, CASPT2, CASPT2-K, improved NEVPT2
   Axel Koslowski         : Symmetry handling
   Simone Kossmann        : Meta GGA functionals, TD-DFT gradient, OOMP2, (MP2 Hessian; deprecated post 5.0)
   Lucas Lang             : DCDCAS
   Marvin Lechner         : AUTO-CI (C++ implementation), FIC-MRCC
   Spencer Leger          : CASSCF response
   Dagmar Lenk            : GEPOL surface, SMD, ORCA-2-JSON
   Dimitrios Liakos       : Extrapolation schemes; Compound Job, initial MDCI parallelization
   Dimitrios Manganas     : Further ROCIS development; embedding schemes. LFT, Crystal Embedding
   Dimitrios Pantazis     : SARC Basis sets
   Anastasios Papadopoulos: AUTO-CI, single reference methods and gradients
   Taras Petrenko         : pre 6.0 DFT Hessian and TD-DFT gradient, (ASA, deprecated), ECA, 1-Electron XAS/XES, NRVS
   Peter Pinski           : DLPNO-MP2, DLPNO-MP2 Gradient
   Christoph Reimann      : Effective Core Potentials
   Marius Retegan         : Local ZFS, SOC
   Christoph Riplinger    : Optimizer, TS searches, QM/MM, DLPNO-CCSD(T), (RO)-DLPNO pert. Triples
   Michael Roemelt        : Original ROCIS implementation
   Masaaki Saitow         : Open-shell DLPNO-CCSD energy and density
   Barbara Sandhoefer     : DKH picture change effects
   Kantharuban Sivalingam : CASSCF convergence/infrastructure, NEVPT2 and variants, FIC-MRCI
   Bernardo de Souza      : ESD, SOC TD-DFT
   Georgi Stoychev        : AutoAux, RI-MP2 NMR, DLPNO-MP2 response, X2C
   Van Anh Tran           : RI-MP2 g-tensors
   Willem Van den Heuvel  : Paramagnetic NMR
   Zikuan Wang            : NOTCH, Electric field optimization 
   Frank Wennmohs         : Technical directorship and infrastructure
   Hang Xu                : AUTO-CI-Response properties 


 We gratefully acknowledge several colleagues who have allowed us to
 interface, adapt or use parts of their codes:
   Stefan Grimme, W. Hujo, H. Kruse, P. Pracht,  : VdW corrections, initial TS optimization,
                  C. Bannwarth, S. Ehlert,         DFT functionals, gCP, sTDA/sTD-DF
                  L. Wittmann, M. Mueller
   Ed Valeev, F. Pavosevic, A. Kumar             : LibInt (2-el integral package), F12 methods
   Garnet Chan, S. Sharma, J. Yang, R. Olivares  : DMRG
   Ulf Ekstrom                                   : XCFun DFT Library
   Mihaly Kallay                                 : mrcc  (arbitrary order and MRCC methods)
   Frank Weinhold                                : gennbo (NPA and NBO analysis)
   Simon Mueller                                 : openCOSMO-RS
   Christopher J. Cramer and Donald G. Truhlar   : smd solvation model
   Lars Goerigk                                  : TD-DFT with DH, B97 family of functionals
   V. Asgeirsson, H. Jonsson                     : NEB implementation
   FAccTs GmbH                                   : IRC, NEB, NEB-TS, DLPNO-Multilevel, CI-OPT
                                                   MM, QMMM, 2- and 3-layer-ONIOM, Crystal-QMMM,
                                                   LR-CPCM, SF, NACMEs, symmetry and pop. for TD-DFT,
                                                   nearIR, NL-DFT gradient (VV10), updates on ESD,
                                                   ML-optimized integration grids, MBIS, APM,
                                                   GOAT, DOCKER, SOLVATOR, interface openCOSMO-RS
   S Lehtola, MJT Oliveira, MAL Marques          : LibXC Library
   Liviu Ungur et al                             : ANISO software


 Your calculation uses the libint2 library for the computation of 2-el integrals
 For citations please refer to: http://libint.valeyev.net

 Your ORCA version has been built with support for libXC version: 6.2.2
 For citations please refer to: https://libxc.gitlab.io

 This ORCA versions uses:
   CBLAS   interface :  Fast vector & matrix operations
   LAPACKE interface :  Fast linear algebra routines
   SCALAPACK package :  Parallel linear algebra routines
   Shared memory     :  Shared parallel matrices
   BLAS/LAPACK       :  OpenBLAS 0.3.27  USE64BITINT DYNAMIC_ARCH NO_AFFINITY SkylakeX SINGLE_THREADED
        Core in use  :  SkylakeX
   Copyright (c) 2011-2014, The OpenBLAS Project


Your calculation utilizes the geometrical counterpoise correction gCP
Please cite in your paper:
H.Kruse, S. Grimme J.Chem.Phys., 136, (2012), 154101 
   

Your calculation utilizes the atom-pairwise dispersion correction
based on EEQ partial charges (D4)


================================================================================

----- Orbital basis set information -----
Your calculation utilizes the basis: def2-SV(P)
   F. Weigend and R. Ahlrichs, Phys. Chem. Chem. Phys. 7, 3297 (2005).

----- AuxJ basis set information -----
Your calculation utilizes the auxiliary basis: def2/J
   F. Weigend, Phys. Chem. Chem. Phys. 8, 1057 (2006).

================================================================================
                                        WARNINGS
                       Please study these warnings very carefully!
================================================================================


================================================================================
                                       INPUT FILE
================================================================================
NAME = sp.inp
|  1> ! pbe def2-sv(p) def2/J RI DEFGRID1 loosescf d4 GCP(DFT/SV(P)) printgap
|  2> %output
|  3>     printlevel normal
|  4> end
|  5> * xyz 0 1
|  6> C -2.6273307883 -0.9697151696 -0.6190304138
|  7> C -2.0884529985 -0.5308998338 0.7370991525
|  8> C -1.3426565384 0.8071565599 0.6473457865
|  9> C -0.1023063413 0.676315298 -0.1987560121
| 10> O 0.0755752068 1.2330517575 -1.2638128983
| 11> O 0.7861981066 -0.1297435632 0.3629129713
| 12> C 2.0318511835 -0.3679334211 -0.3125469676
| 13> C 3.097657568 -0.6538592674 0.7292988307
| 14> H -3.328832947 -0.2346287175 -1.0064803627
| 15> H -1.8182035482 -1.073734981 -1.3398913312
| 16> H -3.1385701131 -1.9248799538 -0.5337039867
| 17> H -1.4078128538 -1.2880359514 1.1290054634
| 18> H -2.9163783973 -0.419343352 1.4378796001
| 19> H -1.0368071821 1.117958823 1.6465345108
| 20> H -1.9798361311 1.5712618872 0.2026252796
| 21> H 1.8915552803 -1.2227935142 -0.9816167301
| 22> H 2.2741106745 0.5127187768 -0.9162869035
| 23> H 3.2211037833 0.2032554225 1.3851867057
| 24> H 2.8097872237 -1.5137101476 1.3267744313
| 25> H 4.0392131594 -0.8611279448 0.231693993
| 26> *
| 27> 
| 28>                          ****END OF INPUT****
================================================================================

                       ****************************
                       * Single Point Calculation *
                       ****************************

---------------------------------
CARTESIAN COORDINATES (ANGSTROEM)
---------------------------------
  C     -2.627331   -0.969715   -0.619030
  C     -2.088453   -0.530900    0.737099
  C     -1.342657    0.807157    0.647346
  C     -0.102306    0.676315   -0.198756
  O      0.075575    1.233052   -1.263813
  O      0.786198   -0.129744    0.362913
  C      2.031851   -0.367933   -0.312547
  C      3.097658   -0.653859    0.729299
  H     -3.328833   -0.234629   -1.006480
  H     -1.818204   -1.073735   -1.339891
  H     -3.138570   -1.924880   -0.533704
  H     -1.407813   -1.288036    1.129005
  H     -2.916378   -0.419343    1.437880
  H     -1.036807    1.117959    1.646535
  H     -1.979836    1.571262    0.202625
  H      1.891555   -1.222794   -0.981617
  H      2.274111    0.512719   -0.916287
  H      3.221104    0.203255    1.385187
  H      2.809787   -1.513710    1.326774
  H      4.039213   -0.861128    0.231694

----------------------------
CARTESIAN COORDINATES (A.U.)
----------------------------
  NO LB      ZA    FRAG     MASS         X           Y           Z
   0 C     6.0000    0    12.011   -4.964936   -1.832496   -1.169798
   1 C     6.0000    0    12.011   -3.946604   -1.003255    1.392916
   2 C     6.0000    0    12.011   -2.537253    1.525305    1.223306
   3 C     6.0000    0    12.011   -0.193331    1.278051   -0.375594
   4 O     8.0000    0    15.999    0.142816    2.330130   -2.388260
   5 O     8.0000    0    15.999    1.485699   -0.245180    0.685806
   6 C     6.0000    0    12.011    3.839642   -0.695293   -0.590628
   7 C     6.0000    0    12.011    5.853724   -1.235615    1.378175
   8 H     1.0000    0     1.008   -6.290583   -0.443384   -1.901972
   9 H     1.0000    0     1.008   -3.435907   -2.029065   -2.532028
  10 H     1.0000    0     1.008   -5.931038   -3.637496   -1.008554
  11 H     1.0000    0     1.008   -2.660381   -2.434035    2.133511
  12 H     1.0000    0     1.008   -5.511156   -0.792444    2.717199
  13 H     1.0000    0     1.008   -1.959282    2.112636    3.111499
  14 H     1.0000    0     1.008   -3.741348    2.969255    0.382906
  15 H     1.0000    0     1.008    3.574521   -2.310745   -1.854987
  16 H     1.0000    0     1.008    4.297446    0.968898   -1.731531
  17 H     1.0000    0     1.008    6.087004    0.384097    2.617624
  18 H     1.0000    0     1.008    5.309728   -2.860498    2.507240
  19 H     1.0000    0     1.008    7.633007   -1.627296    0.437838

--------------------------------
INTERNAL COORDINATES (ANGSTROEM)
--------------------------------
 C      0   0   0     0.000000000000     0.00000000     0.00000000
 C      1   0   0     1.523822683866     0.00000000     0.00000000
 C      2   1   0     1.534491101091   111.77279530     0.00000000
 C      3   2   1     1.507141765348   110.92360066   294.96039099
 O      4   3   2     1.214884151404   124.95103729   114.49720446
 O      4   3   2     1.324629415561   111.51877576   294.50461199
 C      6   4   3     1.436882780694   118.88380975   179.98255428
 C      7   6   4     1.517609800396   108.50225298   150.61603533
 H      1   2   3     1.087462566539   110.52068629   299.38632213
 H      1   2   3     1.088644787830   110.73048584    58.95281229
 H      1   2   3     1.086731802866   110.46247743   179.20103676
 H      2   1   3     1.090924682861   109.90644894   239.03509896
 H      2   1   3     1.090412101156   109.44511878   120.23016580
 H      3   2   1     1.090192635393   109.34998670   176.00007687
 H      3   2   1     1.089784893371   110.55433918    55.03956243
 H      7   6   4     1.094588080659   107.79972552   271.20766259
 H      7   6   4     1.094869793558   108.52409880    28.68868508
 H      8   7   6     1.086311863272   110.22128707   298.58714960
 H      8   7   6     1.085905136106   109.92138040    58.53850570
 H      8   7   6     1.084941385896   109.30568299   178.54916583

---------------------------
INTERNAL COORDINATES (A.U.)
---------------------------
 C      0   0   0     0.000000000000     0.00000000     0.00000000
 C      1   0   0     2.879607549164     0.00000000     0.00000000
 C      2   1   0     2.899767936001   111.77279530     0.00000000
 C      3   2   1     2.848085181502   110.92360066   294.96039099
 O      4   3   2     2.295798330595   124.95103729   114.49720446
 O      4   3   2     2.503186824347   111.51877576   294.50461199
 C      6   4   3     2.715314942059   118.88380975   179.98255428
 C      7   6   4     2.867866900904   108.50225298   150.61603533
 H      1   2   3     2.055006431650   110.52068629   299.38632213
 H      1   2   3     2.057240506120   110.73048584    58.95281229
 H      1   2   3     2.053625488438   110.46247743   179.20103676
 H      2   1   3     2.061548883342   109.90644894   239.03509896
 H      2   1   3     2.060580244299   109.44511878   120.23016580
 H      3   2   1     2.060165514111   109.34998670   176.00007687
 H      3   2   1     2.059394993355   110.55433918    55.03956243
 H      7   6   4     2.068471701901   107.79972552   271.20766259
 H      7   6   4     2.069004062128   108.52409880    28.68868508
 H      8   7   6     2.052831917614   110.22128707   298.58714960
 H      8   7   6     2.052063314658   109.92138040    58.53850570
 H      8   7   6     2.050242090701   109.30568299   178.54916583

---------------------
BASIS SET INFORMATION
---------------------
There are 3 groups of distinct atoms

 Group   1 Type C   : 7s4p1d contracted to 3s2p1d pattern {511/31/1}
 Group   2 Type O   : 7s4p1d contracted to 3s2p1d pattern {511/31/1}
 Group   3 Type H   : 4s contracted to 2s pattern {31}

Atom   0C    basis set group =>   1
Atom   1C    basis set group =>   1
Atom   2C    basis set group =>   1
Atom   3C    basis set group =>   1
Atom   4O    basis set group =>   2
Atom   5O    basis set group =>   2
Atom   6C    basis set group =>   1
Atom   7C    basis set group =>   1
Atom   8H    basis set group =>   3
Atom   9H    basis set group =>   3
Atom  10H    basis set group =>   3
Atom  11H    basis set group =>   3
Atom  12H    basis set group =>   3
Atom  13H    basis set group =>   3
Atom  14H    basis set group =>   3
Atom  15H    basis set group =>   3
Atom  16H    basis set group =>   3
Atom  17H    basis set group =>   3
Atom  18H    basis set group =>   3
Atom  19H    basis set group =>   3
---------------------------------
AUXILIARY/J BASIS SET INFORMATION
---------------------------------
There are 3 groups of distinct atoms

 Group   1 Type C   : 12s5p4d2f1g contracted to 6s4p3d1f1g pattern {711111/2111/211/2/1}
 Group   2 Type O   : 12s5p4d2f1g contracted to 6s4p3d1f1g pattern {711111/2111/211/2/1}
 Group   3 Type H   : 5s2p1d contracted to 3s1p1d pattern {311/2/1}

Atom   0C    basis set group =>   1
Atom   1C    basis set group =>   1
Atom   2C    basis set group =>   1
Atom   3C    basis set group =>   1
Atom   4O    basis set group =>   2
Atom   5O    basis set group =>   2
Atom   6C    basis set group =>   1
Atom   7C    basis set group =>   1
Atom   8H    basis set group =>   3
Atom   9H    basis set group =>   3
Atom  10H    basis set group =>   3
Atom  11H    basis set group =>   3
Atom  12H    basis set group =>   3
Atom  13H    basis set group =>   3
Atom  14H    basis set group =>   3
Atom  15H    basis set group =>   3
Atom  16H    basis set group =>   3
Atom  17H    basis set group =>   3
Atom  18H    basis set group =>   3
Atom  19H    basis set group =>   3
------------------------------------------------------------------------------
                             ORCA STARTUP CALCULATIONS
                           -- RI-GTO INTEGRALS CHOSEN --
------------------------------------------------------------------------------
------------------------------------------------------------------------------
                   ___                                                        
                  /   \      - P O W E R E D   B Y -                         
                 /     \                                                     
                 |  |  |   _    _      __       _____    __    __             
                 |  |  |  | |  | |    /  \     |  _  \  |  |  /  |          
                  \  \/   | |  | |   /    \    | | | |  |  | /  /          
                 / \  \   | |__| |  /  /\  \   | |_| |  |  |/  /          
                |  |  |   |  __  | /  /__\  \  |    /   |      \           
                |  |  |   | |  | | |   __   |  |    \   |  |\   \          
                \     /   | |  | | |  |  |  |  | |\  \  |  | \   \       
                 \___/    |_|  |_| |__|  |__|  |_| \__\ |__|  \__/        
                                                                              
                      - O R C A' S   B I G   F R I E N D -                    
                                      &                                       
                       - I N T E G R A L  F E E D E R -                       
                                                                              
 v1 FN, 2020, v2 2021, v3 2022-2024                                           
------------------------------------------------------------------------------


----------------------
SHARK INTEGRAL PACKAGE
----------------------

Number of atoms                             ...     20
Number of basis functions                   ...    136
Number of shells                            ...     72
Maximum angular momentum                    ...      2
Integral batch strategy                     ... SHARK/LIBINT Hybrid
RI-J (if used) integral strategy            ... SPLIT-RIJ (Revised 2003 algorithm where possible)
Printlevel                                  ...      1
Contraction scheme used                     ... SEGMENTED contraction
Prescreening option                         ... SCHWARTZ
   Thresh                                   ... 1.000e-09
   Tcut                                     ... 1.000e-10
   Tpresel                                  ... 1.000e-10 
Coulomb Range Separation                    ... NOT USED
Exchange Range Separation                   ... NOT USED
Multipole approximations                    ... NOT USED
Finite Nucleus Model                        ... NOT USED
CABS basis                                  ... NOT available
Auxiliary Coulomb fitting basis             ... AVAILABLE
   # of basis functions in Aux-J            ...    524
   # of shells in Aux-J                     ...    180
   Maximum angular momentum in Aux-J        ...      4
Auxiliary J/K fitting basis                 ... NOT available
Auxiliary Correlation fitting basis         ... NOT available
Auxiliary 'external' fitting basis          ... NOT available

Checking pre-screening integrals            ... done (  0.0 sec) Dimension = 72
Check shell pair data                       ... done (  0.0 sec)
Shell pair information
Shell pair cut-off parameter TPreSel        ...   1.0e-10
Total number of shell pairs                 ...      2628
Shell pairs after pre-screening             ...      2433
Total number of primitive shell pairs       ...     10580
Primitive shell pairs kept                  ...      6757
          la=0 lb=0:   1069 shell pairs
          la=1 lb=0:    734 shell pairs
          la=1 lb=1:    135 shell pairs
          la=2 lb=0:    339 shell pairs
          la=2 lb=1:    124 shell pairs
          la=2 lb=2:     32 shell pairs

Calculating one electron integrals          ... done (  0.0 sec)
Calculating RI/J V-Matrix + Cholesky decomp.... done (  0.1 sec)
Calculating Nuclear repulsion               ... done (  0.0 sec) ENN=    394.473447125023 Eh

Diagonalization of the overlap matrix:
Smallest eigenvalue                        ... 2.117e-03
Time for diagonalization                   ...    0.002 sec
Threshold for overlap eigenvalues          ... 1.000e-07
Number of eigenvalues below threshold      ... 0
Time for construction of square roots      ...    0.015 sec
Total time needed                          ...    0.026 sec

-------------------
DFT GRID GENERATION
-------------------

General Integration Accuracy     IntAcc      ... 4.159
Radial Grid Type                 RadialGrid  ... OptM3 with GC (2021)
Angular Grid (max. ang.)         AngularGrid ... 3 (Lebedev-194)
Angular grid pruning method      GridPruning ... 4 (adaptive)
Weight generation scheme         WeightScheme... mBecke (2022)
Basis function cutoff            BFCut       ... 1.0000e-10
Integration weight cutoff        WCut        ... 1.0000e-14
Partially contracted basis set               ... off
Rotationally invariant grid construction     ... off
Angular grids for H and He will be reduced by one unit

Total number of grid points                  ...    43066
Total number of batches                      ...      683
Average number of points per batch           ...       63
Average number of grid points per atom       ...     2153
Initializing property integral containers    ... done (  0.0 sec)

SHARK setup successfully completed in   0.7 seconds

Maximum memory used throughout the entire STARTUP-calculation: 21.2 MB
-------------------------------------------------------------------------------
                                 ORCA GUESS
                   Start orbitals & Density for SCF / CASSCF
-------------------------------------------------------------------------------

------------
SCF SETTINGS
------------
Hamiltonian:
 Density Functional     Method          .... DFT(GTOs)
 Exchange Functional    Exchange        .... PBE
   PBE kappa parameter   XKappa         ....  0.804000
   PBE mue parameter    XMuePBE         ....  0.219520
 Correlation Functional Correlation     .... PBE
   PBE beta parameter  CBetaPBE         ....  0.066725
 LDA part of GGA corr.  LDAOpt          .... PW91-LDA
 Gradients option       PostSCFGGA      .... off
   NL short-range parameter             ....  6.400000
 RI-approximation to the Coulomb term is turned on
   Number of AuxJ basis functions       .... 524


General Settings:
 Integral files         IntName         .... sp
 Hartree-Fock type      HFTyp           .... RHF
 Total Charge           Charge          ....    0
 Multiplicity           Mult            ....    1
 Number of Electrons    NEL             ....   64
 Basis Dimension        Dim             ....  136
 Nuclear Repulsion      ENuc            ....    394.4734471250 Eh

Convergence Acceleration:
 AO-DIIS                CNVDIIS         .... on
   Start iteration      DIISMaxIt       ....    12
   Startup error        DIISStart       ....  0.200000
   # of expansion vecs  DIISMaxEq       ....     5
   Bias factor          DIISBfac        ....   1.050
   Max. coefficient     DIISMaxC        ....  10.000
 MO-DIIS                CNVKDIIS        .... off
 Trust-Rad. Augm. Hess. CNVTRAH         .... auto
   Auto Start mean grad. ratio tolernc. ....  1.125000
   Auto Start start iteration           ....    50
   Auto Start num. interpolation iter.  ....    10
   Max. Number of Micro iterations      ....    24
   Max. Number of Macro iterations      .... Maxiter - #DIIS iter
   Number of Davidson start vectors     ....     2
   Converg. threshold    (grad. norm)   ....   1.000e-04
   Grad. Scal. Fac. for Micro threshold ....   0.100
   Minimum threshold for Micro iter.    ....   1.000e-02
   NR start threshold (gradient norm)   ....   1.000e-04
   Initial trust radius                 ....   0.400
   Minimum AH scaling param. (alpha)    ....   1.000
   Maximum AH scaling param. (alpha)    .... 1000.000
   Quad. conv. algorithm                .... NR
   White noise on init. David. guess    .... on
   Maximum white noise                  ....   0.010
   Pseudo random numbers                .... off
   Inactive MOs                         .... canonical
   Orbital update algorithm             .... Taylor
   Preconditioner                       .... Diag
   Full preconditioner red. dimension   ....   250
 SOSCF                  CNVSOSCF        .... on
   Start iteration      SOSCFMaxIt      ....   150
   Startup grad/error   SOSCFStart      ....  0.003300
   Hessian update       SOSCFHessUp     .... L-BFGS
 Level Shifting         CNVShift        .... on
   Level shift para.    LevelShift      ....    0.2500
   Turn off err/grad.   ShiftErr        ....    0.0010
 Zerner damping         CNVZerner       .... off
 Static damping         CNVDamp         .... on
   Fraction old density DampFac         ....    0.7000
   Max. Damping (<1)    DampMax         ....    0.9800
   Min. Damping (>=0)   DampMin         ....    0.0000
   Turn off err/grad.   DampErr         ....    0.1000

SCF Procedure:
 Maximum # iterations   MaxIter         ....   125
 SCF integral mode      SCFMode         .... Direct
   Integral package                     .... SHARK and LIBINT hybrid scheme
 Reset frequency        DirectResetFreq ....    20
 Integral Threshold     Thresh          ....  1.000e-09 Eh
 Primitive CutOff       TCut            ....  1.000e-10 Eh

Convergence Tolerance:
 Convergence Check Mode ConvCheckMode   .... Total+1el-Energy
 Convergence forced     ConvForced      .... 0
 Energy Change          TolE            ....  1.000e-05 Eh
 1-El. energy change                    ....  1.000e-02 Eh
 Orbital Gradient       TolG            ....  1.000e-04
 Orbital Rotation angle TolX            ....  1.000e-04
 DIIS Error             TolErr          ....  5.000e-04

------------------------------
INITIAL GUESS: MODEL POTENTIAL
------------------------------
Loading Hartree-Fock densities                     ... done
Calculating cut-offs                               ... done
Initializing the effective Hamiltonian             ... done
Setting up the integral package (SHARK)            ... done
Starting the Coulomb interaction                   ... done (   0.2 sec)
Making the grid                                    ... done (   0.2 sec)
Mapping shells                                     ... done
Starting the XC term evaluation                    ... done (   0.2 sec)
  promolecular density results
     # of electrons  =     63.997361389
     EX              =    -50.543897260
     EC              =     -2.106270017
     EX+EC           =    -52.650167278
Transforming the Hamiltonian                       ... done (   0.0 sec)
Diagonalizing the Hamiltonian                      ... done (   0.0 sec)
Back transforming the eigenvectors                 ... done (   0.0 sec)
Now organizing SCF variables                       ... done
                      ------------------
                      INITIAL GUESS DONE (   0.6 sec)
                      ------------------
             **** ENERGY FILE WAS UPDATED (sp.en.tmp) ****
Finished Guess after   0.8 sec
Maximum memory used throughout the entire GUESS-calculation: 16.3 MB

-------------------------------------------------------------------------------------------
                                      ORCA LEAN-SCF
                              memory conserving SCF solver
-------------------------------------------------------------------------------------------

----------------------------------------D-I-I-S--------------------------------------------
Iteration    Energy (Eh)           Delta-E    RMSDP     MaxDP     DIISErr   Damp  Time(sec)
-------------------------------------------------------------------------------------------
               ***  Starting incremental Fock matrix formation  ***
    1    -385.2854343731697782     0.00e+00  4.98e-03  9.55e-02  2.44e-01  0.700   0.8
    2    -385.4099250924464286    -1.24e-01  3.12e-03  4.76e-02  7.47e-02  0.700   0.8
                               ***Turning on AO-DIIS***
    3    -385.4483279912986973    -3.84e-02  1.25e-03  1.38e-02  2.19e-02  0.700   0.8
    4    -385.4732396953443185    -2.49e-02  1.77e-03  2.19e-02  1.44e-02  0.000   0.8
    5    -385.5310948774890676    -5.79e-02  5.58e-04  6.61e-03  8.75e-03  0.000   0.8
                              *** Initializing SOSCF ***
---------------------------------------S-O-S-C-F--------------------------------------
Iteration    Energy (Eh)           Delta-E    RMSDP     MaxDP     MaxGrad    Time(sec)
--------------------------------------------------------------------------------------
    6    -385.5318244163349846    -7.30e-04  2.09e-04  2.41e-03  3.15e-03     0.8
               *** Restarting incremental Fock matrix formation ***
    7    -385.5318792592078125    -5.48e-05  1.58e-04  2.78e-03  6.80e-04     0.8
    8    -385.5318585179846878     2.07e-05  8.76e-05  2.04e-03  1.93e-03     0.7
    9    -385.5318859328789358    -2.74e-05  6.69e-05  1.13e-03  2.98e-04     0.8
   10    -385.5318819103307533     4.02e-06  3.96e-05  7.30e-04  3.32e-04     0.8
                 **** Energy Check signals convergence ****

               *****************************************************
               *                     SUCCESS                       *
               *           SCF CONVERGED AFTER  10 CYCLES          *
               *****************************************************

             **** ENERGY FILE WAS UPDATED (sp.en.tmp) ****

----------------
TOTAL SCF ENERGY
----------------

Total Energy       :       -385.53188191033075 Eh          -10490.85585 eV

Components:
Nuclear Repulsion  :        394.47344712502286 Eh           10734.16821 eV
Electronic Energy  :       -780.00532903535361 Eh          -21225.02406 eV
One Electron Energy:      -1305.33906477077471 Eh          -35520.08176 eV
Two Electron Energy:        525.33373573542110 Eh           14295.05770 eV

Virial components:
Potential Energy   :       -767.92872135864695 Eh          -20896.40286 eV
Kinetic Energy     :        382.39683944831626 Eh           10405.54701 eV
Virial Ratio       :          2.00819840055827

DFT components:
N(Alpha)           :       31.999726023415 electrons
N(Beta)            :       31.999726023415 electrons
N(Total)           :       63.999452046830 electrons
E(X)               :      -51.601115129618 Eh       
E(C)               :       -2.122977435123 Eh       
E(XC)              :      -53.724092564741 Eh       

---------------
SCF CONVERGENCE
---------------

  Last Energy change         ...   -4.0225e-06  Tolerance :   1.0000e-05
  Last MAX-Density change    ...    7.3004e-04  Tolerance :   1.0000e-03
  Last RMS-Density change    ...    3.9611e-05  Tolerance :   1.0000e-04
  Last DIIS Error            ...    3.1537e-03  Tolerance :   5.0000e-04
  Last Orbital Gradient      ...    3.3238e-04  Tolerance :   1.0000e-04
  Last Orbital Rotation      ...    3.0611e-04  Tolerance :   1.0000e-04


----------------
ORBITAL ENERGIES
----------------

  NO   OCC          E(Eh)            E(eV) 
   0   2.0000     -18.797444      -511.5044 
   1   2.0000     -18.728897      -509.6392 
   2   2.0000     -10.003612      -272.2121 
   3   2.0000      -9.946557      -270.6596 
   4   2.0000      -9.895769      -269.2776 
   5   2.0000      -9.893853      -269.2254 
   6   2.0000      -9.889799      -269.1151 
   7   2.0000      -9.877025      -268.7675 
   8   2.0000      -1.004082       -27.3225 
   9   2.0000      -0.905978       -24.6529 
  10   2.0000      -0.730640       -19.8817 
  11   2.0000      -0.698366       -19.0035 
  12   2.0000      -0.636395       -17.3172 
  13   2.0000      -0.582949       -15.8629 
  14   2.0000      -0.535095       -14.5607 
  15   2.0000      -0.506119       -13.7722 
  16   2.0000      -0.454401       -12.3649 
  17   2.0000      -0.428855       -11.6697 
  18   2.0000      -0.418252       -11.3812 
  19   2.0000      -0.402507       -10.9528 
  20   2.0000      -0.391323       -10.6484 
  21   2.0000      -0.367205        -9.9922 
  22   2.0000      -0.360469        -9.8089 
  23   2.0000      -0.354104        -9.6357 
  24   2.0000      -0.342022        -9.3069 
  25   2.0000      -0.324705        -8.8357 
  26   2.0000      -0.311554        -8.4778 
  27   2.0000      -0.299589        -8.1522 
  28   2.0000      -0.297463        -8.0944 
  29   2.0000      -0.292070        -7.9476 
  30   2.0000      -0.254530        -6.9261 
  31   2.0000      -0.212207        -5.7745 
  32   0.0000      -0.018841        -0.5127 
  33   0.0000       0.036987         1.0065 
  34   0.0000       0.051805         1.4097 
  35   0.0000       0.070990         1.9317 
  36   0.0000       0.081009         2.2044 
  37   0.0000       0.089087         2.4242 
  38   0.0000       0.094674         2.5762 
  39   0.0000       0.101564         2.7637 
  40   0.0000       0.104933         2.8554 
  41   0.0000       0.114720         3.1217 
  42   0.0000       0.130579         3.5532 
*Only the first 10 virtual orbitals were printed.

                    ********************************
                    * MULLIKEN POPULATION ANALYSIS *
                    ********************************

-----------------------
MULLIKEN ATOMIC CHARGES
-----------------------
   0 C :   -0.286787
   1 C :   -0.216435
   2 C :   -0.100308
   3 C :    0.081628
   4 O :   -0.205079
   5 O :   -0.245496
   6 C :   -0.026788
   7 C :   -0.280029
   8 H :    0.103172
   9 H :    0.119137
  10 H :    0.105725
  11 H :    0.101405
  12 H :    0.094534
  13 H :    0.104082
  14 H :    0.096643
  15 H :    0.101960
  16 H :    0.113773
  17 H :    0.114024
  18 H :    0.113559
  19 H :    0.111281
Sum of atomic charges:   -0.0000000

--------------------------------
MULLIKEN REDUCED ORBITAL CHARGES
--------------------------------
  0 C s       :     3.093544  s :     3.093544
      pz      :     1.031558  p :     3.164044
      px      :     1.072241
      py      :     1.060245
      dz2     :     0.005872  d :     0.029199
      dxz     :     0.008974
      dyz     :     0.003919
      dx2y2   :     0.003048
      dxy     :     0.007386

  1 C s       :     3.085607  s :     3.085607
      pz      :     1.056940  p :     3.093616
      px      :     1.032940
      py      :     1.003736
      dz2     :     0.005921  d :     0.037211
      dxz     :     0.010527
      dyz     :     0.006728
      dx2y2   :     0.005385
      dxy     :     0.008649

  2 C s       :     3.009964  s :     3.009964
      pz      :     1.016397  p :     3.057317
      px      :     0.997966
      py      :     1.042954
      dz2     :     0.005707  d :     0.033028
      dxz     :     0.007777
      dyz     :     0.005902
      dx2y2   :     0.006172
      dxy     :     0.007469

  3 C s       :     3.063906  s :     3.063906
      pz      :     0.927188  p :     2.723762
      px      :     0.948709
      py      :     0.847864
      dz2     :     0.028319  d :     0.130704
      dxz     :     0.038714
      dyz     :     0.023903
      dx2y2   :     0.019297
      dxy     :     0.020470

  4 O s       :     3.744653  s :     3.744653
      pz      :     1.331145  p :     4.442988
      px      :     1.669111
      py      :     1.442732
      dz2     :     0.006287  d :     0.017438
      dxz     :     0.003327
      dyz     :     0.005473
      dx2y2   :     0.001225
      dxy     :     0.001125

  5 O s       :     3.734729  s :     3.734729
      pz      :     1.630927  p :     4.494757
      px      :     1.285733
      py      :     1.578098
      dz2     :     0.002197  d :     0.016009
      dxz     :     0.004942
      dyz     :     0.002782
      dx2y2   :     0.003144
      dxy     :     0.002944

  6 C s       :     3.080970  s :     3.080970
      pz      :     1.000981  p :     2.886854
      px      :     0.808517
      py      :     1.077357
      dz2     :     0.006259  d :     0.058963
      dxz     :     0.014712
      dyz     :     0.013862
      dx2y2   :     0.015203
      dxy     :     0.008928

  7 C s       :     3.091424  s :     3.091424
      pz      :     1.041639  p :     3.160726
      px      :     1.034268
      py      :     1.084819
      dz2     :     0.001625  d :     0.027879
      dxz     :     0.006922
      dyz     :     0.010025
      dx2y2   :     0.006590
      dxy     :     0.002716

  8 H s       :     0.896828  s :     0.896828

  9 H s       :     0.880863  s :     0.880863

 10 H s       :     0.894275  s :     0.894275

 11 H s       :     0.898595  s :     0.898595

 12 H s       :     0.905466  s :     0.905466

 13 H s       :     0.895918  s :     0.895918

 14 H s       :     0.903357  s :     0.903357

 15 H s       :     0.898040  s :     0.898040

 16 H s       :     0.886227  s :     0.886227

 17 H s       :     0.885976  s :     0.885976

 18 H s       :     0.886441  s :     0.886441

 19 H s       :     0.888719  s :     0.888719


------------------------
MULLIKEN OVERLAP CHARGES
------------------------
B(  0-C ,  1-C ) :   0.8793 B(  0-C ,  2-C ) :  -0.1621 B(  0-C ,  8-H ) :   0.7533 
B(  0-C ,  9-H ) :   0.7657 B(  0-C , 10-H ) :   0.7284 B(  0-C , 11-H ) :  -0.0515 
B(  0-C , 12-H ) :  -0.0548 B(  1-C ,  2-C ) :   0.8096 B(  1-C ,  3-C ) :  -0.0730 
B(  1-C ,  8-H ) :  -0.0511 B(  1-C ,  9-H ) :  -0.0556 B(  1-C , 11-H ) :   0.7165 
B(  1-C , 12-H ) :   0.7206 B(  2-C ,  3-C ) :   0.6508 B(  2-C ,  4-O ) :  -0.1707 
B(  2-C ,  5-O ) :  -0.2655 B(  2-C , 11-H ) :  -0.0555 B(  2-C , 13-H ) :   0.5963 
B(  2-C , 14-H ) :   0.6451 B(  3-C ,  4-O ) :   1.3719 B(  3-C ,  5-O ) :   0.6731 
B(  3-C ,  6-C ) :  -0.0656 B(  4-O ,  5-O ) :  -0.1703 B(  4-O , 16-H ) :   0.0645 
B(  5-O ,  6-C ) :   0.5439 B(  5-O ,  7-C ) :  -0.1090 B(  5-O , 15-H ) :  -0.0608 
B(  5-O , 16-H ) :  -0.0693 B(  6-C ,  7-C ) :   0.8675 B(  6-C , 15-H ) :   0.7407 
B(  6-C , 16-H ) :   0.7122 B(  7-C , 15-H ) :  -0.0536 B(  7-C , 17-H ) :   0.7491 
B(  7-C , 18-H ) :   0.7290 B(  7-C , 19-H ) :   0.7175 B( 11-H , 12-H ) :  -0.0576 
B( 15-H , 16-H ) :  -0.0763 B( 17-H , 18-H ) :  -0.0533 


                     *******************************
                     * LOEWDIN POPULATION ANALYSIS *
                     *******************************

----------------------
LOEWDIN ATOMIC CHARGES
----------------------
   0 C :   -0.342513
   1 C :   -0.228952
   2 C :   -0.242297
   3 C :    0.032359
   4 O :   -0.169161
   5 O :   -0.070520
   6 C :   -0.110895
   7 C :   -0.350854
   8 H :    0.120573
   9 H :    0.121137
  10 H :    0.120465
  11 H :    0.119009
  12 H :    0.118610
  13 H :    0.135982
  14 H :    0.131691
  15 H :    0.114905
  16 H :    0.119068
  17 H :    0.126092
  18 H :    0.125405
  19 H :    0.129897

-------------------------------
LOEWDIN REDUCED ORBITAL CHARGES
-------------------------------
  0 C s       :     2.944871  s :     2.944871
      pz      :     1.088877  p :     3.326894
      px      :     1.119876
      py      :     1.118140
      dz2     :     0.014871  d :     0.070749
      dxz     :     0.021599
      dyz     :     0.009235
      dx2y2   :     0.007037
      dxy     :     0.018007

  1 C s       :     2.907155  s :     2.907155
      pz      :     1.086723  p :     3.232429
      px      :     1.084938
      py      :     1.060767
      dz2     :     0.015705  d :     0.089368
      dxz     :     0.025097
      dyz     :     0.014723
      dx2y2   :     0.012110
      dxy     :     0.021734

  2 C s       :     2.917853  s :     2.917853
      pz      :     1.088903  p :     3.240932
      px      :     1.064867
      py      :     1.087163
      dz2     :     0.014910  d :     0.083511
      dxz     :     0.020569
      dyz     :     0.013130
      dx2y2   :     0.014885
      dxy     :     0.020018

  3 C s       :     2.848545  s :     2.848545
      pz      :     0.995266  p :     2.821314
      px      :     0.952973
      py      :     0.873075
      dz2     :     0.061773  d :     0.297782
      dxz     :     0.090733
      dyz     :     0.057788
      dx2y2   :     0.041747
      dxy     :     0.045741

  4 O s       :     3.552320  s :     3.552320
      pz      :     1.442555  p :     4.586095
      px      :     1.674332
      py      :     1.469208
      dz2     :     0.011137  d :     0.030746
      dxz     :     0.005399
      dyz     :     0.010676
      dx2y2   :     0.001883
      dxy     :     0.001651

  5 O s       :     3.447940  s :     3.447940
      pz      :     1.654034  p :     4.589858
      px      :     1.333747
      py      :     1.602077
      dz2     :     0.003799  d :     0.032722
      dxz     :     0.009850
      dyz     :     0.004798
      dx2y2   :     0.006458
      dxy     :     0.007816

  6 C s       :     2.924430  s :     2.924430
      pz      :     1.053170  p :     3.055164
      px      :     0.876344
      py      :     1.125650
      dz2     :     0.011388  d :     0.131301
      dxz     :     0.036847
      dyz     :     0.032597
      dx2y2   :     0.033122
      dxy     :     0.017347

  7 C s       :     2.949963  s :     2.949963
      pz      :     1.103612  p :     3.331768
      px      :     1.095367
      py      :     1.132789
      dz2     :     0.003815  d :     0.069123
      dxz     :     0.018916
      dyz     :     0.023928
      dx2y2   :     0.016456
      dxy     :     0.006008

  8 H s       :     0.879427  s :     0.879427

  9 H s       :     0.878863  s :     0.878863

 10 H s       :     0.879535  s :     0.879535

 11 H s       :     0.880991  s :     0.880991

 12 H s       :     0.881390  s :     0.881390

 13 H s       :     0.864018  s :     0.864018

 14 H s       :     0.868309  s :     0.868309

 15 H s       :     0.885095  s :     0.885095

 16 H s       :     0.880932  s :     0.880932

 17 H s       :     0.873908  s :     0.873908

 18 H s       :     0.874595  s :     0.874595

 19 H s       :     0.870103  s :     0.870103


---------------------------------
LOEWDIN BOND ORDERS (THRESH 0.050000)
---------------------------------
B(  0-C ,  1-C ) :   1.1332 B(  0-C ,  2-C ) :   0.0526 B(  0-C ,  8-H ) :   0.9397 
B(  0-C ,  9-H ) :   0.9364 B(  0-C , 10-H ) :   0.9391 B(  1-C ,  2-C ) :   1.0785 
B(  1-C ,  3-C ) :   0.0623 B(  1-C , 11-H ) :   0.9057 B(  1-C , 12-H ) :   0.9049 
B(  2-C ,  3-C ) :   1.0593 B(  2-C ,  4-O ) :   0.0931 B(  2-C ,  5-O ) :   0.0705 
B(  2-C , 13-H ) :   0.8867 B(  2-C , 14-H ) :   0.8958 B(  3-C ,  4-O ) :   2.2054 
B(  3-C ,  5-O ) :   1.3972 B(  3-C ,  6-C ) :   0.0756 B(  4-O ,  5-O ) :   0.2067 
B(  5-O ,  6-C ) :   1.0659 B(  5-O ,  7-C ) :   0.0563 B(  6-C ,  7-C ) :   1.1563 
B(  6-C , 15-H ) :   0.9170 B(  6-C , 16-H ) :   0.9048 B(  7-C , 17-H ) :   0.9383 
B(  7-C , 18-H ) :   0.9372 B(  7-C , 19-H ) :   0.9307 

------------------------------------------
LOEWDIN REDUCED ORBITAL POPULATIONS PER MO
-------------------------------------------
THRESHOLD FOR PRINTING IS 0.1%%
                      0         1         2         3         4         5   
                 -18.79744 -18.72890 -10.00361  -9.94656  -9.89577  -9.89385
                   2.00000   2.00000   2.00000   2.00000   2.00000   2.00000
                  --------  --------  --------  --------  --------  --------
 1 C  s               0.0       0.0       0.0       0.0       0.0      99.6
 2 C  s               0.0       0.0       0.0       0.0      99.6       0.0
 3 C  s               0.0       0.0      99.3       0.0       0.0       0.0
 4 O  s               0.0      99.9       0.0       0.0       0.0       0.0
 4 O  pz              0.0       0.0       0.2       0.0       0.0       0.0
 5 O  s              99.9       0.0       0.0       0.0       0.0       0.0
 6 C  s               0.0       0.0       0.0      99.7       0.0       0.0

                      6         7         8         9        10        11   
                  -9.88980  -9.87702  -1.00408  -0.90598  -0.73064  -0.69837
                   2.00000   2.00000   2.00000   2.00000   2.00000   2.00000
                  --------  --------  --------  --------  --------  --------
 0 C  s               0.0      99.7       0.0       0.0       6.7       6.3
 0 C  pz              0.0       0.0       0.0       0.0       1.3       0.7
 0 C  px              0.0       0.0       0.0       0.0       0.4       0.1
 0 C  py              0.0       0.0       0.0       0.0       0.3       0.1
 1 C  s               0.0       0.0       0.1       0.0      16.5       8.9
 1 C  pz              0.0       0.1       0.0       0.0       0.5       0.4
 1 C  px              0.0       0.0       0.1       0.0       0.3       0.1
 1 C  py              0.0       0.0       0.1       0.0       0.9       0.0
 2 C  s               0.0       0.0       1.0       0.3      17.9       2.5
 2 C  pz              0.0       0.0       0.4       0.4       0.0       0.0
 2 C  px              0.0       0.0       1.4       0.1       0.0       1.3
 2 C  py              0.0       0.0       0.1       0.1       1.7       0.5
 3 C  s               0.0       0.0      18.2       5.6       3.3       0.7
 3 C  pz              0.0       0.0       0.1      15.4       4.9       0.5
 3 C  px              0.0       0.0       4.3       0.7       3.7       1.4
 3 C  py              0.0       0.0       1.0       7.9       0.5       0.8
 3 C  dz2             0.0       0.0       0.0       0.9       0.0       0.0
 3 C  dxz             0.0       0.0       0.1       0.3       0.0       0.1
 3 C  dyz             0.0       0.0       0.6       0.4       0.0       0.0
 3 C  dxy             0.0       0.0       0.4       0.3       0.0       0.1
 4 O  s               0.0       0.0      10.2      42.8       1.4       0.1
 4 O  pz              0.0       0.0       1.9       3.5       0.1       0.0
 4 O  px              0.0       0.0       0.0       0.2       0.1       0.0
 4 O  py              0.0       0.0       0.7       0.9       0.0       0.0
 5 O  s               0.0       0.0      42.5      14.2       0.0       1.2
 5 O  pz              0.0       0.0       2.0       0.1       0.2       0.1
 5 O  px              0.0       0.0       0.1       0.4       6.0       6.6
 5 O  py              0.0       0.0       1.0       0.1       0.8       1.5
 6 C  s               0.0       0.0       4.7       2.2       6.7      16.1
 6 C  pz              0.1       0.0       0.9       0.6       0.3       0.8
 6 C  px              0.1       0.0       4.4       0.9       0.1       2.4
 6 C  py              0.0       0.0       0.3       0.0       0.0       0.3
 6 C  dxz             0.0       0.0       0.2       0.1       0.0       0.1
 6 C  dx2y2           0.0       0.0       0.2       0.1       0.0       0.0
 7 C  s              99.7       0.0       0.3       0.2       3.8      18.7
 7 C  pz              0.0       0.0       0.1       0.1       0.3       0.9
 7 C  px              0.0       0.0       0.4       0.3       0.5       0.8
 8 H  s               0.0       0.1       0.0       0.0       1.2       1.3
 9 H  s               0.0       0.1       0.0       0.0       1.3       1.2
10 H  s               0.0       0.1       0.0       0.0       1.1       1.2
11 H  s               0.0       0.0       0.1       0.0       3.1       1.5
12 H  s               0.0       0.0       0.0       0.0       2.8       1.8
13 H  s               0.0       0.0       0.2       0.0       3.4       0.4
14 H  s               0.0       0.0       0.2       0.1       3.0       0.7
15 H  s               0.0       0.0       0.6       0.2       1.2       3.2
16 H  s               0.0       0.0       0.8       0.1       1.2       2.9
17 H  s               0.1       0.0       0.0       0.0       0.7       3.6
18 H  s               0.1       0.0       0.1       0.0       0.7       3.7
19 H  s               0.1       0.0       0.0       0.0       0.6       3.7

                     12        13        14        15        16        17   
                  -0.63639  -0.58295  -0.53510  -0.50612  -0.45440  -0.42886
                   2.00000   2.00000   2.00000   2.00000   2.00000   2.00000
                  --------  --------  --------  --------  --------  --------
 0 C  s              19.6       5.1       8.2       0.2       0.2       0.0
 0 C  pz              0.1       0.5       7.1       0.4       0.0       0.4
 0 C  px              0.0       0.1       0.5       0.1       2.5       1.3
 0 C  py              0.0       0.2       0.1       0.0       0.0       3.4
 0 C  dz2             0.0       0.0       0.1       0.0       0.0       0.0
 1 C  s               2.7       1.1      14.4       0.6       0.0       0.2
 1 C  pz              2.2       1.6       7.1       0.2       0.9       0.0
 1 C  px              2.8       0.3       0.0       0.1       3.8       3.1
 1 C  py              4.2       1.8       0.6       0.7       1.2       9.5
 1 C  dz2             0.1       0.1       0.0       0.0       0.0       0.0
 2 C  s              12.2       4.4       2.5       1.0       0.6       0.7
 2 C  pz              0.0       0.4       1.8       0.0       5.3       0.4
 2 C  px              1.8       1.7       2.4       0.7       2.1      13.2
 2 C  py              0.9       0.1       5.9       1.7       3.7       0.8
 2 C  dxz             0.0       0.0       0.0       0.0       0.1       0.1
 2 C  dxy             0.0       0.0       0.1       0.0       0.0       0.0
 3 C  s               3.0       1.7       1.0       1.5       0.5       0.8
 3 C  pz              3.8       0.8       1.0       0.4       0.5       3.4
 3 C  px              3.9       1.4       3.3       1.4       9.1       2.9
 3 C  py              0.1       1.3       0.6       2.1       3.4       4.4
 3 C  dxz             0.1       0.1       0.0       0.0       0.0       0.0
 3 C  dxy             0.0       0.0       0.0       0.0       0.0       0.1
 4 O  s               0.7       0.1       0.9       0.8       0.0       0.0
 4 O  pz              0.2       0.1       0.3       0.2       0.1       0.9
 4 O  px              0.2       0.0       0.4       0.7       3.7       0.8
 4 O  py              0.0       0.1       0.0       0.7       0.5       2.0
 5 O  s               0.7       0.0       0.4       4.6       0.3       0.0
 5 O  pz              0.3       0.4       0.1       4.9       0.0       9.8
 5 O  px              1.8      13.5       0.2      10.1       2.0       2.5
 5 O  py              0.4       3.8       0.0       4.9      15.7       1.2
 5 O  dxz             0.0       0.2       0.0       0.0       0.0       0.0
 6 C  s               0.2       5.3       2.4       7.1       0.0       0.5
 6 C  pz              0.3       1.5       1.1      18.5       0.0       3.3
 6 C  px              3.0       5.3       0.0       4.9       0.7       1.8
 6 C  py              0.2       0.0       0.0       0.1      18.0       4.7
 6 C  dxz             0.1       0.3       0.0       0.3       0.0       0.0
 6 C  dx2y2           0.0       0.0       0.0       0.4       0.0       0.0
 7 C  s               7.1      14.6       1.2       0.6       0.0       0.3
 7 C  pz              0.0       1.1       1.0       6.1       0.1       0.3
 7 C  px              0.1       2.5       0.5       0.1       0.5       3.4
 7 C  py              0.0       0.1       0.0       0.1       4.7       5.1
 8 H  s               4.4       1.4       4.3       0.3       0.7       1.8
 9 H  s               4.3       1.7       4.5       0.1       0.3       0.1
10 H  s               5.1       1.8       3.2       0.1       0.3       0.4
11 H  s               0.6       0.2       7.3       0.6       1.2       4.7
12 H  s               0.7       0.5       7.6       0.2       1.2       0.4
13 H  s               3.7       1.4       0.7       0.5       3.3       0.1
14 H  s               2.6       1.9       2.1       1.7       1.4       4.1
15 H  s               0.0       2.0       1.4       7.2       4.6       1.9
16 H  s               0.0       1.4       1.0       9.9       3.8       1.0
17 H  s               1.7       4.9       0.7       1.1       1.5       0.2
18 H  s               1.7       4.6       0.7       1.6       0.9       1.7
19 H  s               2.0       5.8       0.5       0.0       0.0       2.0

                     18        19        20        21        22        23   
                  -0.41825  -0.40251  -0.39132  -0.36720  -0.36047  -0.35410
                   2.00000   2.00000   2.00000   2.00000   2.00000   2.00000
                  --------  --------  --------  --------  --------  --------
 0 C  s               0.4       0.0       0.1       0.0       0.0       0.0
 0 C  pz              0.4       5.6       0.9       2.6       0.6       6.4
 0 C  px              3.0       6.4       2.1       1.5      12.1       0.4
 0 C  py              4.9       0.1       9.9       6.9       0.0       1.9
 1 C  s               0.2       0.2       0.1       0.1       0.2       0.0
 1 C  pz              5.1       0.8       1.1       0.3       4.3       3.0
 1 C  px              0.1      13.9       5.2       1.2       0.9       0.5
 1 C  py              1.2       1.5       3.3       3.2       1.0       2.2
 2 C  s               0.1       0.5       0.4       0.0       0.0       0.1
 2 C  pz             17.3       3.1       4.5       1.7       1.4       4.4
 2 C  px              2.5       0.5       0.7       0.0       1.9       0.1
 2 C  py              1.4       4.1       0.6       4.1       1.6       2.7
 2 C  dx2y2           0.0       0.1       0.1       0.0       0.0       0.0
 2 C  dxy             0.0       0.0       0.0       0.1       0.0       0.1
 3 C  s               0.9       3.2       0.3       0.2       0.3       0.3
 3 C  pz              2.2       0.9       2.1       0.2       0.7       3.5
 3 C  px              1.6       0.0       0.5       3.3       2.4       0.0
 3 C  py              0.9       4.9       0.2       0.4       4.6       0.7
 3 C  dz2             0.2       0.0       0.0       0.0       0.1       0.1
 3 C  dxz             0.0       0.0       0.2       0.0       0.0       0.0
 3 C  dyz             0.1       0.0       0.2       0.0       0.0       0.0
 3 C  dx2y2           0.1       0.0       0.0       0.0       0.0       0.0
 3 C  dxy             0.0       0.0       0.0       0.2       0.0       0.0
 4 O  s               4.7       7.0       4.3       0.4       0.0       2.7
 4 O  pz              3.5      18.7       6.7       2.4       0.6       9.0
 4 O  px              1.1       1.1       0.2       2.2       1.5       1.0
 4 O  py              3.9       0.2       4.5       0.1       4.4       4.7
 4 O  dz2             0.0       0.2       0.0       0.0       0.0       0.0
 5 O  s               0.4       0.1       1.9       1.3       0.3       0.3
 5 O  pz              4.3       0.1      14.5       0.1       0.6       0.6
 5 O  px              1.7       0.4       2.3       0.3       2.2       0.6
 5 O  py              0.4       0.7       0.0       6.7       4.1       0.9
 6 C  s               0.0       0.0       0.2       0.2       0.2       0.1
 6 C  pz              0.3       0.2       0.5       1.7       0.0       3.3
 6 C  px              0.3       0.1       6.5       0.6       0.1       1.5
 6 C  py              8.3       3.2       0.1       0.7       0.0       0.2
 6 C  dx2y2           0.0       0.0       0.0       0.1       0.0       0.2
 6 C  dxy             0.0       0.0       0.0       0.1       0.2       0.0
 7 C  s               0.0       0.0       0.1       0.0       0.0       0.0
 7 C  pz              1.1       0.0       5.9       1.8       6.9      17.9
 7 C  px              0.3       0.9       1.2      20.9       5.4       3.0
 7 C  py              4.7       3.0       0.5       5.6      11.4       0.6
 7 C  dxz             0.0       0.0       0.0       0.1       0.1       0.0
 7 C  dyz             0.0       0.0       0.0       0.2       0.1       0.0
 7 C  dx2y2           0.0       0.0       0.0       0.1       0.2       0.3
 8 H  s               0.1       0.1       2.6       1.3       3.1       2.6
 9 H  s               0.0       5.2       2.0       1.4       1.5       0.8
10 H  s               3.8       0.8       2.1       4.2       1.3       0.6
11 H  s               0.5       0.2       2.9       0.2       0.4       0.0
12 H  s               0.5       5.7       1.0       0.3       1.8       0.2
13 H  s               9.6       1.1       4.0       0.1       0.6       1.1
14 H  s               0.7       0.3       0.1       2.2       2.6       3.2
15 H  s               3.0       0.7       0.0       0.0       0.1       0.9
16 H  s               0.8       1.5       0.1       0.2       0.1       1.5
17 H  s               2.5       1.1       0.8       1.2       8.7       1.9
18 H  s               0.5       0.8       1.7       7.2       0.1       7.0
19 H  s               0.0       0.1       0.0       9.7       8.4       6.4

                     24        25        26        27        28        29   
                  -0.34202  -0.32471  -0.31155  -0.29959  -0.29746  -0.29207
                   2.00000   2.00000   2.00000   2.00000   2.00000   2.00000
                  --------  --------  --------  --------  --------  --------
 0 C  s               0.0       0.0       0.3       0.1       0.0       0.1
 0 C  pz              0.1       0.3      22.2       1.5       0.5       2.6
 0 C  px              2.9       7.4       1.1      13.9       0.0       0.1
 0 C  py              9.9       2.9       0.2       0.0      15.1       0.0
 0 C  dz2             0.0       0.1       0.0       0.2       0.1       0.0
 0 C  dxz             0.1       0.0       0.4       0.3       0.1       0.0
 0 C  dyz             0.0       0.0       0.0       0.1       0.1       0.0
 0 C  dxy             0.1       0.1       0.1       0.0       0.4       0.0
 1 C  s               0.1       0.0       0.1       0.0       0.1       0.0
 1 C  pz              0.0       0.1      22.0       1.0       0.2       3.1
 1 C  px              0.1       0.6       0.5      19.5       0.1       0.0
 1 C  py              0.1       0.7       0.0       0.5      19.7       0.2
 1 C  dz2             0.0       0.1       0.0       0.3       0.1       0.0
 1 C  dxz             0.0       0.0       0.5       0.3       0.2       0.1
 1 C  dyz             0.0       0.0       0.1       0.3       0.0       0.1
 1 C  dx2y2           0.1       0.0       0.0       0.1       0.0       0.0
 1 C  dxy             0.0       0.1       0.2       0.1       0.4       0.0
 2 C  s               0.1       0.4       0.4       0.1       0.4       0.1
 2 C  pz              0.0       0.4       3.3       2.5       0.8       2.1
 2 C  px              9.2       0.3       0.6       6.5       2.1       1.1
 2 C  py              4.0       3.3       1.3       0.1      15.6       0.0
 2 C  dz2             0.0       0.0       0.0       0.1       0.1       0.0
 2 C  dxz             0.1       0.0       0.1       0.0       0.1       0.1
 2 C  dyz             0.0       0.0       0.2       0.2       0.0       0.0
 2 C  dx2y2           0.0       0.0       0.0       0.2       0.0       0.0
 2 C  dxy             0.2       0.0       0.1       0.1       0.2       0.0
 3 C  s               0.1       0.0       0.0       0.3       0.0       0.5
 3 C  pz              2.8       0.5       0.2       0.2       0.5       4.4
 3 C  px              1.7       2.3       1.0       1.8       0.1       0.1
 3 C  py              3.5       3.1       0.0       0.5       1.1       1.0
 3 C  dz2             0.0       0.0       0.0       0.1       0.0       0.5
 3 C  dxz             0.1       0.0       0.2       0.0       0.0       0.0
 3 C  dyz             0.0       0.1       0.0       0.1       0.1       0.2
 3 C  dx2y2           0.0       0.2       0.0       0.0       0.0       0.2
 3 C  dxy             0.1       0.0       0.1       0.0       0.2       0.1
 4 O  s               0.2       0.2       0.0       0.1       0.0       1.2
 4 O  pz              0.0       5.0       0.1       2.6       1.9       5.5
 4 O  px              0.0       0.4       2.7       2.0       0.5       0.3
 4 O  py              5.7       2.5       0.2       1.1       3.2       5.2
 5 O  s               0.0       0.2       0.4       0.1       0.0       3.1
 5 O  pz              0.1       1.6       1.7       0.6       1.2      26.2
 5 O  px              3.4       1.5       0.2       0.4       0.4       1.7
 5 O  py              0.1       0.6       0.0       0.0       0.9       5.2
 5 O  dxz             0.1       0.0       0.0       0.0       0.0       0.0
 6 C  s               0.0       0.1       0.0       0.0       0.0       0.3
 6 C  pz              6.1       1.8       1.8       0.1       0.5       7.7
 6 C  px              8.4       0.2       0.0       0.2       0.4       0.7
 6 C  py              0.6       9.0       2.2       0.3       1.2       3.8
 6 C  dxz             0.3       0.0       0.0       0.0       0.0       0.2
 6 C  dyz             0.0       0.4       0.1       0.0       0.1       0.2
 6 C  dx2y2           0.0       0.0       0.1       0.0       0.0       0.3
 6 C  dxy             0.0       0.1       0.0       0.0       0.0       0.2
 7 C  s               0.1       0.0       0.0       0.0       0.0       0.3
 7 C  pz              4.6       1.8       1.2       0.0       0.4       3.0
 7 C  px             11.4       0.3       0.0       0.0       0.6       0.5
 7 C  py              1.4      14.8       2.0       0.2       0.3       1.8
 7 C  dxz             0.2       0.0       0.0       0.0       0.0       0.1
 7 C  dyz             0.0       0.5       0.1       0.0       0.1       0.1
 8 H  s               6.2       0.0       0.2       6.3       5.5       0.4
 9 H  s               1.0       3.0       9.6       4.8       0.3       0.4
10 H  s               2.2       5.0       0.5       1.6       8.5       0.1
11 H  s               0.0       0.1       1.4      11.6       6.6       0.5
12 H  s               0.0       0.2       9.5       6.9       0.4       1.0
13 H  s               0.0       0.3       3.1       3.7       3.7       1.2
14 H  s               6.8       0.5       2.0       5.2       1.7       0.0
15 H  s               0.7       8.3       0.1       0.3       1.7       0.0
16 H  s               0.9       2.2       2.8       0.0       0.3       8.9
17 H  s               0.3      10.9       0.3       0.2       0.7       0.1
18 H  s               0.8       4.4       2.1       0.0       0.2       2.8
19 H  s               2.9       0.6       0.0       0.1       0.0       0.0

                     30        31        32        33        34        35   
                  -0.25453  -0.21221  -0.01884   0.03699   0.05181   0.07099
                   2.00000   2.00000   0.00000   0.00000   0.00000   0.00000
                  --------  --------  --------  --------  --------  --------
 0 C  s               0.0       0.0       0.4       4.5       4.9       2.4
 0 C  pz              0.0       0.2       0.2       0.9       0.6       1.4
 0 C  px              0.2       0.0       0.1       0.0       1.4       1.5
 0 C  py              0.0       0.0       0.1       0.1       0.0       0.2
 0 C  dz2             0.0       0.0       0.0       0.1       0.2       0.1
 1 C  s               0.0       0.1       2.3       2.3       3.4       0.6
 1 C  pz              0.0       0.3       0.0       1.1       1.6       0.4
 1 C  px              0.3       0.6       0.1       0.0       0.7       1.3
 1 C  py              0.3       0.2       2.0       1.5       0.3       0.0
 1 C  dz2             0.0       0.0       0.0       0.0       0.0       0.3
 1 C  dxz             0.0       0.1       0.1       0.0       0.1       0.1
 1 C  dxy             0.0       0.0       0.0       0.1       0.0       0.0
 2 C  s               0.0       0.6       0.2       2.3       2.9       2.6
 2 C  pz              0.0       3.9       0.0       0.1       0.0       3.4
 2 C  px              0.1       2.8       0.3       0.0       0.2       0.0
 2 C  py              0.0       0.1       0.4       0.5       1.4       0.5
 2 C  dz2             0.0       0.0       0.9       0.0       0.0       0.1
 2 C  dyz             0.0       0.0       0.4       0.0       0.0       0.0
 2 C  dxy             0.0       0.0       0.8       0.0       0.0       0.0
 3 C  s               0.0       0.5       0.0       1.3       0.1       0.2
 3 C  pz              0.2       0.5      10.3       0.5       0.4       0.2
 3 C  px              0.0       0.7       7.1       1.5       0.6       0.0
 3 C  py              0.4       0.2      27.3       0.9       0.6       0.5
 3 C  dz2             0.8       0.1       0.5       0.0       0.1       0.0
 3 C  dxz             0.6       2.5       0.0       0.1       0.0       0.0
 3 C  dyz             0.2       0.6       0.2       0.3       0.0       0.0
 3 C  dx2y2           0.8       0.4       0.0       0.0       0.0       0.1
 3 C  dxy             0.0       0.7       0.4       0.1       0.1       0.0
 4 O  s               0.0       0.0       0.0       0.4       0.0       0.0
 4 O  pz              7.7       0.9       5.8       0.3       0.0       0.2
 4 O  px              7.4      57.0       4.5       0.6       0.0       0.0
 4 O  py             18.3      14.4      15.8       0.2       0.2       0.3
 4 O  dz2             0.0       0.0       0.3       0.0       0.0       0.0
 4 O  dyz             0.0       0.0       0.1       0.0       0.0       0.0
 5 O  s               0.0       0.3       0.0       1.7       0.5       0.4
 5 O  pz              8.7       4.3       2.0       0.4       0.3       0.7
 5 O  px              7.3       1.0       1.6       0.2       0.2       0.2
 5 O  py             29.3       1.6       5.7       0.3       0.0       0.0
 5 O  dxz             0.0       0.0       0.1       0.0       0.1       0.0
 5 O  dx2y2           0.0       0.0       0.3       0.0       0.0       0.0
 6 C  s               0.0       0.2       0.1       4.0       4.0       0.9
 6 C  pz              1.0       0.2       0.1       3.8       0.6       1.6
 6 C  px              0.6       0.7       0.0       0.9       1.4       1.6
 6 C  py              2.7       0.3       0.1       0.4       0.0       4.5
 6 C  dz2             0.1       0.0       0.0       0.0       0.0       0.1
 6 C  dxz             0.0       0.0       0.0       0.0       0.3       0.5
 6 C  dyz             0.7       0.0       0.2       0.0       0.0       0.1
 6 C  dx2y2           0.2       0.0       0.1       0.2       0.0       0.1
 6 C  dxy             0.1       0.0       0.1       0.1       0.0       0.1
 7 C  s               0.1       0.0       0.1       7.0       9.0       4.6
 7 C  pz              0.5       0.0       0.1       0.9       0.4       0.9
 7 C  px              0.9       0.1       0.0       0.8       1.2       0.1
 7 C  py              0.0       0.0       0.0       0.3       0.1       1.4
 7 C  dz2             0.0       0.0       0.0       0.2       0.0       0.1
 7 C  dxz             0.0       0.0       0.0       0.1       0.1       0.1
 7 C  dyz             0.1       0.0       0.0       0.0       0.0       0.1
 8 H  s               0.1       0.0       0.2       2.6       7.2       0.4
 9 H  s               0.1       0.1       0.2       5.0       0.7      12.4
10 H  s               0.0       0.0       0.1       3.5       5.7       0.4
11 H  s               0.3       0.0       0.1       6.5       1.7       0.1
12 H  s               0.3       1.0       1.9       2.8       8.9       5.0
13 H  s               0.0       0.9       4.1       3.0       2.5      13.4
14 H  s               0.1       0.2       0.2       1.9       7.1       0.6
15 H  s               6.0       0.0       1.3      11.4       4.1      15.9
16 H  s               2.2       0.4       0.1       4.4       3.3       0.3
17 H  s               0.6       0.0       0.1       4.2       5.8      14.4
18 H  s               0.2       0.2       0.0       6.9       5.6       0.9
19 H  s               0.2       0.2       0.2       6.2       8.6       0.9

                     36        37        38        39        40        41   
                   0.08101   0.08909   0.09467   0.10156   0.10493   0.11472
                   0.00000   0.00000   0.00000   0.00000   0.00000   0.00000
                  --------  --------  --------  --------  --------  --------
 0 C  s               0.0      10.3       1.8       0.7       0.5       2.0
 0 C  pz              0.5       0.3       0.2       0.0       1.1       0.8
 0 C  px              0.4       2.5       0.4       0.0       2.1       0.1
 0 C  py              5.1       0.2       1.0       1.5       0.6       1.3
 0 C  dz2             0.0       0.0       0.0       0.0       0.2       0.1
 0 C  dxz             0.1       0.0       0.0       0.1       0.2       0.0
 0 C  dx2y2           0.1       0.0       0.0       0.1       0.0       0.1
 0 C  dxy             0.2       0.0       0.1       0.0       0.1       0.2
 1 C  s               1.9       0.3       2.0       1.0       1.5       6.9
 1 C  pz              0.7       0.1       0.1       0.0       1.4       1.0
 1 C  px              1.5       0.4       0.0       3.1       4.4       0.6
 1 C  py              2.1       1.3       0.1       0.3       0.1       0.0
 1 C  dz2             0.0       0.2       0.0       0.1       0.1       0.1
 1 C  dxz             0.0       0.2       0.0       0.1       0.2       0.0
 1 C  dyz             0.7       0.0       0.2       0.1       0.0       0.3
 1 C  dx2y2           0.1       0.0       0.0       0.2       0.0       0.0
 1 C  dxy             0.1       0.1       0.0       0.0       0.0       0.0
 2 C  s               1.2       4.6       0.2       1.9       0.8       2.6
 2 C  pz              3.7       1.6       1.3       1.5       0.0       3.2
 2 C  px              1.7       0.7       0.7       1.2       0.1       0.8
 2 C  py              1.8       0.1       0.3       0.8       0.7       0.2
 2 C  dz2             0.2       0.0       0.1       0.0       0.0       0.0
 2 C  dxz             0.0       0.0       0.0       0.0       0.0       0.2
 2 C  dyz             0.2       0.0       0.1       0.0       0.1       0.0
 2 C  dx2y2           0.0       0.0       0.0       0.4       0.1       0.1
 2 C  dxy             0.4       0.0       0.3       0.1       0.0       0.3
 3 C  s               0.1       0.5       1.0       0.4       0.4       0.2
 3 C  pz              0.2       0.1       0.8       0.3       0.0       0.1
 3 C  px              0.2       0.6       0.0       0.0       0.7       0.1
 3 C  py              0.4       0.1       0.5       0.7       0.3       0.1
 3 C  dz2             0.2       0.0       0.3       0.2       0.0       0.0
 3 C  dxz             0.0       0.1       0.3       0.0       0.0       0.0
 3 C  dyz             0.0       0.0       0.2       0.1       0.0       0.0
 3 C  dx2y2           0.2       0.1       0.0       0.1       0.0       0.0
 3 C  dxy             0.2       0.1       0.0       0.1       0.1       0.0
 4 O  s               0.0       0.1       0.8       0.1       0.1       0.0
 4 O  pz              0.1       0.1       0.1       0.1       0.0       0.0
 4 O  px              0.2       0.2       0.2       0.2       0.2       0.6
 4 O  py              0.1       0.0       0.1       0.2       0.1       0.0
 5 O  s               0.7       3.6       0.4       2.6       0.9       0.2
 5 O  pz              0.4       0.8       0.0       1.1       0.3       0.1
 5 O  px              0.2       1.9       0.1       1.7       0.1       0.4
 5 O  py              0.1       0.0       0.1       0.4       0.0       0.2
 5 O  dx2y2           0.1       0.1       0.1       0.2       0.0       0.0
 5 O  dxy             0.1       0.0       0.0       0.2       0.0       0.0
 6 C  s               0.0       0.1       4.8       6.2       2.6       0.7
 6 C  pz              1.1       2.8       0.3       0.6       1.0       1.7
 6 C  px              1.8       9.3       0.2       6.4       1.4       0.6
 6 C  py              0.4       0.7       3.4       1.9       0.0       0.8
 6 C  dz2             0.1       0.1       0.0       0.2       0.3       0.2
 6 C  dxz             0.0       1.2       0.0       0.2       0.1       0.0
 6 C  dyz             0.1       0.0       0.5       0.4       0.0       0.1
 6 C  dx2y2           0.3       0.6       0.0       0.7       0.0       0.2
 6 C  dxy             0.0       0.1       0.2       0.0       0.0       0.0
 7 C  s               0.4       1.7       3.1       1.3       0.5       0.2
 7 C  pz              0.7       0.6       0.2       1.5       6.1       2.2
 7 C  px              1.5       0.3       0.3       2.8       3.7       2.6
 7 C  py              0.6       0.1       8.0       1.0       1.1       3.1
 7 C  dz2             0.1       0.4       0.0       0.1       0.0       0.1
 7 C  dxz             0.0       0.1       0.0       0.0       0.3       0.1
 7 C  dyz             0.1       0.0       0.7       0.2       0.0       0.1
 7 C  dx2y2           0.2       0.2       0.0       0.8       0.2       0.1
 8 H  s               8.9      13.6       0.2       0.2       0.4       0.3
 9 H  s               0.1       1.2       3.2       0.2       7.9       0.5
10 H  s               6.2      11.6       3.5       4.2       2.0       7.6
11 H  s              16.1       2.2       2.2       7.0       0.5       3.8
12 H  s               0.2       0.1       2.1       1.4      17.7      13.1
13 H  s               2.8      12.1       4.5       5.1       1.0      11.6
14 H  s              20.0       0.6       2.2       2.4       2.9       1.1
15 H  s               0.1       1.3       0.4      14.6       2.5       0.2
16 H  s               2.6       0.2      17.0       0.4       2.3       6.6
17 H  s               0.5       3.4       3.0       1.5      12.0       5.8
18 H  s               2.9       2.4      24.2       3.4       3.9       0.4
19 H  s               5.8       1.3       1.8      13.7      11.7      13.1

                     42        43        44        45        46        47   
                   0.13058   0.13397   0.13972   0.14419   0.17854   0.18600
                   0.00000   0.00000   0.00000   0.00000   0.00000   0.00000
                  --------  --------  --------  --------  --------  --------
 0 C  s               0.3       0.4       1.3       0.1       0.1       0.0
 0 C  pz              0.1       1.5       2.0       1.1       1.0       0.5
 0 C  px              3.0       0.5       1.2      11.0       0.2       0.3
 0 C  py              0.5      13.0       1.1       1.5       0.6       0.6
 0 C  dz2             0.0       0.0       0.1       0.0       0.0       0.1
 0 C  dxz             0.1       0.0       1.0       0.2       0.4       0.3
 0 C  dyz             0.0       0.0       0.0       0.0       0.3       0.4
 0 C  dx2y2           0.4       0.0       0.0       0.6       0.0       0.0
 0 C  dxy             0.0       0.8       0.0       0.1       0.0       0.0
 1 C  s               0.3       0.7       2.9       0.1       2.2       2.1
 1 C  pz              1.9       0.3       0.9       0.4       2.8       1.9
 1 C  px              3.4       1.6       0.9       3.8       1.2       1.3
 1 C  py              0.3       0.2       2.4       0.3       5.5       7.6
 1 C  dz2             0.1       0.5       0.0       0.0       0.0       0.1
 1 C  dxz             0.2       0.0       0.9       0.0       0.1       0.1
 1 C  dyz             0.0       0.0       0.0       0.0       0.1       0.2
 1 C  dx2y2           0.1       0.3       0.2       0.5       0.1       0.3
 1 C  dxy             0.0       0.0       0.0       0.0       2.3       1.9
 2 C  s               0.2       0.3       0.2       0.2       4.3       1.4
 2 C  pz              0.8       2.3       1.2       0.5       2.4       1.1
 2 C  px              0.7       2.3       5.3       0.4       0.4       1.2
 2 C  py              1.7       0.0       2.0       0.6       7.9       9.1
 2 C  dz2             0.1       0.1       0.0       0.1       0.8       0.7
 2 C  dxz             0.0       0.1       0.2       0.0       1.3       0.4
 2 C  dyz             0.1       0.1       0.4       0.0       0.4       0.1
 2 C  dx2y2           0.2       0.4       0.0       0.3       0.0       0.2
[...]
 2 C  py              1.3       0.0       0.0       0.0       0.0       0.0
 2 C  dz2             3.6       0.3       0.7       1.5       0.4       0.3
 2 C  dxz             0.5       1.0       0.1       0.2       1.0       0.2
 2 C  dyz             0.0       0.0       0.1       0.1       0.8       0.1
 2 C  dx2y2           3.7       1.2       0.0       0.1       0.0       0.8
 2 C  dxy             9.4       0.2       0.2       0.1       1.5       0.6
 3 C  s               0.9       0.1       0.0       0.1       0.2       1.1
 3 C  pz              0.0       0.3       0.0       0.1       0.2       1.0
 3 C  px              0.5       0.3       0.1       0.1       0.3       1.1
 3 C  py              0.1       0.1       0.0       0.8       0.0       1.1
 3 C  dz2             0.0       0.0       0.1       2.1       3.0       0.2
 3 C  dxz             0.6       0.8       0.1       2.0       0.2       5.0
 3 C  dyz             0.8       0.4       0.0       0.4       1.3       0.4
 3 C  dx2y2           0.1       0.8       1.2       7.7       0.0       0.7
 3 C  dxy             0.0       1.2       0.0       0.5       8.4       0.0
 4 O  s               0.1       0.0       0.0       0.2       0.9       0.4
 4 O  pz              0.1       0.0       0.0       0.2       0.2       0.3
 4 O  px              0.0       0.0       0.0       0.0       0.3       0.5
 4 O  py              0.0       0.0       0.0       0.2       0.1       0.0
 4 O  dz2             0.3       2.0       3.4       6.9       0.1       1.1
 4 O  dxz             2.3       4.9       0.5       0.3      15.2      19.1
 4 O  dyz             0.2       6.2       3.4       0.4       0.2       0.5
 4 O  dx2y2           7.9      19.6       1.3      15.6       0.0       1.1
 4 O  dxy            15.5      41.9       0.7       0.2       0.5       5.7
 5 O  s               0.0       0.2       0.0       0.1       0.6       7.5
 5 O  pz              0.1       0.3       0.2       0.1       1.4       0.6
 5 O  px              0.1       0.0       0.4       0.7       0.6       0.1
 5 O  py              0.0       0.4       0.3       0.4       0.1       0.3
 5 O  dz2             3.1       0.3      20.6       0.5      27.9       1.7
 5 O  dxz             1.8       0.7       0.0      24.4       2.9       0.3
 5 O  dyz             1.4       8.1      21.3       8.2      10.0       7.8
 5 O  dx2y2           1.9       0.4       4.0      18.4      12.2      11.6
 5 O  dxy             0.0       0.1      25.6       3.0       0.0      23.0
 6 C  s               0.1       0.2       0.0       0.2       0.6       0.3
 6 C  pz              0.1       0.1       0.1       0.0       0.1       0.2
 6 C  px              0.2       0.4       0.0       0.1       0.3       0.6
 6 C  py              0.0       0.0       0.5       0.0       0.1       0.0
 6 C  dz2             0.1       0.0       1.4       1.7       1.5       0.0
 6 C  dxz             2.1       1.4       2.0       0.0       0.1       2.8
 6 C  dyz             0.0       0.0       1.7       0.2       0.0       0.0
 6 C  dx2y2           0.4       0.2       3.9       0.4       2.2       0.6
 6 C  dxy             0.0       1.3       3.3       0.2       2.4       0.0
 7 C  s               0.1       0.2       0.0       0.0       0.0       0.1
 7 C  pz              0.1       0.1       0.1       0.0       0.0       0.0
 7 C  px              0.1       0.1       0.1       0.0       0.0       0.0
 7 C  dz2             0.1       0.2       0.5       0.3       0.6       0.0
 7 C  dxz             0.9       0.8       0.5       0.0       0.2       0.1
 7 C  dyz             0.2       0.0       0.6       0.0       0.0       0.0
 7 C  dx2y2           0.3       0.2       0.0       0.1       0.1       0.0
 7 C  dxy             0.1       0.0       0.0       0.1       0.0       0.0
10 H  s               0.2       0.0       0.0       0.0       0.0       0.0
16 H  s               0.1       0.1       0.0       0.0       0.1       0.0

                    132       133       134       135   
                   3.11464   3.32636   3.49195   3.55927
                   0.00000   0.00000   0.00000   0.00000
                  --------  --------  --------  --------
 2 C  s               0.0       0.2       0.1       0.0
 2 C  px              0.0       0.0       0.3       0.1
 2 C  dz2             0.0       0.1       0.3       0.0
 2 C  dxz             0.1       0.4       0.2       0.4
 2 C  dyz             0.0       0.0       0.2       0.0
 2 C  dx2y2           0.4       0.1       0.5       0.0
 2 C  dxy             0.1       0.2       0.4       0.1
 3 C  s               0.0       3.8       0.0       6.2
 3 C  pz              0.0       0.3       2.4       2.8
 3 C  px              0.0       1.3       0.5       0.3
 3 C  py              0.3       0.1       1.7       0.6
 3 C  dz2            10.2       1.0       1.8       2.8
 3 C  dxz             2.2       1.6      10.6       1.6
 3 C  dyz             3.2       1.0       0.8       7.6
 3 C  dx2y2           4.2       2.4       0.4       1.8
 3 C  dxy             0.7       0.7       5.2       0.2
 4 O  s               0.0       1.7       1.1       3.8
 4 O  pz              0.3       0.5       0.6       2.3
 4 O  px              0.1       0.1       0.3       0.4
 4 O  py              0.6       0.4       0.5       0.4
 4 O  dz2            33.1       3.0       3.6      21.3
 4 O  dxz             3.1       1.9       6.8      11.9
 4 O  dyz            14.0      12.9      13.9      14.3
 4 O  dx2y2           3.8       1.8       4.1       0.1
 4 O  dxy             5.8       0.7       0.8       3.1
 5 O  s               0.1       0.1       0.8       0.5
 5 O  pz              0.0       0.1       0.1       0.1
 5 O  px              0.0       2.1       2.6       0.2
 5 O  py              0.1       0.7       0.9       0.0
 5 O  dz2             0.1       3.8       2.9       5.1
 5 O  dxz             4.0      22.2      15.8       0.0
 5 O  dyz             0.3      11.2       4.0       0.4
 5 O  dx2y2           6.6      14.6       0.1       4.0
 5 O  dxy             5.2       0.0      13.1       6.1
 6 C  s               0.0       0.8       0.2       0.0
 6 C  pz              0.0       0.3       0.0       0.1
 6 C  px              0.0       1.5       0.3       0.1
 6 C  dz2             0.3       0.1       0.6       0.1
 6 C  dxz             0.0       4.0       0.0       0.7
 6 C  dyz             0.2       0.2       0.2       0.0
 6 C  dx2y2           0.2       1.7       0.4       0.1
 6 C  dxy             0.2       0.1       0.3       0.0
 7 C  dz2             0.0       0.0       0.1       0.0
 7 C  dxz             0.0       0.1       0.0       0.0


                      *****************************
                      * MAYER POPULATION ANALYSIS *
                      *****************************

  NA   - Mulliken gross atomic population
  ZA   - Total nuclear charge
  QA   - Mulliken gross atomic charge
  VA   - Mayer's total valence
  BVA  - Mayer's bonded valence
  FA   - Mayer's free valence

  ATOM       NA         ZA         QA         VA         BVA        FA
  0 C      6.2868     6.0000    -0.2868     4.0051     4.0051    -0.0000
  1 C      6.2164     6.0000    -0.2164     4.1716     4.1716    -0.0000
  2 C      6.1003     6.0000    -0.1003     3.9312     3.9312    -0.0000
  3 C      5.9184     6.0000     0.0816     4.4187     4.4187    -0.0000
  4 O      8.2051     8.0000    -0.2051     2.2936     2.2936     0.0000
  5 O      8.2455     8.0000    -0.2455     2.2335     2.2335    -0.0000
  6 C      6.0268     6.0000    -0.0268     4.0071     4.0071     0.0000
  7 C      6.2800     6.0000    -0.2800     4.0073     4.0073     0.0000
  8 H      0.8968     1.0000     0.1032     0.9568     0.9568    -0.0000
  9 H      0.8809     1.0000     0.1191     0.9590     0.9590    -0.0000
 10 H      0.8943     1.0000     0.1057     0.9498     0.9498    -0.0000
 11 H      0.8986     1.0000     0.1014     0.9580     0.9580     0.0000
 12 H      0.9055     1.0000     0.0945     0.9410     0.9410    -0.0000
 13 H      0.8959     1.0000     0.1041     0.9545     0.9545     0.0000
 14 H      0.9034     1.0000     0.0966     0.9752     0.9752     0.0000
 15 H      0.8980     1.0000     0.1020     0.9492     0.9492    -0.0000
 16 H      0.8862     1.0000     0.1138     0.9838     0.9838     0.0000
 17 H      0.8860     1.0000     0.1140     0.9591     0.9591     0.0000
 18 H      0.8864     1.0000     0.1136     0.9568     0.9568     0.0000
 19 H      0.8887     1.0000     0.1113     0.9549     0.9549     0.0000

  Mayer bond orders larger than 0.100000
B(  0-C ,  1-C ) :   1.1523 B(  0-C ,  8-H ) :   0.9535 B(  0-C ,  9-H ) :   0.9480 
B(  0-C , 10-H ) :   0.9514 B(  1-C ,  2-C ) :   1.1102 B(  1-C , 11-H ) :   0.9248 
B(  1-C , 12-H ) :   0.9275 B(  2-C ,  3-C ) :   1.0297 B(  2-C , 13-H ) :   0.8950 
B(  2-C , 14-H ) :   0.9105 B(  3-C ,  4-O ) :   2.0647 B(  3-C ,  5-O ) :   1.1893 
B(  5-O ,  6-C ) :   0.9133 B(  6-C ,  7-C ) :   1.1573 B(  6-C , 15-H ) :   0.9354 
B(  6-C , 16-H ) :   0.9165 B(  7-C , 17-H ) :   0.9524 B(  7-C , 18-H ) :   0.9488 
B(  7-C , 19-H ) :   0.9448 

-------
TIMINGS
-------

Total SCF time: 0 days 0 hours 0 min 8 sec 

Total time                  ....       8.219 sec
Sum of individual times     ....       7.737 sec  ( 94.1%)

SCF preparation             ....       0.164 sec  (  2.0%)
Fock matrix formation       ....       6.736 sec  ( 82.0%)
  Startup                   ....       0.056 sec  (  0.8% of F)
  Split-RI-J                ....       2.489 sec  ( 36.9% of F)
  XC integration            ....       3.712 sec  ( 55.1% of F)
    XC Preparation          ....       0.000 sec  (  0.0% of XC)
    Basis function eval.    ....       1.362 sec  ( 36.7% of XC)
    Density eval.           ....       0.467 sec  ( 12.6% of XC)
    XC-Functional eval.     ....       0.359 sec  (  9.7% of XC)
    XC-Potential eval.      ....       0.729 sec  ( 19.6% of XC)
Diagonalization             ....       0.000 sec  (  0.0%)
Density matrix formation    ....       0.184 sec  (  2.2%)
Total Energy calculation    ....       0.035 sec  (  0.4%)
Population analysis         ....       0.081 sec  (  1.0%)
Orbital Transformation      ....       0.052 sec  (  0.6%)
Orbital Orthonormalization  ....       0.000 sec  (  0.0%)
DIIS solution               ....       0.322 sec  (  3.9%)
  MO trafo                  ....       0.000 sec  (  0.0 % of DIIS)
  Orb grad                  ....       0.000 sec  (  0.0 % of DIIS)
  Energy W gradient         ....       0.000 sec  (  0.0 % of DIIS)
  DIIS error                ....       0.005 sec  (  1.7 % of DIIS)
  DIIS work                 ....       0.275 sec  ( 85.4 % of DIIS)
  Form Q                    ....       0.000 sec  (  0.0 % of DIIS)
  Form QpQm                 ....       0.000 sec  (  0.0 % of DIIS)
  Exp/Cayley                ....       0.000 sec  (  0.0 % of DIIS)
  Orb update                ....       0.000 sec  (  0.0 % of DIIS)
  Wake-sleep                ....       0.016 sec  (  5.0 % of DIIS)
SOSCF solution              ....       0.165 sec  (  2.0%)
  MO trafo                  ....       0.055 sec  ( 33.3 % of SOSCF)
  Orb grad                  ....       0.003 sec  (  1.6 % of SOSCF)
  Rot update                ....       0.069 sec  ( 41.7 % of SOSCF)
  Step                      ....       0.038 sec  ( 23.3 % of SOSCF)
Finished LeanSCF after   8.3 sec

Maximum memory used throughout the entire LEANSCF-calculation: 12.8 MB


-------------------------------------------------------------------------------
                          DFT DISPERSION CORRECTION                            
                                                                               
                                DFTD4 V3.4.0                                   
-------------------------------------------------------------------------------
The PBE functional is recognized
Active option DFTDOPT                   ...         5   

-------------------------   ----------------
Dispersion correction           -0.015010464
-------------------------   ----------------

------------------   -----------------
gCP correction             0.089983867
------------------   -----------------

-------------------------   --------------------
FINAL SINGLE POINT ENERGY      -385.456908506927
-------------------------   --------------------


------------------------------------------------------------------------------
                              ORCA PROPERTY CALCULATIONS
------------------------------------------------------------------------------

GBWName                                 ... sp.gbw
Number of atoms                         ...     20
Number of basis functions               ...    136
Max core memory                         ...   1024 MB

Electric properties:
Dipole moment                           ... YES
Quadrupole moment                       ...  NO
Static polarizability (Dipole/Dipole)   ...  NO
Static polarizability (Dipole/Quad.)    ...  NO
Static polarizability (Quad./Quad.)     ...  NO
Static polarizability (Velocity)        ...  NO

Atomic electric properties:
Dipole moment                           ...  NO
Quadrupole moment                       ...  NO
Static polarizability                   ...  NO

Choice of electric origin               ... Center of mass
Position of electric origin             ...    -0.000008    -0.000016     0.000010

General magnetic properties:
Magnetizability                         ...  NO

EPR properties:
g-Tensor (aka g-matrix)                 ...  NO
Zero-Field splitting spin-orbit         ...  NO
Zero-field splitting spin-spin          ...  NO
Hyperfine couplings                     ...  NO (   0 nuclei)
Quadrupole couplings                    ...  NO (   0 nuclei)
Contact density                         ...  NO (   0 nuclei)

NMR properties:
Chemical shifts                         ...  NO (   0 nuclei)
Spin-rotation constants                 ...  NO (   0 nuclei)
Spin-spin couplings                     ...  NO (   0 nuclei,    0 pairs)

Choice of magnetic origin               ... GIAO
Position of magnetic origin             ...     0.000000     0.000000     0.000000

Properties with geometric perturbations:
SCF Hessian                             ...  NO
IR spectrum                             ...  NO
VCD spectrum                            ...  NO
X-ray spectroscopy properties:
SCF XES/XAS/RIXS spectra                ...  NO


-------------
DIPOLE MOMENT
-------------

Method             : SCF
Type of density    : Electron Density
Multiplicity       :   1
Irrep              :   0
Energy             :  -385.5318819103307533 Eh
Relativity type    : 
Basis              : AO
                                X                 Y                 Z
Electronic contribution:      1.512151669       4.275624494      -1.812170554
Nuclear contribution   :     -1.291902751      -4.799305591       2.408725664
                        -----------------------------------------
Total Dipole Moment    :      0.220248919      -0.523681097       0.596555110
                        -----------------------------------------
Magnitude (a.u.)       :      0.823789704
Magnitude (Debye)      :      2.093907023



--------------------
Rotational spectrum 
--------------------
 
Rotational constants in cm-1:             0.120024             0.036222             0.033163 
Rotational constants in MHz :          3598.230261          1085.914486           994.192548 

Dipole components along the rotational axes: 
x,y,z [a.u.] :     0.259358    -0.771524     0.126937 
x,y,z [Debye]:     0.659237    -1.961059     0.322647 

 

Dipole moment calculation done in   0.0 sec 

Maximum memory used throughout the entire PROP-calculation: 8.0 MB

--------------------------------
SUGGESTED CITATIONS FOR THIS RUN
--------------------------------

Below you find a list of papers that are relevant to this ORCA run
We neither can nor want to force you to cite these papers, but we appreciate if you do
You receive ORCA, which is the product of decades of hard work by many enthusiastic individuals, for free
The only thing we kindly ask in return is that you cite our papers,
We deeply appreciate it, if you show your appreciation for ORCA by not just citing the generic ORCA reference.

Please note that relegating all ORCA citations to the supporting information does *not* help us.
SI sections are not indexed - citations you put there will not count into any citation statistics
But we need these citations in order to attract the funding resources that allow us to do what we are doing

Therefore, if you are a happy ORCA user, please consider citing a few of the papers listed below in the main body of your paper

In addition to the list printed below, the program has created the file sp.bibtex that contains the list in bibtex format
You can import this file easily into all common literature databanks and citation aid programs


List of essential papers. We consider these as the minimum necessary citations

  1. Neese,F.
     Software update: the ORCA program system, version 5.0
     WIRES Comput. Molec. Sci., 2022 12(1)e1606
     doi.org/10.1002/wcms.1606

List of papers to cite with high priority. The work reported in these papers was absolutely
necessary for this run to complete.
Our perspective: the developers of density functionals and basis sets usually get cited in chemistry papers
Good! But without the algorithms to do something with them, the functionals or basis sets would not do anything.
Hence, in our opinion, the algorithm design and method developments papers are equally worthy of getting cited

  1. Neese,F.
     An improvement of the resolution of the identity approximation for the formation of the Coulomb matrix
     J. Comp. Chem., 2003 24(14)1740-1747
     doi.org/10.1002/jcc.10318
  2. Neese,F.
     The SHARK Integral Generation and Digestion System
     J. Comp. Chem., 2022  1-16
     doi.org/10.1002/jcc.26942
  3. Caldeweyher,E.; Bannwarth,C.; Grimme,S.
     Extension of the D3 dispersion coefficient model
     J. Chem. Phys., 2017 147 034112-XXXX
     doi.org/10.1063/1.4993215
  4. Caldeweyher,E.; Ehlert,S.; Hansen,A.; Neugebauer,H.; Spicher,S.; Bannwarth,C.; Grimme,S.
     A generally applicable atomic-charge dependent London dispersion correction
     J. Chem. Phys., 2019 150 154122-XXXX
     doi.org/10.1063/1.5090222
  5. Caldeweyher,E.; Mewes,J.; Ehlert,S.; Grimme,S.
     Extension and evaluation of the D4 London-dispersion model for periodic systems
     Phys. Chem. Chem. Phys., 2020 22(16)8499-8512
     doi.org/10.1039/D0CP00502A

List of suggested additional citations. These are papers that are important in the 'surrounding' of 
of this run, or papers that preceded the highly important papers. If you like your results we are grateful for a citation.

  1. Neese,F.
     The ORCA program system
     WIRES Comput. Molec. Sci., 2012 2(1)73-78
     doi.org/10.1002/wcms.81
  2. Neese,F.
     Software update: the ORCA program system, version 4.0
     WIRES Comput. Molec. Sci., 2018 8(1)1-6
     doi.org/10.1002/wcms.1327
  3. Neese,F.; Wennmohs,F.; Becker,U.; Riplinger,C.
     The ORCA quantum chemistry program package
     J. Chem. Phys., 2020 152 Art. No. L224108
     doi.org/10.1063/5.0004608

List of optional additional citations

  1. Neese,F.
     Approximate second-order SCF convergence for spin unrestricted wavefunctions
     Chem. Phys. Lett., 2000 325(1-3)93-98
     doi.org/10.1016/s0009-2614(00)00662-x

Timings for individual modules:

Sum of individual times          ...       10.022 sec (=   0.167 min)
Startup calculation              ...        0.755 sec (=   0.013 min)   7.5 %
SCF iterations                   ...        9.160 sec (=   0.153 min)  91.4 %
Property calculations            ...        0.107 sec (=   0.002 min)   1.1 %
                             ****ORCA TERMINATED NORMALLY****
TOTAL RUN TIME: 0 days 0 hours 0 minutes 10 seconds 733 msec
