
                                 *****************
                                 * O   R   C   A *
                                 *****************

                                            #,                                       
                                            ###                                      
                                            ####                                     
                                            #####                                    
                                            ######                                   
                                           ########,                                 
                                     ,,################,,,,,                         
                               ,,#################################,,                 
                          ,,##########################################,,             
                       ,#########################################, ''#####,          
                    ,#############################################,,   '####,        
                  ,##################################################,,,,####,       
                ,###########''''           ''''###############################       
              ,#####''   ,,,,##########,,,,          '''####'''          '####       
            ,##' ,,,,###########################,,,                        '##       
           ' ,,###''''                  '''############,,,                           
         ,,##''                                '''############,,,,        ,,,,,,###''
      ,#''                                            '''#######################'''  
     '                                                          ''''####''''         
             ,#######,   #######,   ,#######,      ##                                
            ,#'     '#,  ##    ##  ,#'     '#,    #''#        ,####,   ,####,        
            ##       ##  ##   ,#'  ##            #'  '#       #'       #'  '#        
            ##       ##  #######   ##           ,######,      #####,   #    #        
            '#,     ,#'  ##    ##  '#,     ,#' ,#      #,     #,   #   #,  ,#        
             '#######'   ##     ##  '#######'  #'      '#     '####' # '####'        



                #########################################################
                #                        -***-                          #
                #          Department of theory and spectroscopy        #
                #                                                       #
                #                      Frank Neese                      #
                #                                                       #
                #     Directorship, Architecture, Infrastructure        #
                #                    SHARK, DRIVERS                     #
                #        Core code/Algorithms in most modules           #
                #                                                       #
                #        Max Planck Institute fuer Kohlenforschung      #
                #                Kaiser Wilhelm Platz 1                 #
                #                 D-45470 Muelheim/Ruhr                 #
                #                      Germany                          #
                #                                                       #
                #                  All rights reserved                  #
                #                        -***-                          #
                #########################################################


                         Program Version 6.0.0  -   RELEASE  -


 With contributions from (in alphabetic order):
   Daniel Aravena         : Magnetic Suceptibility
   Michael Atanasov       : Ab Initio Ligand Field Theory (pilot matlab implementation)
   Alexander A. Auer      : GIAO ZORA, VPT2 properties, NMR spectrum
   Ute Becker             : All parallelization in ORCA, NUMFREQ, NUMCALC
   Giovanni Bistoni       : ED, misc. LED, open-shell LED, HFLD
   Martin Brehm           : Molecular dynamics
   Dmytro Bykov           : pre 5.0 version of the SCF Hessian
   Marcos Casanova-Páez   : Triplet and SCS-CIS(D). UHF-(DLPNO)-IP/EA/STEOM-CCSD. UHF-CVS-IP/STEOM-CCSD
   Vijay G. Chilkuri      : MRCI spin determinant printing, contributions to CSF-ICE
   Pauline Colinet        : FMM embedding
   Dipayan Datta          : RHF DLPNO-CCSD density
   Achintya Kumar Dutta   : EOM-CC, STEOM-CC
   Nicolas Foglia         : Exact transition moments, OPA infrastructure, MCD improvements
   Dmitry Ganyushin       : Spin-Orbit,Spin-Spin,Magnetic field MRCI
   Miquel Garcia          : C-PCM and meta-GGA Hessian, CCSD/C-PCM, Gaussian charge scheme
   Tiago L. C. Gouveia    : GS-ROHF, GS-ROCIS
   Yang Guo               : DLPNO-NEVPT2, F12-NEVPT2, CIM, IAO-localization
   Andreas Hansen         : Spin unrestricted coupled pair/coupled cluster methods
   Ingolf Harden          : AUTO-CI MPn and infrastructure 
   Benjamin Helmich-Paris : MC-RPA, TRAH-(SCF,CASSCF), AVAS, COSX integrals, SCF dyn. polar.
   Lee Huntington         : MR-EOM, pCC
   Robert Izsak           : Overlap fitted RIJCOSX, COSX-SCS-MP3, EOM
   Riya Kayal             : Wick's Theorem for AUTO-CI, AUTO-CI UHF-CCSDT
   Emily Kempfer          : AUTO-CI, RHF CISDT and CCSDT
   Christian Kollmar      : KDIIS, OOCD, Brueckner-CCSD(T), CCSD density, CASPT2, CASPT2-K, improved NEVPT2
   Axel Koslowski         : Symmetry handling
   Simone Kossmann        : Meta GGA functionals, TD-DFT gradient, OOMP2, (MP2 Hessian; deprecated post 5.0)
   Lucas Lang             : DCDCAS
   Marvin Lechner         : AUTO-CI (C++ implementation), FIC-MRCC
   Spencer Leger          : CASSCF response
   Dagmar Lenk            : GEPOL surface, SMD, ORCA-2-JSON
   Dimitrios Liakos       : Extrapolation schemes; Compound Job, initial MDCI parallelization
   Dimitrios Manganas     : Further ROCIS development; embedding schemes. LFT, Crystal Embedding
   Dimitrios Pantazis     : SARC Basis sets
   Anastasios Papadopoulos: AUTO-CI, single reference methods and gradients
   Taras Petrenko         : pre 6.0 DFT Hessian and TD-DFT gradient, (ASA, deprecated), ECA, 1-Electron XAS/XES, NRVS
   Peter Pinski           : DLPNO-MP2, DLPNO-MP2 Gradient
   Christoph Reimann      : Effective Core Potentials
   Marius Retegan         : Local ZFS, SOC
   Christoph Riplinger    : Optimizer, TS searches, QM/MM, DLPNO-CCSD(T), (RO)-DLPNO pert. Triples
   Michael Roemelt        : Original ROCIS implementation
   Masaaki Saitow         : Open-shell DLPNO-CCSD energy and density
   Barbara Sandhoefer     : DKH picture change effects
   Kantharuban Sivalingam : CASSCF convergence/infrastructure, NEVPT2 and variants, FIC-MRCI
   Bernardo de Souza      : ESD, SOC TD-DFT
   Georgi Stoychev        : AutoAux, RI-MP2 NMR, DLPNO-MP2 response, X2C
   Van Anh Tran           : RI-MP2 g-tensors
   Willem Van den Heuvel  : Paramagnetic NMR
   Zikuan Wang            : NOTCH, Electric field optimization 
   Frank Wennmohs         : Technical directorship and infrastructure
   Hang Xu                : AUTO-CI-Response properties 


 We gratefully acknowledge several colleagues who have allowed us to
 interface, adapt or use parts of their codes:
   Stefan Grimme, W. Hujo, H. Kruse, P. Pracht,  : VdW corrections, initial TS optimization,
                  C. Bannwarth, S. Ehlert,         DFT functionals, gCP, sTDA/sTD-DF
                  L. Wittmann, M. Mueller
   Ed Valeev, F. Pavosevic, A. Kumar             : LibInt (2-el integral package), F12 methods
   Garnet Chan, S. Sharma, J. Yang, R. Olivares  : DMRG
   Ulf Ekstrom                                   : XCFun DFT Library
   Mihaly Kallay                                 : mrcc  (arbitrary order and MRCC methods)
   Frank Weinhold                                : gennbo (NPA and NBO analysis)
   Simon Mueller                                 : openCOSMO-RS
   Christopher J. Cramer and Donald G. Truhlar   : smd solvation model
   Lars Goerigk                                  : TD-DFT with DH, B97 family of functionals
   V. Asgeirsson, H. Jonsson                     : NEB implementation
   FAccTs GmbH                                   : IRC, NEB, NEB-TS, DLPNO-Multilevel, CI-OPT
                                                   MM, QMMM, 2- and 3-layer-ONIOM, Crystal-QMMM,
                                                   LR-CPCM, SF, NACMEs, symmetry and pop. for TD-DFT,
                                                   nearIR, NL-DFT gradient (VV10), updates on ESD,
                                                   ML-optimized integration grids, MBIS, APM,
                                                   GOAT, DOCKER, SOLVATOR, interface openCOSMO-RS
   S Lehtola, MJT Oliveira, MAL Marques          : LibXC Library
   Liviu Ungur et al                             : ANISO software


 Your calculation uses the libint2 library for the computation of 2-el integrals
 For citations please refer to: http://libint.valeyev.net

 Your ORCA version has been built with support for libXC version: 6.2.2
 For citations please refer to: https://libxc.gitlab.io

 This ORCA versions uses:
   CBLAS   interface :  Fast vector & matrix operations
   LAPACKE interface :  Fast linear algebra routines
   SCALAPACK package :  Parallel linear algebra routines
   Shared memory     :  Shared parallel matrices
   BLAS/LAPACK       :  OpenBLAS 0.3.27  USE64BITINT DYNAMIC_ARCH NO_AFFINITY SkylakeX SINGLE_THREADED
        Core in use  :  SkylakeX
   Copyright (c) 2011-2014, The OpenBLAS Project


Your calculation utilizes the geometrical counterpoise correction gCP
Please cite in your paper:
H.Kruse, S. Grimme J.Chem.Phys., 136, (2012), 154101 
   

Your calculation utilizes the atom-pairwise dispersion correction
based on EEQ partial charges (D4)


Your calculation utilizes the SMD solvation module
Please cite in your paper:
A.V. Marenich, C.J. Cramer, D.G. Truhlar J. Phys. Chem. B, 113, (2009), 6378 

================================================================================

----- Orbital basis set information -----
Your calculation utilizes the basis: def2-mTZVPP
   Stefan Grimme, Andreas Hansen, Sebastian Ehlert, and Jan-Michael Mewes 
   J. Chem. Phys. 154, 064103 (2021). DOI: 10.1063/5.0040021

----- AuxJ basis set information -----
Your calculation utilizes the auxiliary basis: def2/J
   F. Weigend, Phys. Chem. Chem. Phys. 8, 1057 (2006).

================================================================================
                                        WARNINGS
                       Please study these warnings very carefully!
================================================================================

Using LibXC functional ID 497 : Re-regularized SCAN exchange by Furness et al
[ 1]  J. W. Furness, A. D. Kaplan, J. Ning, J. P. Perdew, and J. Sun.,  J. Phys. Chem. Lett. 11, 8208-8215 (2020)
[ 2]  J. W. Furness, A. D. Kaplan, J. Ning, J. P. Perdew, and J. Sun.,  J. Phys. Chem. Lett. 11, 9248-9248 (2020)
Using LibXC functional ID 498 : Re-regularized SCAN correlation by Furness et al
[ 1]  J. W. Furness, A. D. Kaplan, J. Ning, J. P. Perdew, and J. Sun.,  J. Phys. Chem. Lett. 11, 8208-8215 (2020)
[ 2]  J. W. Furness, A. D. Kaplan, J. Ning, J. P. Perdew, and J. Sun.,  J. Phys. Chem. Lett. 11, 9248-9248 (2020)
Using LibXC functional ID 497 : Re-regularized SCAN exchange by Furness et al
[ 1]  J. W. Furness, A. D. Kaplan, J. Ning, J. P. Perdew, and J. Sun.,  J. Phys. Chem. Lett. 11, 8208-8215 (2020)
[ 2]  J. W. Furness, A. D. Kaplan, J. Ning, J. P. Perdew, and J. Sun.,  J. Phys. Chem. Lett. 11, 9248-9248 (2020)
Using LibXC functional ID 498 : Re-regularized SCAN correlation by Furness et al
[ 1]  J. W. Furness, A. D. Kaplan, J. Ning, J. P. Perdew, and J. Sun.,  J. Phys. Chem. Lett. 11, 8208-8215 (2020)
[ 2]  J. W. Furness, A. D. Kaplan, J. Ning, J. P. Perdew, and J. Sun.,  J. Phys. Chem. Lett. 11, 9248-9248 (2020)

================================================================================
                                       INPUT FILE
================================================================================
NAME = sp_solv.inp
|  1> ! r2scan-3c def2/J RI DEFGRID2 scfconv6 printgap
|  2> %output
|  3>     printlevel normal
|  4> end
|  5> %cpcm
|  6>     smd true
|  7>     smdsolvent "water"
|  8> end
|  9> * xyz 0 1
| 10> C -3.3003233586 -0.868159885 0.2743664557
| 11> C -1.8981749435 -0.600125552 -0.2589633022
| 12> C -1.5042850572 0.8662149425 -0.0933898648
| 13> C -0.1157379181 1.1529996859 -0.6726108527
| 14> C 0.9508995536 0.4335621643 0.1107214022
| 15> O 1.0997353381 0.4992862376 1.3128792549
| 16> O 1.7346315284 -0.2927018797 -0.6795674172
| 17> C 2.8041914634 -1.0229825463 -0.0728504529
| 18> H -4.0306210889 -0.2645247663 -0.2589869085
| 19> H -3.5618915479 -1.9158094727 0.1506837762
| 20> H -3.357338287 -0.6215853188 1.3320310362
| 21> H -1.1795053389 -1.2268724539 0.275682287
| 22> H -1.8525531444 -0.870190165 -1.3161553594
| 23> H -1.5011686073 1.123978624 0.9676655629
| 24> H -2.2358724412 1.4981508613 -0.5981301871
| 25> H 0.0914780619 2.2220966402 -0.6012389671
| 26> H -0.0516246003 0.8419818958 -1.7146079664
| 27> H 3.4553580598 -1.324808972 -0.8870930659
| 28> H 2.406320199 -1.8938229578 0.4491021358
| 29> H 3.3311518578 -0.389219061 0.6413194613
| 30> *
| 31> 
| 32>                          ****END OF INPUT****
================================================================================

                       ****************************
                       * Single Point Calculation *
                       ****************************

---------------------------------
CARTESIAN COORDINATES (ANGSTROEM)
---------------------------------
  C     -3.300323   -0.868160    0.274366
  C     -1.898175   -0.600126   -0.258963
  C     -1.504285    0.866215   -0.093390
  C     -0.115738    1.153000   -0.672611
  C      0.950900    0.433562    0.110721
  O      1.099735    0.499286    1.312879
  O      1.734632   -0.292702   -0.679567
  C      2.804191   -1.022983   -0.072850
  H     -4.030621   -0.264525   -0.258987
  H     -3.561892   -1.915809    0.150684
  H     -3.357338   -0.621585    1.332031
  H     -1.179505   -1.226872    0.275682
  H     -1.852553   -0.870190   -1.316155
  H     -1.501169    1.123979    0.967666
  H     -2.235872    1.498151   -0.598130
  H      0.091478    2.222097   -0.601239
  H     -0.051625    0.841982   -1.714608
  H      3.455358   -1.324809   -0.887093
  H      2.406320   -1.893823    0.449102
  H      3.331152   -0.389219    0.641319

----------------------------
CARTESIAN COORDINATES (A.U.)
----------------------------
  NO LB      ZA    FRAG     MASS         X           Y           Z
   0 C     6.0000    0    12.011   -6.236707   -1.640584    0.518477
   1 C     6.0000    0    12.011   -3.587031   -1.134073   -0.489370
   2 C     6.0000    0    12.011   -2.842687    1.636909   -0.176481
   3 C     6.0000    0    12.011   -0.218713    2.178854   -1.271050
   4 C     6.0000    0    12.011    1.796940    0.819314    0.209233
   5 O     8.0000    0    15.999    2.078199    0.943514    2.480982
   6 O     8.0000    0    15.999    3.277979   -0.553126   -1.284196
   7 C     6.0000    0    12.011    5.299154   -1.933157   -0.137667
   8 H     1.0000    0     1.008   -7.616770   -0.499879   -0.489414
   9 H     1.0000    0     1.008   -6.731000   -3.620355    0.284751
  10 H     1.0000    0     1.008   -6.344450   -1.174626    2.517174
  11 H     1.0000    0     1.008   -2.228942   -2.318453    0.520964
  12 H     1.0000    0     1.008   -3.500818   -1.644421   -2.487173
  13 H     1.0000    0     1.008   -2.836798    2.124012    1.828623
  14 H     1.0000    0     1.008   -4.225187    2.831095   -1.130302
  15 H     1.0000    0     1.008    0.172868    4.199154   -1.136177
  16 H     1.0000    0     1.008   -0.097556    1.591115   -3.240139
  17 H     1.0000    0     1.008    6.529680   -2.503526   -1.676363
  18 H     1.0000    0     1.008    4.547286   -3.578807    0.848680
  19 H     1.0000    0     1.008    6.294965   -0.735517    1.211918

--------------------------------
INTERNAL COORDINATES (ANGSTROEM)
--------------------------------
 C      0   0   0     0.000000000000     0.00000000     0.00000000
 C      1   0   0     1.523910500094     0.00000000     0.00000000
 C      2   1   0     1.527323885596   111.60542061     0.00000000
 C      3   2   1     1.531602298044   111.87472446   182.03168487
 C      4   3   2     1.506291892392   110.84740799   293.95705526
 O      5   4   3     1.213117985757   125.19378668   306.89569260
 O      5   4   3     1.329004021062   111.67586936   127.25656662
 C      7   5   4     1.430165648216   117.89150707   179.39669034
 H      1   2   3     1.087279146546   110.40675199    60.05271688
 H      1   2   3     1.086869348850   110.55741277   180.15353226
 H      1   2   3     1.087521992238   110.40934332   300.17513608
 H      2   1   3     1.093226228037   109.44288154   120.91438291
 H      2   1   3     1.092094908675   109.49540661   238.76548821
 H      3   2   1     1.091920532096   109.43383838    61.49349901
 H      3   2   1     1.090562193941   109.45965049   302.88773446
 H      4   3   2     1.091329787972   109.31963186   175.72607118
 H      4   3   2     1.089311970116   111.20162094    54.90863982
 H      8   7   5     1.085406910031   105.80771391   194.20627922
 H      8   7   5     1.090458192774   109.75370867    74.55760141
 H      8   7   5     1.090587951022   110.02476145   314.51712133

---------------------------
INTERNAL COORDINATES (A.U.)
---------------------------
 C      0   0   0     0.000000000000     0.00000000     0.00000000
 C      1   0   0     2.879773497784     0.00000000     0.00000000
 C      2   1   0     2.886223861573   111.60542061     0.00000000
 C      3   2   1     2.894308889388   111.87472446   182.03168487
 C      4   3   2     2.846479154368   110.84740799   293.95705526
 O      5   4   3     2.292460761215   125.19378668   306.89569260
 O      5   4   3     2.511453630688   111.67586936   127.25656662
 C      7   5   4     2.702621401270   117.89150707   179.39669034
 H      1   2   3     2.054659818095   110.40675199    60.05271688
 H      1   2   3     2.053885412680   110.55741277   180.15353226
 H      1   2   3     2.055118729946   110.40934332   300.17513608
 H      2   1   3     2.065898173410   109.44288154   120.91438291
 H      2   1   3     2.063760289646   109.49540661   238.76548821
 H      3   2   1     2.063430765666   109.43383838    61.49349901
 H      3   2   1     2.060863878557   109.45965049   302.88773446
 H      4   3   2     2.062314421057   109.31963186   175.72607118
 H      4   3   2     2.058501297921   111.20162094    54.90863982
 H      8   7   5     2.051121803824   105.80771391   194.20627922
 H      8   7   5     2.060667344833   109.75370867    74.55760141
 H      8   7   5     2.060912552386   110.02476145   314.51712133

---------------------
BASIS SET INFORMATION
---------------------
There are 3 groups of distinct atoms

 Group   1 Type C   : 11s6p1d contracted to 5s3p1d pattern {62111/411/1}
 Group   2 Type O   : 11s6p2d contracted to 5s3p2d pattern {62111/411/11}
 Group   3 Type H   : 4s1p contracted to 2s1p pattern {31/1}

Atom   0C    basis set group =>   1
Atom   1C    basis set group =>   1
Atom   2C    basis set group =>   1
Atom   3C    basis set group =>   1
Atom   4C    basis set group =>   1
Atom   5O    basis set group =>   2
Atom   6O    basis set group =>   2
Atom   7C    basis set group =>   1
Atom   8H    basis set group =>   3
Atom   9H    basis set group =>   3
Atom  10H    basis set group =>   3
Atom  11H    basis set group =>   3
Atom  12H    basis set group =>   3
Atom  13H    basis set group =>   3
Atom  14H    basis set group =>   3
Atom  15H    basis set group =>   3
Atom  16H    basis set group =>   3
Atom  17H    basis set group =>   3
Atom  18H    basis set group =>   3
Atom  19H    basis set group =>   3
---------------------------------
AUXILIARY/J BASIS SET INFORMATION
---------------------------------
There are 3 groups of distinct atoms

 Group   1 Type C   : 12s5p4d2f1g contracted to 6s4p3d1f1g pattern {711111/2111/211/2/1}
 Group   2 Type O   : 12s5p4d2f1g contracted to 6s4p3d1f1g pattern {711111/2111/211/2/1}
 Group   3 Type H   : 5s2p1d contracted to 3s1p1d pattern {311/2/1}

Atom   0C    basis set group =>   1
Atom   1C    basis set group =>   1
Atom   2C    basis set group =>   1
Atom   3C    basis set group =>   1
Atom   4C    basis set group =>   1
Atom   5O    basis set group =>   2
Atom   6O    basis set group =>   2
Atom   7C    basis set group =>   1
Atom   8H    basis set group =>   3
Atom   9H    basis set group =>   3
Atom  10H    basis set group =>   3
Atom  11H    basis set group =>   3
Atom  12H    basis set group =>   3
Atom  13H    basis set group =>   3
Atom  14H    basis set group =>   3
Atom  15H    basis set group =>   3
Atom  16H    basis set group =>   3
Atom  17H    basis set group =>   3
Atom  18H    basis set group =>   3
Atom  19H    basis set group =>   3

Checking for AutoStart:
The File: sp_solv.gbw exists
Trying to determine its content:
     ... Fine, the file contains calculation information
     ... Fine, the calculation information was read
     ... Fine, the file contains a basis set
     ... Fine, the basis set was read
     ... Fine, the file contains a geometry
     ... Fine, the geometry was read
     ... Fine, the file contains a set of orbitals
     ... Fine, the orbitals can be read
     => possible old guess file was deleted
     => GBW file was renamed to GES file
     => GES file is set as startup file
     => Guess is set to MORead
     ... now leaving AutoStart

------------------------------------------------------------------------------
                             ORCA STARTUP CALCULATIONS
                           -- RI-GTO INTEGRALS CHOSEN --
------------------------------------------------------------------------------
------------------------------------------------------------------------------
                   ___                                                        
                  /   \      - P O W E R E D   B Y -                         
                 /     \                                                     
                 |  |  |   _    _      __       _____    __    __             
                 |  |  |  | |  | |    /  \     |  _  \  |  |  /  |          
                  \  \/   | |  | |   /    \    | | | |  |  | /  /          
                 / \  \   | |__| |  /  /\  \   | |_| |  |  |/  /          
                |  |  |   |  __  | /  /__\  \  |    /   |      \           
                |  |  |   | |  | | |   __   |  |    \   |  |\   \          
                \     /   | |  | | |  |  |  |  | |\  \  |  | \   \       
                 \___/    |_|  |_| |__|  |__|  |_| \__\ |__|  \__/        
                                                                              
                      - O R C A' S   B I G   F R I E N D -                    
                                      &                                       
                       - I N T E G R A L  F E E D E R -                       
                                                                              
 v1 FN, 2020, v2 2021, v3 2022-2024                                           
------------------------------------------------------------------------------


----------------------
SHARK INTEGRAL PACKAGE
----------------------

Number of atoms                             ...     20
Number of basis functions                   ...    222
Number of shells                            ...    110
Maximum angular momentum                    ...      2
Integral batch strategy                     ... SHARK/LIBINT Hybrid
RI-J (if used) integral strategy            ... SPLIT-RIJ (Revised 2003 algorithm where possible)
Printlevel                                  ...      1
Contraction scheme used                     ... SEGMENTED contraction
Prescreening option                         ... SCHWARTZ
   Thresh                                   ... 1.000e-10
   Tcut                                     ... 1.000e-11
   Tpresel                                  ... 1.000e-11 
Coulomb Range Separation                    ... NOT USED
Exchange Range Separation                   ... NOT USED
Multipole approximations                    ... NOT USED
Finite Nucleus Model                        ... NOT USED
CABS basis                                  ... NOT available
Auxiliary Coulomb fitting basis             ... AVAILABLE
   # of basis functions in Aux-J            ...    524
   # of shells in Aux-J                     ...    180
   Maximum angular momentum in Aux-J        ...      4
Auxiliary J/K fitting basis                 ... NOT available
Auxiliary Correlation fitting basis         ... NOT available
Auxiliary 'external' fitting basis          ... NOT available

Checking pre-screening integrals            ... done (  0.0 sec) Dimension = 110
Check shell pair data                       ... done (  0.0 sec)
Shell pair information
Shell pair cut-off parameter TPreSel        ...   1.0e-11
Total number of shell pairs                 ...      6105
Shell pairs after pre-screening             ...      5287
Total number of primitive shell pairs       ...     21533
Primitive shell pairs kept                  ...     13243
          la=0 lb=0:   1772 shell pairs
          la=1 lb=0:   1995 shell pairs
          la=1 lb=1:    583 shell pairs
          la=2 lb=0:    565 shell pairs
          la=2 lb=1:    321 shell pairs
          la=2 lb=2:     51 shell pairs

Calculating one electron integrals          ... done (  0.0 sec)
Calculating RI/J V-Matrix + Cholesky decomp.... done (  0.1 sec)
Calculating Nuclear repulsion               ... done (  0.0 sec) ENN=    391.225782744003 Eh

Diagonalization of the overlap matrix:
Smallest eigenvalue                        ... 1.420e-04
Time for diagonalization                   ...    0.005 sec
Threshold for overlap eigenvalues          ... 1.000e-07
Number of eigenvalues below threshold      ... 0
Time for construction of square roots      ...    0.016 sec
Total time needed                          ...    0.030 sec

-------------------
DFT GRID GENERATION
-------------------

General Integration Accuracy     IntAcc      ... 4.388
Radial Grid Type                 RadialGrid  ... OptM3 with GC (2021)
Angular Grid (max. ang.)         AngularGrid ... 4 (Lebedev-302)
Angular grid pruning method      GridPruning ... 4 (adaptive)
Weight generation scheme         WeightScheme... mBecke (2022)
Basis function cutoff            BFCut       ... 1.0000e-10
Integration weight cutoff        WCut        ... 1.0000e-14
Partially contracted basis set               ... off
Rotationally invariant grid construction     ... off
Angular grids for H and He will be reduced by one unit
Diffuse basis detected: some atoms will have their outermost
                        angular grid increased by 1.

Total number of grid points                  ...    87353
Total number of batches                      ...     1374
Average number of points per batch           ...       63
Average number of grid points per atom       ...     4368
Initializing property integral containers    ... done (  0.0 sec)

SHARK setup successfully completed in   1.2 seconds

Maximum memory used throughout the entire STARTUP-calculation: 39.3 MB
-------------------------------------------------------------------------------
                                 ORCA GUESS
                   Start orbitals & Density for SCF / CASSCF
-------------------------------------------------------------------------------

------------
SCF SETTINGS
------------
Hamiltonian:
 Density Functional     Method          .... DFT(GTOs)
  Functional kind                       .... Exchange
  Functional name                       .... Re-regularized SCAN exchange by Furness et al
  Functional family                     .... MGGA
  Functional refs                              
    [ 0] J. W. Furness, A. D. Kaplan, J. Ning, J. P. Perdew, and J. Sun.,  J. Phys. Chem. Lett. 11, 8208-8215 (2020), doi: 10.1021/acs.jpclett.0c02405
    [ 1] J. W. Furness, A. D. Kaplan, J. Ning, J. P. Perdew, and J. Sun.,  J. Phys. Chem. Lett. 11, 9248-9248 (2020), doi: 10.1021/acs.jpclett.0c03077
  Functional external parameters        .... 6
    Parameter  0 _c1        =  6.670000e-01 : c1 parameter        
    Parameter  1 _c2        =  8.000000e-01 : c2 parameter        
    Parameter  2 _d         =  1.240000e+00 : d parameter         
    Parameter  3 _k1        =  6.500000e-02 : k1 parameter        
    Parameter  4 _eta       =  1.000000e-03 : eta parameter       
    Parameter  5 _dp2       =  3.610000e-01 : dp2 parameter       
  Functional kind                       .... Correlation
  Functional name                       .... Re-regularized SCAN correlation by Furness et al
  Functional family                     .... MGGA
  Functional refs                              
    [ 0] J. W. Furness, A. D. Kaplan, J. Ning, J. P. Perdew, and J. Sun.,  J. Phys. Chem. Lett. 11, 8208-8215 (2020), doi: 10.1021/acs.jpclett.0c02405
    [ 1] J. W. Furness, A. D. Kaplan, J. Ning, J. P. Perdew, and J. Sun.,  J. Phys. Chem. Lett. 11, 9248-9248 (2020), doi: 10.1021/acs.jpclett.0c03077
  Functional external parameters        .... 1
    Parameter  0 _eta       =  1.000000e-03 : Regularization parameter
 Gradients option       PostSCFGGA      .... off
 RI-approximation to the Coulomb term is turned on
   Number of AuxJ basis functions       .... 524


General Settings:
 Integral files         IntName         .... sp_solv
 Hartree-Fock type      HFTyp           .... RHF
 Total Charge           Charge          ....    0
 Multiplicity           Mult            ....    1
 Number of Electrons    NEL             ....   64
 Basis Dimension        Dim             ....  222
 Nuclear Repulsion      ENuc            ....    391.2257827440 Eh

Convergence Acceleration:
 AO-DIIS                CNVDIIS         .... on
   Start iteration      DIISMaxIt       ....    12
   Startup error        DIISStart       ....  0.200000
   # of expansion vecs  DIISMaxEq       ....     5
   Bias factor          DIISBfac        ....   1.050
   Max. coefficient     DIISMaxC        ....  10.000
 MO-DIIS                CNVKDIIS        .... off
 Trust-Rad. Augm. Hess. CNVTRAH         .... auto
   Auto Start mean grad. ratio tolernc. ....  1.125000
   Auto Start start iteration           ....     1
   Auto Start num. interpolation iter.  ....    10
   Max. Number of Micro iterations      ....    24
   Max. Number of Macro iterations      .... Maxiter - #DIIS iter
   Number of Davidson start vectors     ....     2
   Converg. threshold    (grad. norm)   ....   3.330e-04
   Grad. Scal. Fac. for Micro threshold ....   0.100
   Minimum threshold for Micro iter.    ....   1.000e-02
   NR start threshold (gradient norm)   ....   1.000e-04
   Initial trust radius                 ....   0.400
   Minimum AH scaling param. (alpha)    ....   1.000
   Maximum AH scaling param. (alpha)    .... 1000.000
   Quad. conv. algorithm                .... NR
   White noise on init. David. guess    .... on
   Maximum white noise                  ....   0.010
   Pseudo random numbers                .... off
   Inactive MOs                         .... canonical
   Orbital update algorithm             .... Taylor
   Preconditioner                       .... Diag
   Full preconditioner red. dimension   ....   250
   COSX micro iterations for RIJONX calc.... off
 SOSCF                  CNVSOSCF        .... on
   Start iteration      SOSCFMaxIt      ....   150
   Startup grad/error   SOSCFStart      ....  0.003300
   Hessian update       SOSCFHessUp     .... L-BFGS
 Level Shifting         CNVShift        .... on
   Level shift para.    LevelShift      ....    0.2500
   Turn off err/grad.   ShiftErr        ....    0.0010
 Zerner damping         CNVZerner       .... off
 Static damping         CNVDamp         .... on
   Fraction old density DampFac         ....    0.7000
   Max. Damping (<1)    DampMax         ....    0.9800
   Min. Damping (>=0)   DampMin         ....    0.0000
   Turn off err/grad.   DampErr         ....    0.1000

SCF Procedure:
 Maximum # iterations   MaxIter         ....   125
 SCF integral mode      SCFMode         .... Direct
   Integral package                     .... SHARK and LIBINT hybrid scheme
 Reset frequency        DirectResetFreq ....    20
 Integral Threshold     Thresh          ....  1.000e-10 Eh
 Primitive CutOff       TCut            ....  1.000e-11 Eh

Convergence Tolerance:
 Convergence Check Mode ConvCheckMode   .... Total+1el-Energy
 Convergence forced     ConvForced      .... 0
 Energy Change          TolE            ....  1.000e-06 Eh
 1-El. energy change                    ....  1.000e-03 Eh
 Orbital Gradient       TolG            ....  3.330e-04
 Orbital Rotation angle TolX            ....  3.330e-04
 DIIS Error             TolErr          ....  1.000e-06

---------------------
INITIAL GUESS: MOREAD
---------------------
Guess MOs are being read from file: sp_solv.ges
Input Geometry matches current geometry (good)
Atom 0: N(Shells)= 9 and 6 - projection required
Input basis set needs projection
NBasis(read)= 136
NBasis(calc)= 222
Basis set overlap was calculated
Using GuessMode=FMatrix for the initial guess
C*T matrix was formed
Effective Fockian was calculated
Effective Fockian was diagonalized
Initial density was built
                      ------------------
                      INITIAL GUESS DONE (   0.0 sec)
                      ------------------
             **** ENERGY FILE WAS UPDATED (sp_solv.en.tmp) ****
Finished Guess after   0.3 sec
Maximum memory used throughout the entire GUESS-calculation: 15.1 MB

-------------------------------------------------------------------------------------------
                                      ORCA LEAN-SCF
                              memory conserving SCF solver
-------------------------------------------------------------------------------------------

--------------------
CPCM SOLVATION MODEL
--------------------
CPCM parameters:
  Epsilon                                         ...      78.3550
  Refrac                                          ...       1.3328
  Rsolv                                           ...       1.3000
  Surface type                                    ... GAUSSIAN VDW
  Discretization scheme                           ... Constant charge density
    Threshold for H atoms                         ...       5.0000 (charges/Ang^2)
    Threshold for non-H atoms                     ...       5.0000 (charges/Ang^2)
  Epsilon function type                           ...         CPCM
Solvent:                                          ... WATER
SMD-CDS solvent descriptors:
  Soln                                            ...       1.3328
  Soln25                                          ...       1.3323
  Sola                                            ...       0.0000
  Solb                                            ...       0.0000
  Solg                                            ...       0.0000
  Solc                                            ...       0.0000
  Solh                                            ...       0.0000
Radii:
  Scheme                                          ... Element-dependent radii
  Radius for C  used is    3.4960 Bohr (=   1.8500 Ang.)
  Radius for O  used is    2.8724 Bohr (=   1.5200 Ang.)
  Radius for H  used is    2.2677 Bohr (=   1.2000 Ang.)
Calculating surface                               ...        done! (  0.0s)
Cavity surface points                             ...         1494
Cavity Volume                                     ...     876.5483
Cavity Surface-area                               ...     583.2960
Calculating surface distance matrix               ...        done! (  0.0s)
Performing Cholesky decomposition & store         ...        done! (  0.1s)
Overall time for CPCM initialization              ...                 0.1s

----------------------------------------D-I-I-S--------------------------------------------
Iteration    Energy (Eh)           Delta-E    RMSDP     MaxDP     DIISErr   Damp  Time(sec)
-------------------------------------------------------------------------------------------
               ***  Starting incremental Fock matrix formation  ***
    1    -386.0521649095683188     0.00e+00  3.98e-03  1.61e-01  6.26e-01  0.700   3.3
    2    -386.1112853279624915    -5.91e-02  3.17e-03  9.79e-02  4.40e-01  0.700   3.1
    3    -386.1531212748658390    -4.18e-02  2.31e-03  6.86e-02  3.09e-01  0.700   3.0
    4    -386.1825269770370141    -2.94e-02  1.65e-03  4.89e-02  2.17e-01  0.700   3.0
                               ***Turning on AO-DIIS***
    5    -386.2031743872986453    -2.06e-02  1.19e-03  3.52e-02  1.52e-01  0.700   3.0
    6    -386.2176507983386955    -1.45e-02  8.47e-04  2.49e-02  1.06e-01  0.700   2.9
    7    -386.2278125286514978    -1.02e-02  5.97e-04  1.75e-02  7.40e-02  0.700   2.9
    8    -386.2349344868639491    -7.12e-03  1.40e-03  4.09e-02  5.20e-02  0.000   2.9
                              *** Initializing SOSCF ***
---------------------------------------S-O-S-C-F--------------------------------------
Iteration    Energy (Eh)           Delta-E    RMSDP     MaxDP     MaxGrad    Time(sec)
--------------------------------------------------------------------------------------
    9    -386.2515856596045296    -1.67e-02  1.21e-05  5.68e-04  1.70e-04     3.0
               *** Restarting incremental Fock matrix formation ***
   10    -386.2515858654523981    -2.06e-07  6.17e-06  1.68e-04  5.17e-05     3.4
                  *** Gradient check signals convergence ***

               *****************************************************
               *                     SUCCESS                       *
               *           SCF CONVERGED AFTER  10 CYCLES          *
               *****************************************************


SMD CDS free energy correction energy :                 5.24633     Kcal/mol
Total Energy after SMD CDS correction =              -386.243225308 Eh
             **** ENERGY FILE WAS UPDATED (sp_solv.en.tmp) ****

----------------
TOTAL SCF ENERGY
----------------

Total Energy       :       -386.24322530796610 Eh          -10510.21249 eV

Components:
Nuclear Repulsion  :        391.22578274400348 Eh           10645.79477 eV
Electronic Energy  :       -777.46140271994000 Eh          -21155.80031 eV
One Electron Energy:      -1299.83148028648770 Eh          -35370.21277 eV
Two Electron Energy:        522.37007756654771 Eh           14214.41246 eV
CPCM Dielectric    :         -0.01596588951590 Eh              -0.43445 eV
SMD CDS (Gcds)     :          0.00836055748632 Eh               0.22750 eV

Virial components:
Potential Energy   :       -770.88647860127605 Eh          -20976.88753 eV
Kinetic Energy     :        384.64325329330995 Eh           10466.67504 eV
Virial Ratio       :          2.00415962583760

DFT components:
N(Alpha)           :       31.999945623880 electrons
N(Beta)            :       31.999945623880 electrons
N(Total)           :       63.999891247760 electrons
E(X)               :      -52.083731618079 Eh       
E(C)               :       -2.037882787382 Eh       
E(XC)              :      -54.121614405461 Eh       

CPCM Solvation Model Properties:
Surface-charge          :         -0.04705562996483
Corrected charge        :          0.00000000000000
Outlying charge corr.   :          0.00016690109672 Eh               0.00454 eV
Free-energy (cav+disp)  :          0.00836055748632 Eh               0.22750 eV

---------------
SCF CONVERGENCE
---------------

  Last Energy change         ...    2.0585e-07  Tolerance :   1.0000e-06
  Last MAX-Density change    ...    1.6788e-04  Tolerance :   1.0000e-05
  Last RMS-Density change    ...    6.1658e-06  Tolerance :   1.0000e-06
  Last DIIS Error            ...    1.7044e-04  Tolerance :   1.0000e-06
  Last Orbital Gradient      ...    5.1727e-05  Tolerance :   3.3300e-04
  Last Orbital Rotation      ...    1.1919e-04  Tolerance :   3.3300e-04


----------------
ORBITAL ENERGIES
----------------

  NO   OCC          E(Eh)            E(eV) 
   0   2.0000     -19.005311      -517.1608 
   1   2.0000     -18.944398      -515.5033 
   2   2.0000     -10.162415      -276.5334 
   3   2.0000     -10.076181      -274.1868 
   4   2.0000     -10.035659      -273.0842 
   5   2.0000     -10.025514      -272.8081 
   6   2.0000     -10.019135      -272.6345 
   7   2.0000     -10.008779      -272.3527 
   8   2.0000      -1.080153       -29.3925 
   9   2.0000      -0.989571       -26.9276 
  10   2.0000      -0.772506       -21.0210 
  11   2.0000      -0.721997       -19.6465 
  12   2.0000      -0.680799       -18.5255 
  13   2.0000      -0.608583       -16.5604 
  14   2.0000      -0.551569       -15.0090 
  15   2.0000      -0.524732       -14.2787 
  16   2.0000      -0.474204       -12.9038 
  17   2.0000      -0.457876       -12.4594 
  18   2.0000      -0.451288       -12.2802 
  19   2.0000      -0.424580       -11.5534 
  20   2.0000      -0.403284       -10.9739 
  21   2.0000      -0.389991       -10.6122 
  22   2.0000      -0.385656       -10.4942 
  23   2.0000      -0.354552        -9.6479 
  24   2.0000      -0.343136        -9.3372 
  25   2.0000      -0.330246        -8.9864 
  26   2.0000      -0.322380        -8.7724 
  27   2.0000      -0.301526        -8.2049 
  28   2.0000      -0.291897        -7.9429 
  29   2.0000      -0.288650        -7.8546 
  30   2.0000      -0.282124        -7.6770 
  31   2.0000      -0.253445        -6.8966 
  32   0.0000      -0.023812        -0.6479 
  33   0.0000       0.069608         1.8941 
  34   0.0000       0.097788         2.6610 
  35   0.0000       0.116641         3.1740 
  36   0.0000       0.124998         3.4014 
  37   0.0000       0.136973         3.7272 
  38   0.0000       0.145451         3.9579 
  39   0.0000       0.150076         4.0838 
  40   0.0000       0.153166         4.1679 
  41   0.0000       0.166916         4.5420 
  42   0.0000       0.172056         4.6819 
*Only the first 10 virtual orbitals were printed.

                    ********************************
                    * MULLIKEN POPULATION ANALYSIS *
                    ********************************

-----------------------
MULLIKEN ATOMIC CHARGES
-----------------------
   0 C :   -0.518169
   1 C :   -0.256820
   2 C :   -0.273625
   3 C :   -0.306746
   4 C :    0.381743
   5 O :   -0.504053
   6 O :   -0.200636
   7 C :   -0.328740
   8 H :    0.154998
   9 H :    0.157887
  10 H :    0.154398
  11 H :    0.152556
  12 H :    0.154510
  13 H :    0.158749
  14 H :    0.163913
  15 H :    0.197163
  16 H :    0.177340
  17 H :    0.177814
  18 H :    0.180298
  19 H :    0.177421
Sum of atomic charges:   -0.0000000

--------------------------------
MULLIKEN REDUCED ORBITAL CHARGES
--------------------------------
  0 C s       :     3.350871  s :     3.350871
      pz      :     1.069803  p :     3.140285
      px      :     0.961922
      py      :     1.108560
      dz2     :     0.007312  d :     0.027012
      dxz     :     0.005169
      dyz     :     0.002100
      dx2y2   :     0.006496
      dxy     :     0.005935

  1 C s       :     3.226193  s :     3.226193
      pz      :     1.069543  p :     2.993501
      px      :     0.966883
      py      :     0.957075
      dz2     :     0.008393  d :     0.037126
      dxz     :     0.005722
      dyz     :     0.005506
      dx2y2   :     0.008545
      dxy     :     0.008960

  2 C s       :     3.238615  s :     3.238615
      pz      :     1.069622  p :     2.998374
      px      :     0.955132
      py      :     0.973621
      dz2     :     0.008301  d :     0.036635
      dxz     :     0.005279
      dyz     :     0.005613
      dx2y2   :     0.008511
      dxy     :     0.008931

  3 C s       :     3.244979  s :     3.244979
      pz      :     1.009899  p :     3.027156
      px      :     0.935481
      py      :     1.081776
      dz2     :     0.007800  d :     0.034611
      dxz     :     0.008206
      dyz     :     0.003813
      dx2y2   :     0.007423
      dxy     :     0.007369

  4 C s       :     3.176551  s :     3.176551
      pz      :     0.745746  p :     2.316866
      px      :     0.823311
      py      :     0.747809
      dz2     :     0.027294  d :     0.124840
      dxz     :     0.041709
      dyz     :     0.035774
      dx2y2   :     0.011240
      dxy     :     0.008822

  5 O s       :     3.832331  s :     3.832331
      pz      :     1.322757  p :     4.650441
      px      :     1.698624
      py      :     1.629061
      dz2     :     0.010055  d :     0.021281
      dxz     :     0.003808
      dyz     :     0.004517
      dx2y2   :     0.002178
      dxy     :     0.000724

  6 O s       :     3.707737  s :     3.707737
      pz      :     1.626630  p :     4.455601
      px      :     1.337094
      py      :     1.491878
      dz2     :     0.007887  d :     0.037297
      dxz     :     0.012717
      dyz     :     0.011032
      dx2y2   :     0.003531
      dxy     :     0.002131

  7 C s       :     3.344664  s :     3.344664
      pz      :     1.066118  p :     2.941519
      px      :     0.874176
      py      :     1.001225
      dz2     :     0.003774  d :     0.042557
      dxz     :     0.011469
      dyz     :     0.009092
      dx2y2   :     0.007853
      dxy     :     0.010369

  8 H s       :     0.826689  s :     0.826689
      pz      :     0.005367  p :     0.018313
      px      :     0.007009
      py      :     0.005937

  9 H s       :     0.823735  s :     0.823735
      pz      :     0.003809  p :     0.018379
      px      :     0.004093
      py      :     0.010477

 10 H s       :     0.827302  s :     0.827302
      pz      :     0.010627  p :     0.018300
      px      :     0.003602
      py      :     0.004071

 11 H s       :     0.829565  s :     0.829565
      pz      :     0.005241  p :     0.017878
      px      :     0.006690
      py      :     0.005948

 12 H s       :     0.827635  s :     0.827635
      pz      :     0.010520  p :     0.017855
      px      :     0.003424
      py      :     0.003911

 13 H s       :     0.823324  s :     0.823324
      pz      :     0.010767  p :     0.017927
      px      :     0.003348
      py      :     0.003812

 14 H s       :     0.818095  s :     0.818095
      pz      :     0.005047  p :     0.017992
      px      :     0.006914
      py      :     0.006031

 15 H s       :     0.784616  s :     0.784616
      pz      :     0.003405  p :     0.018222
      px      :     0.003740
      py      :     0.011077

 16 H s       :     0.804775  s :     0.804775
      pz      :     0.010826  p :     0.017885
      px      :     0.003187
      py      :     0.003871

 17 H s       :     0.804302  s :     0.804302
      pz      :     0.007688  p :     0.017883
      px      :     0.006227
      py      :     0.003968

 18 H s       :     0.801916  s :     0.801916
      pz      :     0.005488  p :     0.017786
      px      :     0.003474
      py      :     0.008824

 19 H s       :     0.804536  s :     0.804536
      pz      :     0.007325  p :     0.018043
      px      :     0.004994
      py      :     0.005724


------------------------
MULLIKEN OVERLAP CHARGES
------------------------
B(  0-C ,  1-C ) :   0.4434 B(  0-C ,  2-C ) :  -0.1757 B(  0-C ,  8-H ) :   0.8542 
B(  0-C ,  9-H ) :   0.8052 B(  0-C , 10-H ) :   0.8580 B(  1-C ,  2-C ) :   0.3972 
B(  1-C ,  3-C ) :  -0.1356 B(  1-C ,  8-H ) :  -0.0888 B(  1-C ,  9-H ) :  -0.0783 
B(  1-C , 10-H ) :  -0.0917 B(  1-C , 11-H ) :   0.8374 B(  1-C , 12-H ) :   0.8494 
B(  1-C , 13-H ) :  -0.0852 B(  1-C , 14-H ) :  -0.0615 B(  2-C ,  3-C ) :   0.3548 
B(  2-C ,  4-C ) :  -0.0858 B(  2-C , 11-H ) :  -0.0765 B(  2-C , 12-H ) :  -0.0932 
B(  2-C , 13-H ) :   0.8646 B(  2-C , 14-H ) :   0.8389 B(  2-C , 15-H ) :  -0.0849 
B(  2-C , 16-H ) :  -0.0681 B(  3-C ,  4-C ) :   0.2738 B(  3-C ,  5-O ) :  -0.1291 
B(  3-C ,  6-O ) :  -0.0629 B(  3-C , 11-H ) :  -0.0643 B(  3-C , 13-H ) :  -0.0566 
B(  3-C , 14-H ) :  -0.1062 B(  3-C , 15-H ) :   0.7877 B(  3-C , 16-H ) :   0.9000 
B(  4-C ,  5-O ) :   0.9017 B(  4-C ,  6-O ) :   0.3926 B(  4-C ,  7-C ) :  -0.1857 
B(  4-C , 11-H ) :   0.0707 B(  4-C , 16-H ) :  -0.1647 B(  5-O ,  6-O ) :  -0.2164 
B(  6-O ,  7-C ) :   0.3386 B(  6-O , 17-H ) :  -0.0777 B(  6-O , 18-H ) :  -0.0665 
B(  6-O , 19-H ) :  -0.0571 B(  7-C , 17-H ) :   0.7922 B(  7-C , 18-H ) :   0.8115 
B(  7-C , 19-H ) :   0.8240 B(  8-H , 10-H ) :  -0.0541 B( 11-H , 12-H ) :  -0.0516 
B( 18-H , 19-H ) :  -0.0569 


                     *******************************
                     * LOEWDIN POPULATION ANALYSIS *
                     *******************************

----------------------
LOEWDIN ATOMIC CHARGES
----------------------
   0 C :   -0.430286
   1 C :   -0.310861
   2 C :   -0.287526
   3 C :   -0.226831
   4 C :    0.358647
   5 O :   -0.490747
   6 O :   -0.605790
   7 C :   -0.042822
   8 H :    0.153535
   9 H :    0.153524
  10 H :    0.153280
  11 H :    0.157582
  12 H :    0.156197
  13 H :    0.166012
  14 H :    0.163451
  15 H :    0.192437
  16 H :    0.185485
  17 H :    0.188119
  18 H :    0.182114
  19 H :    0.184479

-------------------------------
LOEWDIN REDUCED ORBITAL CHARGES
-------------------------------
  0 C s       :     2.974156  s :     2.974156
      pz      :     1.149910  p :     3.393112
      px      :     1.088210
      py      :     1.154992
      dz2     :     0.017732  d :     0.063017
      dxz     :     0.011539
      dyz     :     0.005140
      dx2y2   :     0.015397
      dxy     :     0.013209

  1 C s       :     2.936686  s :     2.936686
      pz      :     1.138017  p :     3.294082
      px      :     1.079900
      py      :     1.076165
      dz2     :     0.019356  d :     0.080093
      dxz     :     0.012054
      dyz     :     0.011306
      dx2y2   :     0.018799
      dxy     :     0.018579

  2 C s       :     2.933928  s :     2.933928
      pz      :     1.134904  p :     3.274116
      px      :     1.052038
      py      :     1.087173
      dz2     :     0.019304  d :     0.079483
      dxz     :     0.011641
      dyz     :     0.011266
      dx2y2   :     0.018524
      dxy     :     0.018748

  3 C s       :     2.921700  s :     2.921700
      pz      :     1.094220  p :     3.231902
      px      :     1.028930
      py      :     1.108752
      dz2     :     0.018721  d :     0.073228
      dxz     :     0.016409
      dyz     :     0.007630
      dx2y2   :     0.016837
      dxy     :     0.013631

  4 C s       :     2.741657  s :     2.741657
      pz      :     0.985248  p :     2.628840
      px      :     0.855966
      py      :     0.787626
      dz2     :     0.066595  d :     0.270855
      dxz     :     0.089714
      dyz     :     0.075204
      dx2y2   :     0.019923
      dxy     :     0.019419

  5 O s       :     3.543091  s :     3.543091
      pz      :     1.490924  p :     4.728640
      px      :     1.649714
      py      :     1.588002
      dz2     :     0.080267  d :     0.219015
      dxz     :     0.062698
      dyz     :     0.052507
      dx2y2   :     0.011905
      dxy     :     0.011638

  6 O s       :     3.470111  s :     3.470111
      pz      :     1.641061  p :     4.663896
      px      :     1.467195
      py      :     1.555640
      dz2     :     0.081476  d :     0.471784
      dxz     :     0.104782
      dyz     :     0.079173
      dx2y2   :     0.092556
      dxy     :     0.113797

  7 C s       :     2.908628  s :     2.908628
      pz      :     1.068368  p :     3.031980
      px      :     0.934500
      py      :     1.029112
      dz2     :     0.007518  d :     0.102215
      dxz     :     0.029818
      dyz     :     0.023264
      dx2y2   :     0.017419
      dxy     :     0.024196

  8 H s       :     0.802735  s :     0.802735
      pz      :     0.012769  p :     0.043730
      px      :     0.016790
      py      :     0.014170

  9 H s       :     0.802594  s :     0.802594
      pz      :     0.008437  p :     0.043882
      px      :     0.009332
      py      :     0.026113

 10 H s       :     0.802994  s :     0.802994
      pz      :     0.026479  p :     0.043726
      px      :     0.008080
      py      :     0.009167

 11 H s       :     0.798872  s :     0.798872
      pz      :     0.012714  p :     0.043546
      px      :     0.016282
      py      :     0.014551

 12 H s       :     0.800447  s :     0.800447
      pz      :     0.026163  p :     0.043356
      px      :     0.007985
      py      :     0.009207

 13 H s       :     0.790016  s :     0.790016
      pz      :     0.027192  p :     0.043972
      px      :     0.007536
      py      :     0.009244

 14 H s       :     0.792733  s :     0.792733
      pz      :     0.012297  p :     0.043815
      px      :     0.016704
      py      :     0.014815

 15 H s       :     0.762517  s :     0.762517
      pz      :     0.007936  p :     0.045045
      px      :     0.009224
      py      :     0.027885

 16 H s       :     0.770175  s :     0.770175
      pz      :     0.027348  p :     0.044340
      px      :     0.007451
      py      :     0.009542

 17 H s       :     0.770891  s :     0.770891
      pz      :     0.019654  p :     0.040991
      px      :     0.013023
      py      :     0.008314

 18 H s       :     0.776413  s :     0.776413
      pz      :     0.012249  p :     0.041473
      px      :     0.008850
      py      :     0.020373

 19 H s       :     0.773130  s :     0.773130
      pz      :     0.016879  p :     0.042391
      px      :     0.010792
      py      :     0.014721


---------------------------------
LOEWDIN BOND ORDERS (THRESH 0.050000)
---------------------------------
B(  0-C ,  1-C ) :   1.1452 B(  0-C ,  2-C ) :   0.0753 B(  0-C ,  8-H ) :   0.9277 
B(  0-C ,  9-H ) :   0.9294 B(  0-C , 10-H ) :   0.9289 B(  1-C ,  2-C ) :   1.0994 
B(  1-C ,  3-C ) :   0.0703 B(  1-C , 11-H ) :   0.8862 B(  1-C , 12-H ) :   0.8936 
B(  2-C ,  3-C ) :   1.0815 B(  2-C ,  4-C ) :   0.0728 B(  2-C , 13-H ) :   0.8821 
B(  2-C , 14-H ) :   0.8859 B(  3-C ,  4-C ) :   0.9290 B(  3-C ,  5-O ) :   0.1807 
B(  3-C ,  6-O ) :   0.1855 B(  3-C , 15-H ) :   0.8556 B(  3-C , 16-H ) :   0.8595 
B(  4-C ,  5-O ) :   2.1381 B(  4-C ,  6-O ) :   1.4696 B(  4-C ,  7-C ) :   0.0904 
B(  5-O ,  6-O ) :   0.4575 B(  5-O ,  7-C ) :   0.0697 B(  6-O ,  7-C ) :   1.3562 
B(  6-O , 17-H ) :   0.1006 B(  6-O , 18-H ) :   0.0997 B(  6-O , 19-H ) :   0.0978 
B(  7-C , 17-H ) :   0.8599 B(  7-C , 18-H ) :   0.8576 B(  7-C , 19-H ) :   0.8503 


------------------------------------------
LOEWDIN REDUCED ORBITAL POPULATIONS PER MO
-------------------------------------------
THRESHOLD FOR PRINTING IS 0.1%%
                      0         1         2         3         4         5   
                 -19.00531 -18.94440 -10.16242 -10.07618 -10.03566 -10.02551
                   2.00000   2.00000   2.00000   2.00000   2.00000   2.00000
                  --------  --------  --------  --------  --------  --------
 2 C  s               0.0       0.0       0.0       0.0       0.0      99.7
 3 C  s               0.0       0.0       0.0       0.0      99.7       0.0
 4 C  s               0.0       0.0      98.9       0.0       0.0       0.0
 5 O  s               0.0      99.9       0.0       0.0       0.0       0.0
 5 O  pz              0.0       0.0       0.2       0.0       0.0       0.0
 5 O  dz2             0.0       0.0       0.3       0.0       0.0       0.0
 6 O  s              99.9       0.0       0.0       0.0       0.0       0.0
 6 O  dxz             0.0       0.0       0.1       0.1       0.0       0.0
 6 O  dxy             0.0       0.0       0.1       0.1       0.0       0.0
 7 C  s               0.0       0.0       0.0      99.4       0.0       0.0

                      6         7         8         9        10        11   
                 -10.01914 -10.00878  -1.08015  -0.98957  -0.77251  -0.72200
                   2.00000   2.00000   2.00000   2.00000   2.00000   2.00000
                  --------  --------  --------  --------  --------  --------
 0 C  s               0.0      99.7       0.0       0.0       5.0      12.7
 0 C  pz              0.0       0.0       0.0       0.0       0.2       0.2
 0 C  px              0.1       0.0       0.0       0.0       1.4       1.1
 0 C  py              0.0       0.0       0.0       0.0       0.2       0.1
 1 C  s              99.7       0.0       0.0       0.0      14.0      12.9
 1 C  pz              0.0       0.0       0.0       0.0       0.1       0.2
 1 C  px              0.0       0.1       0.0       0.0       0.0       1.6
 1 C  py              0.0       0.0       0.0       0.0       1.8       0.0
 2 C  s               0.0       0.0       0.1       0.0      20.7       1.1
 2 C  pz              0.0       0.0       0.0       0.0       0.3       0.1
 2 C  px              0.0       0.0       0.3       0.1       0.8       2.8
 2 C  py              0.1       0.0       0.0       0.0       0.7       2.3
 3 C  s               0.0       0.0       1.0       0.2      18.0       6.1
 3 C  pz              0.0       0.0       0.4       0.5       0.4       0.0
 3 C  px              0.0       0.0       1.1       0.0       1.1       2.0
 3 C  py              0.0       0.0       0.6       0.0       0.5       0.1
 4 C  s               0.0       0.0      17.0       3.1       2.1       3.7
 4 C  pz              0.0       0.0       0.1      20.9       3.2       4.8
 4 C  px              0.0       0.0       3.0       0.8       3.8       0.9
 4 C  py              0.0       0.0       1.7       1.9       0.8       0.6
 4 C  dz2             0.0       0.0       0.4       1.4       0.0       0.0
 4 C  dxz             0.0       0.0       0.1       0.4       0.0       0.0
 4 C  dyz             0.0       0.0       0.3       0.1       0.0       0.0
 4 C  dxy             0.0       0.0       0.3       0.1       0.0       0.1
 5 O  s               0.0       0.0      14.5      40.6       1.1       1.1
 5 O  pz              0.0       0.0       3.3       3.1       0.3       0.6
 5 O  px              0.0       0.0       0.0       0.1       0.1       0.1
 5 O  dz2             0.0       0.0       1.1       0.1       0.2       0.5
 5 O  dxz             0.0       0.0       0.1       0.1       0.3       0.1
 5 O  dyz             0.0       0.0       0.2       0.1       0.0       0.0
 6 O  s               0.0       0.0      39.7      19.1       0.1       0.0
 6 O  pz              0.0       0.0       2.5       0.4       0.0       0.0
 6 O  px              0.0       0.0       0.1       0.4       1.8       8.6
 6 O  py              0.0       0.0       0.3       0.3       1.0       5.2
 6 O  dz2             0.0       0.0       0.1       0.4       0.1       0.0
 6 O  dxz             0.0       0.0       0.1       0.4       0.1       0.4
 6 O  dyz             0.0       0.0       0.2       0.5       0.0       0.2
 6 O  dxy             0.0       0.0       0.4       0.0       0.1       0.0
 7 C  s               0.0       0.0       4.2       2.0       1.3       9.5
 7 C  pz              0.0       0.0       0.4       0.7       0.0       0.1
 7 C  px              0.0       0.0       3.2       1.0       0.1       0.1
 7 C  py              0.0       0.0       1.7       0.4       0.0       0.1
 7 C  dxz             0.0       0.0       0.1       0.1       0.0       0.0
 7 C  dxy             0.0       0.0       0.2       0.1       0.0       0.0
 8 H  s               0.0       0.0       0.0       0.0       0.6       2.0
 9 H  s               0.0       0.0       0.0       0.0       0.6       2.0
 9 H  py              0.0       0.0       0.0       0.0       0.0       0.2
10 H  s               0.0       0.0       0.0       0.0       0.6       2.0
10 H  pz              0.0       0.0       0.0       0.0       0.1       0.2
11 H  s               0.0       0.0       0.0       0.0       1.8       1.9
12 H  s               0.0       0.0       0.0       0.0       1.7       1.9
12 H  pz              0.0       0.0       0.0       0.0       0.2       0.2
13 H  s               0.0       0.0       0.0       0.0       2.6       0.2
13 H  pz              0.0       0.0       0.0       0.0       0.2       0.0
14 H  s               0.0       0.0       0.0       0.0       2.6       0.2
14 H  px              0.0       0.0       0.0       0.0       0.1       0.0
15 H  s               0.0       0.0       0.0       0.0       2.4       1.1
15 H  py              0.0       0.0       0.0       0.0       0.2       0.1
16 H  s               0.0       0.0       0.1       0.0       2.5       1.3
16 H  pz              0.0       0.0       0.0       0.0       0.2       0.1
17 H  s               0.0       0.0       0.2       0.2       0.2       2.0
18 H  s               0.0       0.0       0.3       0.1       0.2       1.7
18 H  py              0.0       0.0       0.0       0.0       0.0       0.1
19 H  s               0.0       0.0       0.3       0.1       0.2       1.6

                     12        13        14        15        16        17   
                  -0.68080  -0.60858  -0.55157  -0.52473  -0.47420  -0.45788
                   2.00000   2.00000   2.00000   2.00000   2.00000   2.00000
                  --------  --------  --------  --------  --------  --------
 0 C  s              10.7      13.9       4.9       0.3       0.0       0.1
 0 C  pz              0.0       0.2       0.9       0.3       0.8       0.2
 0 C  px              0.1       1.8       5.1       0.9       0.0       0.6
 0 C  py              0.0       0.4       0.1       0.3       0.0       0.0
 1 C  s               2.6       2.1      10.9       2.3       0.1       0.4
 1 C  pz              0.2       0.2       1.0       0.7       3.5       0.0
 1 C  px              2.6       4.2       3.4       0.5       0.4       0.3
 1 C  py              1.8       3.3       2.8       2.7       0.0       0.1
 1 C  dx2y2           0.1       0.2       0.0       0.0       0.0       0.0
 2 C  s               4.5      10.1       4.6       3.4       0.1       0.0
 2 C  pz              0.1       0.2       0.3       1.0       9.0       0.2
 2 C  px              2.0       1.9       0.2       1.6       0.3       0.4
 2 C  py              1.5       0.4       8.1       1.1       0.7       0.2
 3 C  s               7.1       6.7       0.1       2.1       2.0       0.0
 3 C  pz              0.1       0.2       0.1       1.1      15.1       1.4
 3 C  px              1.5       5.7       3.4       0.3       1.6       0.7
 3 C  py              0.3       0.3       2.0       0.4       3.2       5.5
 3 C  dxz             0.0       0.1       0.1       0.0       0.1       0.0
 3 C  dyz             0.0       0.0       0.0       0.0       0.2       0.0
 4 C  s               0.8       1.4       1.8       2.3       2.3       0.7
 4 C  pz              0.7       0.9       0.7       0.6       0.4       1.3
 4 C  px              2.0       2.1       0.2       2.1       9.6       4.4
 4 C  py              1.4       2.5       0.1       2.1       0.9       9.6
 4 C  dxz             0.1       0.1       0.0       0.0       0.0       0.0
 4 C  dyz             0.1       0.1       0.0       0.0       0.0       0.0
 5 O  s               0.0       0.4       0.8       2.2       3.6       4.7
 5 O  pz              0.1       0.4       1.0       3.0       7.8      14.7
 5 O  px              0.1       0.1       0.0       0.6       8.8       1.2
 5 O  py              0.1       0.2       0.1       1.0       0.4       3.3
 5 O  dz2             0.1       0.1       0.1       0.1       0.1       0.2
 5 O  dxz             0.1       0.1       0.0       0.1       1.0       0.3
 5 O  dyz             0.0       0.1       0.0       0.2       0.0       0.5
 6 O  s               0.7       1.2       2.1       4.0       0.2       0.2
 6 O  pz              0.1       0.1       1.1      10.2       2.3       1.5
 6 O  px              8.7       0.1       1.9       7.3       0.1      15.9
 6 O  py              5.2       0.0       1.1       6.0       3.5       7.8
 6 O  dz2             0.2       0.4       0.1       0.1       0.3       0.0
 6 O  dxz             0.6       0.1       0.0       0.1       0.8       0.1
 6 O  dyz             0.3       0.0       0.0       0.1       0.1       0.8
 6 O  dx2y2           0.1       0.1       0.1       0.0       0.0       0.0
 6 O  dxy             0.8       1.1       0.5       0.1       0.1       0.1
 7 C  s              16.7       4.5       3.0       3.2       0.0       0.2
 7 C  pz              0.1       0.1       1.9       9.1       3.5       0.2
 7 C  px              0.2       0.8       2.0       3.4       0.2       0.9
 7 C  py              0.1       0.3       0.9       1.1       1.0      11.7
 7 C  dxz             0.0       0.0       0.1       0.2       0.0       0.0
 7 C  dyz             0.0       0.0       0.0       0.1       0.0       0.0
 7 C  dxy             0.0       0.0       0.1       0.2       0.0       0.1
 8 H  s               2.0       3.8       2.7       0.4       0.0       0.1
 8 H  px              0.1       0.1       0.0       0.0       0.0       0.0
 8 H  py              0.1       0.1       0.1       0.0       0.0       0.0
 9 H  s               2.1       4.6       1.8       0.1       0.0       0.1
 9 H  py              0.2       0.3       0.1       0.0       0.0       0.0
10 H  s               2.0       3.8       2.6       0.4       0.2       0.2
10 H  pz              0.2       0.3       0.2       0.0       0.0       0.0
11 H  s               0.5       0.5       5.9       1.5       0.2       0.0
11 H  pz              0.0       0.0       0.2       0.0       0.0       0.0
11 H  px              0.0       0.0       0.1       0.0       0.0       0.0
11 H  py              0.0       0.0       0.1       0.0       0.0       0.0
12 H  s               0.5       0.5       5.3       1.9       1.2       0.2
12 H  pz              0.0       0.0       0.4       0.1       0.0       0.0
13 H  s               0.9       2.6       2.6       2.3       2.3       0.0
13 H  pz              0.1       0.2       0.2       0.2       0.1       0.0
14 H  s               0.9       2.9       3.2       2.1       0.9       0.0
14 H  px              0.1       0.1       0.1       0.0       0.0       0.0
14 H  py              0.0       0.1       0.0       0.0       0.0       0.0
15 H  s               1.7       2.7       0.3       1.3       2.2       1.7
15 H  py              0.1       0.2       0.0       0.1       0.1       0.1
16 H  s               1.0       1.9       0.0       1.5       6.0       1.1
16 H  pz              0.1       0.2       0.0       0.1       0.2       0.0
16 H  py              0.0       0.0       0.0       0.0       0.1       0.0
17 H  s               4.3       1.6       1.1       0.4       0.5       0.1
17 H  pz              0.2       0.1       0.1       0.1       0.0       0.0
17 H  px              0.1       0.0       0.0       0.0       0.0       0.0
18 H  s               3.6       1.5       2.0       3.3       0.0       4.2
18 H  py              0.2       0.1       0.1       0.1       0.0       0.1
19 H  s               3.4       1.5       2.0       4.6       1.4       0.9
19 H  pz              0.1       0.0       0.0       0.1       0.0       0.1
19 H  py              0.1       0.1       0.1       0.2       0.0       0.0

                     18        19        20        21        22        23   
                  -0.45129  -0.42458  -0.40328  -0.38999  -0.38566  -0.35455
                   2.00000   2.00000   2.00000   2.00000   2.00000   2.00000
                  --------  --------  --------  --------  --------  --------
 0 C  s               0.0       0.0       0.2       0.0       0.0       0.0
 0 C  pz              0.1       7.4       1.8       9.1       3.7       3.6
 0 C  px              0.1       2.1       3.7       2.2       1.3       1.8
 0 C  py              0.6       2.1       0.3      16.5       7.8       5.6
 1 C  s               0.0       0.0       0.6       0.2       0.0       0.1
 1 C  pz              0.5      14.6       0.0       8.6       1.9       0.3
 1 C  px              0.1       3.3       4.1       0.1       1.0       4.3
 1 C  py              0.8       3.6       0.9       7.1       4.1       0.3
 2 C  s               0.2       0.0       0.1       0.2       0.1       0.6
 2 C  pz              1.6       9.5       1.6       0.0       0.4       1.9
 2 C  px              2.0       4.6       5.2       4.2       0.0       0.2
 2 C  py              0.1       0.0       3.8       5.6       3.2       0.7
 3 C  s               0.8       0.4       0.1       0.2       0.1       0.2
 3 C  pz              0.1       0.8       1.2      10.2       3.6       0.0
 3 C  px              2.8       0.1       4.1       2.3       2.9       0.4
 3 C  py              0.4       2.0      17.8       0.1       1.8       4.6
 3 C  dx2y2           0.0       0.0       0.1       0.0       0.0       0.2
 4 C  s               0.3       0.9       0.0       0.0       0.2       0.0
 4 C  pz              4.9       1.4       0.2       0.7       2.5       0.2
 4 C  px              0.5       0.3       0.6       0.4       3.0       2.5
 4 C  py              4.2       0.2       1.5       0.1       1.8       8.4
 4 C  dz2             0.2       0.1       0.0       0.0       0.2       0.0
 4 C  dxz             0.1       0.0       0.0       0.1       0.0       0.1
 4 C  dyz             0.1       0.0       0.1       0.0       0.0       0.3
 4 C  dx2y2           0.0       0.0       0.2       0.0       0.0       0.0
 5 O  s               5.2       1.2       0.1       0.2       0.8       0.0
 5 O  pz             13.5       8.1       0.2       2.2       7.4       0.5
 5 O  px              0.2       0.7       0.2       0.6       0.4       7.1
 5 O  py              4.7       0.1       1.9       0.0       1.5      19.9
 5 O  dz2             0.1       0.1       0.0       0.0       0.1       0.0
 5 O  dyz             0.4       0.0       0.1       0.0       0.0       0.3
 5 O  dx2y2           0.0       0.0       0.2       0.0       0.0       0.0
 5 O  dxy             0.0       0.0       0.0       0.0       0.1       0.0
 6 O  s               0.9       0.1       0.1       0.1       0.1       0.0
 6 O  pz             16.0       2.9       0.0       0.0       2.9       0.4
 6 O  px              0.3       0.2       3.5       0.2       1.9       0.6
 6 O  py             11.8       0.2       1.7       0.6       0.7       0.4
 6 O  dz2             0.6       0.1       0.0       0.0       0.0       0.0
 6 O  dxz             0.1       0.3       0.0       0.0       0.5       0.2
 6 O  dyz             0.1       0.1       0.1       0.0       0.2       0.0
 6 O  dx2y2           0.1       0.0       1.7       0.1       0.0       1.7
 6 O  dxy             0.2       0.2       0.0       0.1       0.0       0.0
 7 C  s               0.7       0.0       0.0       0.0       0.1       0.0
 7 C  pz              1.7       3.9       0.2       0.2       9.6       1.4
 7 C  px             12.9       0.6       3.8       0.8       5.7       5.8
 7 C  py              0.2       1.8      12.7       0.4       4.1       5.6
 7 C  dz2             0.1       0.0       0.0       0.0       0.0       0.0
 7 C  dxz             0.0       0.0       0.0       0.0       0.2       0.0
 7 C  dyz             0.0       0.0       0.1       0.0       0.0       0.2
 8 H  s               0.0       3.2       0.2       0.1       4.1       0.8
 8 H  py              0.0       0.0       0.0       0.1       0.0       0.0
 9 H  s               0.3       0.2       0.6       8.9       2.0       2.9
 9 H  py              0.0       0.0       0.0       0.2       0.0       0.0
10 H  s               0.0       1.7       1.1       5.0       0.6       1.0
10 H  pz              0.0       0.0       0.0       0.2       0.0       0.0
11 H  s               0.1       5.9       0.0       0.0       2.3       0.0
11 H  px              0.0       0.1       0.0       0.0       0.1       0.0
12 H  s               0.2       2.8       0.3       3.9       0.3       0.0
12 H  pz              0.0       0.0       0.0       0.1       0.0       0.0
13 H  s               0.9       2.6       0.8       0.5       0.0       0.4
14 H  s               0.1       3.2       1.2       0.1       1.0       0.1
14 H  py              0.0       0.1       0.0       0.0       0.0       0.0
15 H  s               0.5       1.6       8.1       0.0       0.3       3.4
15 H  py              0.0       0.1       0.2       0.0       0.0       0.1
16 H  s               0.2       0.2       1.9       5.3       0.8       0.0
16 H  pz              0.0       0.0       0.1       0.1       0.0       0.0
17 H  s               4.9       2.3       0.1       0.0       9.4       1.7
17 H  pz              0.1       0.0       0.0       0.0       0.1       0.0
18 H  s               0.5       0.0       6.4       0.1       0.2       6.3
19 H  s               1.1       0.9       2.8       0.6       1.6       1.6
19 H  pz              0.1       0.0       0.1       0.0       0.0       0.1
19 H  px              0.0       0.0       0.0       0.0       0.1       0.0

                     24        25        26        27        28        29   
                  -0.34314  -0.33025  -0.32238  -0.30153  -0.29190  -0.28865
                   2.00000   2.00000   2.00000   2.00000   2.00000   2.00000
                  --------  --------  --------  --------  --------  --------
 0 C  s               0.0       0.0       0.0       0.9       0.0       0.1
 0 C  pz              0.2      17.5       0.9       1.8       8.4       0.2
 0 C  px              9.1       0.0       3.5      16.8       1.1       1.6
 0 C  py              8.1       2.5       1.7       0.1       0.0      11.2
 0 C  dz2             0.0       0.3       0.0       0.0       0.4       0.0
 0 C  dxz             0.1       0.0       0.0       0.1       0.2       0.0
 0 C  dx2y2           0.0       0.0       0.0       0.1       0.0       0.3
 0 C  dxy             0.1       0.0       0.1       0.1       0.0       0.3
 1 C  s               0.1       0.1       0.0       0.5       0.0       0.2
 1 C  pz              0.6       2.0       0.0       2.2      20.2       0.1
 1 C  px              4.7       0.9       2.2      16.2       2.8       1.3
 1 C  py              0.7       0.1       0.3       1.9       0.0      20.9
 1 C  dz2             0.0       0.1       0.0       0.1       0.6       0.0
 1 C  dxz             0.0       0.0       0.0       0.2       0.1       0.0
 1 C  dyz             0.0       0.0       0.0       0.0       0.3       0.0
 1 C  dx2y2           0.0       0.0       0.0       0.1       0.0       0.3
 1 C  dxy             0.0       0.0       0.0       0.4       0.1       0.2
 2 C  s               0.1       0.1       0.0       0.5       0.0       0.4
 2 C  pz              0.5      15.2       2.0       2.0      10.5       0.0
 2 C  px              9.6       0.0       0.8      11.5       1.1       2.4
 2 C  py              3.2       0.9       0.0       1.6       0.0      19.5
 2 C  dz2             0.0       0.2       0.0       0.1       0.3       0.1
 2 C  dxz             0.1       0.0       0.0       0.1       0.0       0.0
 2 C  dyz             0.0       0.0       0.0       0.0       0.3       0.0
 2 C  dx2y2           0.0       0.0       0.0       0.1       0.0       0.3
 2 C  dxy             0.1       0.0       0.0       0.4       0.1       0.1
 3 C  s               0.1       0.1       0.2       0.7       0.0       0.1
 3 C  pz              2.5       8.0       1.4       2.8       0.5       0.0
 3 C  px              2.7       1.0       1.0      10.7       0.0       3.1
 3 C  py              2.9       2.8       1.7       0.2       0.1       6.8
 3 C  dz2             0.1       0.3       0.0       0.0       0.1       0.1
 3 C  dx2y2           0.0       0.0       0.0       0.0       0.0       0.2
 3 C  dxy             0.1       0.0       0.0       0.0       0.0       0.2
 4 C  s               0.1       0.0       0.7       0.3       0.1       0.0
 4 C  pz              0.2       0.1       4.1       0.2       0.1       0.1
 4 C  px              3.8       0.9       0.2       0.3       0.1       0.0
 4 C  py              0.3       0.0       0.1       0.1       0.1       0.2
 4 C  dz2             0.1       0.0       0.6       0.0       0.0       0.0
 4 C  dxz             0.0       0.2       0.0       0.0       0.0       0.0
 4 C  dyz             0.0       0.0       0.1       0.1       0.0       0.1
 4 C  dxy             0.0       0.0       0.1       0.0       0.0       0.0
 5 O  s               0.0       0.0       0.7       0.0       0.0       0.0
 5 O  pz              0.2       0.3       6.9       0.3       0.2       0.0
 5 O  px              4.7       2.6       0.2       1.2       0.1       0.5
 5 O  py              0.0       0.0       0.0       0.2       0.4       4.0
 5 O  dz2             0.0       0.0       0.5       0.0       0.0       0.0
 6 O  s               0.2       0.5       3.3       0.5       0.0       0.1
 6 O  pz              2.1       0.9      28.5       2.1       0.1       0.6
 6 O  px              0.2       1.0       1.4       0.4       0.0       0.1
 6 O  py              0.9       0.0       0.1       0.3       0.0       0.0
 6 O  dz2             0.0       0.0       1.0       0.2       0.0       0.1
 6 O  dxz             0.4       0.0       0.5       0.0       0.0       0.0
 6 O  dyz             0.2       0.0       0.1       0.0       0.0       0.0
 6 O  dx2y2           0.1       0.0       0.0       0.0       0.0       0.0
 6 O  dxy             0.0       0.3       1.0       0.1       0.0       0.0
 7 C  s               0.0       0.0       0.3       0.0       0.0       0.0
 7 C  pz              5.9       1.2      12.4       0.4       0.0       0.1
 7 C  px              0.3       0.6       0.5       0.2       0.0       0.1
 7 C  py              3.7       0.4       0.1       0.4       0.0       0.0
 7 C  dxz             0.3       0.0       0.3       0.0       0.0       0.0
 7 C  dxy             0.1       0.0       0.3       0.0       0.0       0.0
 8 H  s               7.6       0.8       3.5       2.1       4.3       1.8
 9 H  s               2.1       2.5       0.4       0.1       0.2       8.5
 9 H  pz              0.0       0.1       0.0       0.0       0.1       0.0
 9 H  px              0.1       0.0       0.0       0.1       0.0       0.0
10 H  s               0.1      10.9       0.2       0.9       6.7       0.2
10 H  pz              0.0       0.2       0.0       0.0       0.0       0.0
10 H  px              0.1       0.0       0.0       0.2       0.0       0.0
11 H  s               0.3       0.1       1.2       5.2       9.9       2.6
11 H  pz              0.0       0.0       0.0       0.1       0.0       0.0
11 H  px              0.0       0.0       0.0       0.0       0.0       0.1
11 H  py              0.0       0.0       0.0       0.0       0.1       0.1
12 H  s               0.3       1.4       0.0       2.5      14.9       0.2
12 H  px              0.0       0.0       0.0       0.2       0.0       0.0
12 H  py              0.0       0.0       0.0       0.0       0.0       0.2
13 H  s               0.0       8.2       1.1       2.1       8.6       0.6
13 H  pz              0.0       0.1       0.0       0.0       0.0       0.0
13 H  px              0.1       0.0       0.0       0.1       0.0       0.0
13 H  py              0.0       0.1       0.0       0.0       0.0       0.2
[...]
 4 C  py              0.1       0.3       2.2       0.0       0.0       0.0
 4 C  dz2             1.4       0.0       0.0       6.2       0.0       0.0
 4 C  dxz             1.2       0.8       5.7       0.3       0.0       0.0
 4 C  dyz             1.1       0.6       4.4       0.0       0.0       0.0
 4 C  dx2y2           0.2       0.0       0.0       0.0       0.0       0.0
 4 C  dxy             1.1       0.3       2.3       0.0       0.0       0.0
 5 O  s               0.7       1.1       0.7      18.8       0.0       0.0
 5 O  pz              0.5       0.9       0.3      21.4       0.0       0.0
 5 O  px              1.4       0.1       0.2       0.5       0.0       0.0
 5 O  py              0.9       0.1       0.0       0.1       0.0       0.0
 5 O  dz2             0.0       1.9       0.0      31.7       0.0       0.0
 5 O  dxz             3.3       0.0       1.1       1.4       0.0       0.0
 5 O  dyz             2.3       0.2       0.5       0.4       0.0       0.0
 5 O  dxy             0.3       0.0       0.4       0.0       0.0       0.0
 6 O  s               1.5      24.9       6.7       1.1       0.0       0.0
 6 O  pz              3.3       7.0       2.7       0.2       0.0       0.0
 6 O  px              0.2       4.7      17.0       0.4       0.0       0.0
 6 O  py              0.1       1.8      11.1       0.2       0.0       0.0
 6 O  dz2             4.0       1.1       0.1       0.1       0.0       0.0
 6 O  dxz             0.0       1.8      15.4       0.5       0.0       0.0
 6 O  dyz             0.4       0.4      11.1       0.2       0.0       0.0
 6 O  dx2y2           0.1       2.0       0.0       0.2       0.0       0.0
 6 O  dxy             0.0      21.0       3.0       1.1       0.0       0.0
 7 C  s               0.1       1.8       0.6       0.2       1.2      65.3
 7 C  pz              0.1       1.2       0.3       0.0       0.0       0.0
 7 C  px              0.0       4.3       1.2       0.2       0.0       0.0
 7 C  py              0.0       2.4       0.4       0.1       0.0       0.0
 7 C  dz2             0.1       0.6       0.3       0.0       0.0       0.0
 7 C  dxz             0.2       4.1       0.7       0.3       0.0       0.0
 7 C  dyz             0.0       1.4       0.6       0.1       0.0       0.0
 7 C  dx2y2           0.0       1.1       0.1       0.0       0.0       0.0
 7 C  dxy             0.2       6.3       1.0       0.1       0.0       0.0
 8 H  s               0.3       0.0       0.0       0.0       0.0       0.0
 8 H  pz              0.3       0.0       0.0       0.0       0.0       0.0
 8 H  px              0.4       0.0       0.0       0.0       0.0       0.0
 8 H  py              0.2       0.0       0.0       0.0       0.0       0.0
10 H  px              0.1       0.0       0.0       0.0       0.0       0.0
11 H  s               3.4       0.0       0.0       0.0       0.0       0.0
11 H  pz              2.6       0.0       0.0       0.0       0.0       0.0
11 H  px              2.7       0.0       0.0       0.0       0.0       0.0
11 H  py              3.8       0.0       0.0       0.0       0.0       0.0
12 H  s               0.7       0.0       0.0       0.0       0.0       0.0
12 H  pz              1.2       0.0       0.0       0.0       0.0       0.0
12 H  px              0.2       0.0       0.0       0.0       0.0       0.0
12 H  py              0.3       0.0       0.0       0.0       0.0       0.0
13 H  s               0.6       0.0       0.0       0.0       0.0       0.0
13 H  pz              1.3       0.0       0.0       0.0       0.0       0.0
13 H  py              0.3       0.0       0.0       0.0       0.0       0.0
14 H  s               1.5       0.0       0.0       0.0       0.0       0.0
14 H  pz              1.0       0.0       0.0       0.0       0.0       0.0
14 H  px              1.7       0.0       0.0       0.0       0.0       0.0
14 H  py              1.1       0.0       0.0       0.0       0.0       0.0
15 H  s               1.1       0.0       0.0       0.0       0.0       0.0
15 H  py              2.0       0.0       0.0       0.1       0.0       0.0
16 H  s               3.1       0.1       0.1       0.0       0.0       0.0
16 H  pz              7.2       0.1       0.1       0.0       0.0       0.0
16 H  px              0.2       0.0       0.0       0.0       0.0       0.0
16 H  py              0.2       0.0       0.0       0.0       0.0       0.0
17 H  s               0.0       0.2       0.1       0.0       0.0       0.0
17 H  pz              0.1       0.9       0.1       0.1       0.0       0.0
18 H  s               0.0       0.4       0.0       0.0       0.0       0.0
18 H  px              0.0       0.7       0.1       0.0       0.0       0.0
18 H  py              0.0       0.3       0.0       0.0       0.0       0.0
19 H  s               0.0       0.2       0.1       0.0       0.0       0.0
19 H  py              0.2       0.5       0.2       0.0       0.0       0.0

                    216       217       218       219       220       221   
                  22.00347  22.05575  22.08971  22.28554  43.67509  43.72620
                   0.00000   0.00000   0.00000   0.00000   0.00000   0.00000
                  --------  --------  --------  --------  --------  --------
 0 C  s               7.4      15.0       0.2       0.3       0.0       0.0
 1 C  s              71.8       0.0       0.4       0.0       0.0       0.0
 2 C  s               1.3      78.7       0.9       4.8       0.0       0.0
 3 C  s               5.8       0.7      78.8       0.6       0.0       0.0
 4 C  s               0.1       5.1       0.1      93.2       0.0       0.0
 5 O  s               0.0       0.0       0.0       0.2      98.8       1.1
 5 O  pz              0.0       0.0       0.0       0.1       0.0       0.0
 6 O  s               0.0       0.0       0.0       0.1       1.1      98.8
 7 C  s              13.4       0.2      19.2       0.2       0.0       0.0



                      *****************************
                      * MAYER POPULATION ANALYSIS *
                      *****************************

  NA   - Mulliken gross atomic population
  ZA   - Total nuclear charge
  QA   - Mulliken gross atomic charge
  VA   - Mayer's total valence
  BVA  - Mayer's bonded valence
  FA   - Mayer's free valence

  ATOM       NA         ZA         QA         VA         BVA        FA
  0 C      6.5182     6.0000    -0.5182     3.7975     3.7975    -0.0000
  1 C      6.2568     6.0000    -0.2568     3.6612     3.6612    -0.0000
  2 C      6.2736     6.0000    -0.2736     3.6575     3.6575     0.0000
  3 C      6.3067     6.0000    -0.3067     3.6642     3.6642    -0.0000
  4 C      5.6183     6.0000     0.3817     3.7769     3.7769    -0.0000
  5 O      8.5041     8.0000    -0.5041     1.8709     1.8709    -0.0000
  6 O      8.2006     8.0000    -0.2006     1.9653     1.9653     0.0000
  7 C      6.3287     6.0000    -0.3287     3.7463     3.7463     0.0000
  8 H      0.8450     1.0000     0.1550     0.9602     0.9602    -0.0000
  9 H      0.8421     1.0000     0.1579     0.9586     0.9586    -0.0000
 10 H      0.8456     1.0000     0.1544     0.9603     0.9603    -0.0000
 11 H      0.8474     1.0000     0.1526     0.9601     0.9601    -0.0000
 12 H      0.8455     1.0000     0.1545     0.9571     0.9571    -0.0000
 13 H      0.8413     1.0000     0.1587     0.9613     0.9613    -0.0000
 14 H      0.8361     1.0000     0.1639     0.9574     0.9574     0.0000
 15 H      0.8028     1.0000     0.1972     0.9465     0.9465    -0.0000
 16 H      0.8227     1.0000     0.1773     0.9577     0.9577    -0.0000
 17 H      0.8222     1.0000     0.1778     0.9505     0.9505    -0.0000
 18 H      0.8197     1.0000     0.1803     0.9481     0.9481    -0.0000
 19 H      0.8226     1.0000     0.1774     0.9525     0.9525    -0.0000

  Mayer bond orders larger than 0.100000
B(  0-C ,  1-C ) :   0.8932 B(  0-C ,  8-H ) :   0.9799 B(  0-C ,  9-H ) :   0.9712 
B(  0-C , 10-H ) :   0.9816 B(  1-C ,  2-C ) :   0.9169 B(  1-C , 11-H ) :   0.9586 
B(  1-C , 12-H ) :   0.9682 B(  2-C ,  3-C ) :   0.8759 B(  2-C , 13-H ) :   0.9779 
B(  2-C , 14-H ) :   0.9648 B(  3-C ,  4-C ) :   0.9420 B(  3-C , 15-H ) :   0.9334 
B(  3-C , 16-H ) :   0.9923 B(  4-C ,  5-O ) :   1.7577 B(  4-C ,  6-O ) :   1.0777 
B(  6-O ,  7-C ) :   0.8330 B(  7-C , 17-H ) :   0.9595 B(  7-C , 18-H ) :   0.9541 
B(  7-C , 19-H ) :   0.9597 

-------
TIMINGS
-------

Total SCF time: 0 days 0 hours 0 min 31 sec 

Total time                  ....      31.184 sec
Sum of individual times     ....      30.697 sec  ( 98.4%)

SCF preparation             ....       0.320 sec  (  1.0%)
Fock matrix formation       ....      29.372 sec  ( 94.2%)
  Startup                   ....       0.061 sec  (  0.2% of F)
  Split-RI-J                ....       4.637 sec  ( 15.8% of F)
  XC integration            ....      18.917 sec  ( 64.4% of F)
    Basis function eval.    ....       3.383 sec  ( 17.9% of XC)
    Density eval.           ....       5.770 sec  ( 30.5% of XC)
    XC-Functional eval.     ....       2.471 sec  ( 13.1% of XC)
    XC-Potential eval.      ....       6.270 sec  ( 33.1% of XC)
  CPCM terms                ....       5.170 sec  ( 17.6% of F)
Diagonalization             ....       0.000 sec  (  0.0%)
Density matrix formation    ....       0.277 sec  (  0.9%)
Total Energy calculation    ....       0.046 sec  (  0.1%)
Population analysis         ....       0.126 sec  (  0.4%)
Orbital Transformation      ....       0.061 sec  (  0.2%)
Orbital Orthonormalization  ....       0.000 sec  (  0.0%)
DIIS solution               ....       0.445 sec  (  1.4%)
  MO trafo                  ....       0.000 sec  (  0.0 % of DIIS)
  Orb grad                  ....       0.000 sec  (  0.0 % of DIIS)
  Energy W gradient         ....       0.000 sec  (  0.0 % of DIIS)
  DIIS error                ....       0.016 sec  (  3.6 % of DIIS)
  DIIS work                 ....       0.370 sec  ( 83.2 % of DIIS)
  Form Q                    ....       0.000 sec  (  0.0 % of DIIS)
  Form QpQm                 ....       0.000 sec  (  0.0 % of DIIS)
  Exp/Cayley                ....       0.000 sec  (  0.0 % of DIIS)
  Orb update                ....       0.000 sec  (  0.0 % of DIIS)
  Wake-sleep                ....       0.027 sec  (  6.0 % of DIIS)
SOSCF solution              ....       0.050 sec  (  0.2%)
  MO trafo                  ....       0.038 sec  ( 76.0 % of SOSCF)
  Orb grad                  ....       0.001 sec  (  1.1 % of SOSCF)
  Rot update                ....       0.000 sec  (  0.1 % of SOSCF)
  Step                      ....       0.011 sec  ( 22.6 % of SOSCF)
Finished LeanSCF after  31.3 sec

Maximum memory used throughout the entire LEANSCF-calculation: 30.3 MB


-------------------------------------------------------------------------------
                          DFT DISPERSION CORRECTION                            
                                                                               
                                DFTD4 V3.4.0                                   
-------------------------------------------------------------------------------
The R2SCAN3C composite method is recognized
Using three-body term ABC
Active option DFTDOPT                   ...         5   

-------------------------   ----------------
Dispersion correction           -0.005118403
-------------------------   ----------------

------------------   -----------------
gCP correction             0.011948145
------------------   -----------------

-------------------------   --------------------
FINAL SINGLE POINT ENERGY      -386.236395566475
-------------------------   --------------------


------------------------------------------------------------------------------
                              ORCA PROPERTY CALCULATIONS
------------------------------------------------------------------------------

GBWName                                 ... sp_solv.gbw
Number of atoms                         ...     20
Number of basis functions               ...    222
Max core memory                         ...   1024 MB

Electric properties:
Dipole moment                           ... YES
Quadrupole moment                       ...  NO
Static polarizability (Dipole/Dipole)   ...  NO
Static polarizability (Dipole/Quad.)    ...  NO
Static polarizability (Quad./Quad.)     ...  NO
Static polarizability (Velocity)        ...  NO

Atomic electric properties:
Dipole moment                           ...  NO
Quadrupole moment                       ...  NO
Static polarizability                   ...  NO

Choice of electric origin               ... Center of mass
Position of electric origin             ...    -0.000032    -0.000006    -0.000007

General magnetic properties:
Magnetizability                         ...  NO

EPR properties:
g-Tensor (aka g-matrix)                 ...  NO
Zero-Field splitting spin-orbit         ...  NO
Zero-field splitting spin-spin          ...  NO
Hyperfine couplings                     ...  NO (   0 nuclei)
Quadrupole couplings                    ...  NO (   0 nuclei)
Contact density                         ...  NO (   0 nuclei)

NMR properties:
Chemical shifts                         ...  NO (   0 nuclei)
Spin-rotation constants                 ...  NO (   0 nuclei)
Spin-spin couplings                     ...  NO (   0 nuclei,    0 pairs)

Choice of magnetic origin               ... GIAO
Position of magnetic origin             ...     0.000000     0.000000     0.000000

Properties with geometric perturbations:
SCF Hessian                             ...  NO
IR spectrum                             ...  NO
VCD spectrum                            ...  NO
X-ray spectroscopy properties:
SCF XES/XAS/RIXS spectra                ...  NO


-------------
DIPOLE MOMENT
-------------

Method             : SCF
Type of density    : Electron Density
Multiplicity       :   1
Irrep              :   0
Energy             :  -386.2432253079660995 Eh
Relativity type    : 
Basis              : AO
                                X                 Y                 Z
Electronic contribution:      7.997969281       2.349590715       0.407197460
Nuclear contribution   :     -7.919504517      -2.643153315      -1.453894198
                        -----------------------------------------
Total Dipole Moment    :      0.078464764      -0.293562600      -1.046696738
                        -----------------------------------------
Magnitude (a.u.)       :      1.089912740
Magnitude (Debye)      :      2.770338023



--------------------
Rotational spectrum 
--------------------
 
Rotational constants in cm-1:             0.127791             0.033176             0.031462 
Rotational constants in MHz :          3831.074885           994.577550           943.219729 

Dipole components along the rotational axes: 
x,y,z [a.u.] :     0.081532    -0.334298     1.034170 
x,y,z [Debye]:     0.207238    -0.849719     2.628650 

 

Dipole moment calculation done in   0.0 sec 

Maximum memory used throughout the entire PROP-calculation: 13.8 MB

--------------------------------
SUGGESTED CITATIONS FOR THIS RUN
--------------------------------

Below you find a list of papers that are relevant to this ORCA run
We neither can nor want to force you to cite these papers, but we appreciate if you do
You receive ORCA, which is the product of decades of hard work by many enthusiastic individuals, for free
The only thing we kindly ask in return is that you cite our papers,
We deeply appreciate it, if you show your appreciation for ORCA by not just citing the generic ORCA reference.

Please note that relegating all ORCA citations to the supporting information does *not* help us.
SI sections are not indexed - citations you put there will not count into any citation statistics
But we need these citations in order to attract the funding resources that allow us to do what we are doing

Therefore, if you are a happy ORCA user, please consider citing a few of the papers listed below in the main body of your paper

In addition to the list printed below, the program has created the file sp_solv.bibtex that contains the list in bibtex format
You can import this file easily into all common literature databanks and citation aid programs


List of essential papers. We consider these as the minimum necessary citations

  1. Neese,F.
     Software update: the ORCA program system, version 5.0
     WIRES Comput. Molec. Sci., 2022 12(1)e1606
     doi.org/10.1002/wcms.1606
  2. Grimme,S.; Hansen,A.; Ehlert,S.; Mewes,J.
     r2SCAN-3c: A 'Swiss army knife' composite electronic-structure method
     J. Chem. Phys., 2021 154 064103
     doi.org/10.1063/5.0040021

List of papers to cite with high priority. The work reported in these papers was absolutely
necessary for this run to complete.
Our perspective: the developers of density functionals and basis sets usually get cited in chemistry papers
Good! But without the algorithms to do something with them, the functionals or basis sets would not do anything.
Hence, in our opinion, the algorithm design and method developments papers are equally worthy of getting cited

  1. Neese,F.
     An improvement of the resolution of the identity approximation for the formation of the Coulomb matrix
     J. Comp. Chem., 2003 24(14)1740-1747
     doi.org/10.1002/jcc.10318
  2. Garcia-Rates,M.; Neese,F.
     Effect of the Solute Cavity on the Solvation Energy and its Derivatives within the Framework of the Gaussian Charge Scheme
     J. Comput. Chem., 2020 41 922-939
     doi.org/10.1002/jcc.26139
  3. Neese,F.
     The SHARK Integral Generation and Digestion System
     J. Comp. Chem., 2022  1-16
     doi.org/10.1002/jcc.26942
  4. Lehtola,S.; Steigemann,C.; Oliveira,M.; Marques,M.
     Recent developments in Libxc - A comprehensive library of functionals for density functional theory
     Software X, 2018 7 
     doi.org/10.1016/j.softx.2017.11.002
  5. Caldeweyher,E.; Bannwarth,C.; Grimme,S.
     Extension of the D3 dispersion coefficient model
     J. Chem. Phys., 2017 147 034112-XXXX
     doi.org/10.1063/1.4993215
  6. Caldeweyher,E.; Ehlert,S.; Hansen,A.; Neugebauer,H.; Spicher,S.; Bannwarth,C.; Grimme,S.
     A generally applicable atomic-charge dependent London dispersion correction
     J. Chem. Phys., 2019 150 154122-XXXX
     doi.org/10.1063/1.5090222
  7. Caldeweyher,E.; Mewes,J.; Ehlert,S.; Grimme,S.
     Extension and evaluation of the D4 London-dispersion model for periodic systems
     Phys. Chem. Chem. Phys., 2020 22(16)8499-8512
     doi.org/10.1039/D0CP00502A

List of suggested additional citations. These are papers that are important in the 'surrounding' of 
of this run, or papers that preceded the highly important papers. If you like your results we are grateful for a citation.

  1. Neese,F.
     The ORCA program system
     WIRES Comput. Molec. Sci., 2012 2(1)73-78
     doi.org/10.1002/wcms.81
  2. Neese,F.
     Software update: the ORCA program system, version 4.0
     WIRES Comput. Molec. Sci., 2018 8(1)1-6
     doi.org/10.1002/wcms.1327
  3. Neese,F.; Wennmohs,F.; Becker,U.; Riplinger,C.
     The ORCA quantum chemistry program package
     J. Chem. Phys., 2020 152 Art. No. L224108
     doi.org/10.1063/5.0004608

List of optional additional citations

  1. Neese,F.
     Approximate second-order SCF convergence for spin unrestricted wavefunctions
     Chem. Phys. Lett., 2000 325(1-3)93-98
     doi.org/10.1016/s0009-2614(00)00662-x

Timings for individual modules:

Sum of individual times          ...       32.985 sec (=   0.550 min)
Startup calculation              ...        1.216 sec (=   0.020 min)   3.7 %
SCF iterations                   ...       31.653 sec (=   0.528 min)  96.0 %
Property calculations            ...        0.116 sec (=   0.002 min)   0.4 %
                             ****ORCA TERMINATED NORMALLY****
TOTAL RUN TIME: 0 days 0 hours 0 minutes 33 seconds 786 msec
