 Entering Gaussian System
 *********************************************
 Gaussian 98:
 frequency output generated by the xtb code
 *********************************************
                         Standard orientation:
 --------------------------------------------------------------------
  Center     Atomic     Atomic              Coordinates (Angstroms)
  Number     Number      Type              X           Y           Z
 --------------------------------------------------------------------
    1          6             0       -4.620228   -1.164037   -0.066455
    2          6             0       -3.827488   -2.301752   -0.127642
    3          6             0       -2.449743   -2.186510   -0.123323
    4          6             0       -1.839656   -0.935573   -0.057441
    5          6             0       -2.640526    0.210526    0.004618
    6          6             0       -4.028518    0.083218   -0.000890
    7          6             0       -2.036806    1.547255    0.075583
    8          8             0       -2.728245    2.562522    0.126481
    9          6             0       -0.564837    1.612501    0.083678
   10          6             0        0.007156    2.870982    0.157756
   11          6             0        1.392146    3.016988    0.171687
   12          6             0        2.200807    1.914085    0.110478
   13          6             0        1.660600    0.606895    0.032305
   14          6             0        0.240387    0.451047    0.019258
   15          6             0       -0.365266   -0.860645   -0.056405
   16          8             0        0.290993   -1.915555   -0.119768
   17          7             0        2.467099   -0.458168   -0.031379
   18          6             0        3.907884   -0.428965   -0.018728
   19          6             0        4.448242   -1.863398   -0.072795
   20          8             0        5.852059   -1.908402    0.008893
   21          1             0       -5.695298   -1.250927   -0.069897
   22          1             0       -4.284321   -3.277600   -0.178780
   23          1             0       -1.815565   -3.059378   -0.170597
   24          1             0       -4.620397    0.985296    0.047590
   25          1             0       -0.646558    3.728272    0.204705
   26          1             0        1.824341    4.003435    0.230922
   27          1             0        3.270644    2.035036    0.123134
   28          1             0        2.003220   -1.362642   -0.078337
   29          1             0        4.278598    0.049909    0.895196
   30          1             0        4.280888    0.135041   -0.882750
   31          1             0        4.093481   -2.359881   -0.984970
   32          1             0        4.085579   -2.425801    0.790880
   33          1             0        6.236090   -1.493479   -0.776379
 --------------------------------------------------------------------
     1 basis functions        1 primitive gaussians
     1 alpha electrons        1 beta electrons
 
 Harmonic frequencies (cm**-1), IR intensities (km*mol⁻¹),
 Raman scattering activities (A**4/amu), Raman depolarization ratios,
 reduced masses (AMU), force constants (mDyne/A) and normal coordinates:
                      1                      2                      3
                        a                      a                      a 
 Frequencies --    23.9483                28.8751                65.9687
 Red. masses --    13.3042                12.4456                 8.4127
 Frc consts  --     0.0000                 0.0000                 0.0000
 IR Inten    --     0.5342                13.6930                 8.2641
 Raman Activ --     0.0000                 0.0000                 0.0000
 Depolar     --     0.0000                 0.0000                 0.0000
 Atom AN      X      Y      Z        X      Y      Z        X      Y      Z
   1   6    -0.00   0.01  -0.21    -0.00   0.01  -0.24    -0.02   0.03  -0.08
   2   6    -0.00   0.00  -0.06    -0.00   0.02  -0.28    -0.03   0.02   0.01
   3   6    -0.00  -0.00   0.09    -0.00   0.01  -0.14    -0.03   0.00   0.08
   4   6    -0.00  -0.00   0.08    -0.00  -0.00   0.02    -0.02  -0.01   0.07
   5   6    -0.00   0.00  -0.07    -0.00  -0.00   0.06    -0.01   0.01   0.00
   6   6    -0.00   0.01  -0.22    -0.00   0.00  -0.06    -0.01   0.02  -0.07
   7   6    -0.00   0.00  -0.08    -0.00  -0.01   0.22     0.00  -0.00   0.03
   8   8    -0.00   0.01  -0.19    -0.00  -0.03   0.55     0.02   0.00   0.11
   9   6    -0.00  -0.00   0.01     0.00  -0.00   0.05     0.00  -0.01  -0.02
  10   6    -0.00   0.00  -0.05     0.00   0.01  -0.12     0.01  -0.02  -0.02
  11   6    -0.00  -0.00   0.01     0.00   0.02  -0.30     0.01  -0.03  -0.01
  12   6    -0.00  -0.01   0.12     0.00   0.01  -0.28     0.00  -0.03  -0.03
  13   6    -0.00  -0.01   0.17     0.00   0.00  -0.07    -0.00  -0.03  -0.08
  14   6    -0.00  -0.01   0.14    -0.00  -0.00   0.05    -0.00  -0.02  -0.04
  15   6    -0.00  -0.01   0.23    -0.00  -0.01   0.15    -0.02  -0.02   0.08
  16   8    -0.00  -0.03   0.46    -0.00  -0.02   0.33    -0.03  -0.04   0.22
  17   7    -0.00  -0.02   0.27    -0.00  -0.00   0.01    -0.00  -0.02  -0.22
  18   6    -0.00  -0.00   0.12     0.00   0.00  -0.13    -0.00   0.00   0.02
  19   6     0.01   0.01  -0.23    -0.00  -0.01   0.15     0.06   0.04  -0.49
  20   8     0.02   0.01  -0.53     0.01   0.02   0.05     0.01   0.04   0.41
  21   1    -0.00   0.01  -0.10    -0.00   0.01  -0.10    -0.01   0.01  -0.04
  22   1    -0.00   0.00  -0.01    -0.00   0.01  -0.12    -0.01   0.01   0.00
  23   1    -0.00  -0.00   0.06    -0.00   0.00  -0.05    -0.01  -0.00   0.04
  24   1    -0.00   0.01  -0.10    -0.00   0.00  -0.01     0.00   0.01  -0.04
  25   1    -0.00   0.00  -0.04     0.00   0.00  -0.03     0.00  -0.00   0.00
  26   1    -0.00   0.00  -0.01     0.00   0.01  -0.13     0.01  -0.01   0.01
  27   1    -0.00  -0.00   0.05     0.00   0.01  -0.12     0.00  -0.01  -0.00
  28   1    -0.00  -0.01   0.10    -0.00  -0.00   0.04     0.00  -0.01  -0.03
  29   1     0.03  -0.05   0.05     0.02   0.06  -0.08    -0.04  -0.11   0.08
  30   1    -0.03   0.05   0.05    -0.02  -0.06  -0.08     0.03   0.11   0.09
  31   1    -0.04   0.05  -0.08    -0.02  -0.06   0.09     0.18   0.16  -0.29
  32   1     0.04  -0.04  -0.08     0.02   0.06   0.09    -0.13  -0.13  -0.30
  33   1    -0.03   0.04  -0.13    -0.02  -0.05  -0.02     0.14   0.15   0.25
                      4                      5                      6
                        a                      a                      a 
 Frequencies --    70.3787                72.1373               104.0484
 Red. masses --    12.9218                10.2722                11.6630
 Frc consts  --     0.0000                 0.0000                 0.0000
 IR Inten    --     1.0817                 3.1745                 0.2265
 Raman Activ --     0.0000                 0.0000                 0.0000
 Depolar     --     0.0000                 0.0000                 0.0000
 Atom AN      X      Y      Z        X      Y      Z        X      Y      Z
   1   6     0.13  -0.15  -0.01    -0.01   0.00   0.18    -0.00   0.01  -0.21
   2   6     0.19  -0.11  -0.01    -0.02   0.01  -0.07    -0.00  -0.01   0.30
   3   6     0.18  -0.03   0.00    -0.02   0.01  -0.20    -0.00  -0.02   0.40
   4   6     0.10   0.01   0.01    -0.01   0.01  -0.12    -0.00  -0.00   0.08
   5   6     0.04  -0.03   0.00    -0.00  -0.00   0.05    -0.00   0.01  -0.18
   6   6     0.05  -0.11  -0.01    -0.01  -0.00   0.22    -0.00   0.02  -0.41
   7   6    -0.02   0.00   0.01     0.00  -0.00   0.03    -0.00  -0.00   0.02
   8   8    -0.09  -0.04   0.04     0.01  -0.01   0.20     0.00  -0.02   0.42
   9   6    -0.02   0.08  -0.01     0.00   0.00  -0.13     0.00   0.00  -0.03
  10   6    -0.06   0.10  -0.03     0.01   0.01  -0.29     0.00  -0.00  -0.03
  11   6    -0.07   0.15  -0.02     0.01   0.00  -0.27     0.00  -0.00  -0.03
  12   6    -0.02   0.18  -0.00     0.00  -0.01  -0.02    -0.00  -0.00  -0.00
  13   6     0.02   0.17  -0.00    -0.00  -0.02   0.08    -0.00  -0.00  -0.03
  14   6     0.03   0.12  -0.01    -0.00  -0.01  -0.04    -0.00   0.00  -0.06
  15   6     0.09   0.09   0.01    -0.01  -0.00  -0.12    -0.00   0.00  -0.08
  16   8     0.15   0.12   0.03    -0.01   0.00  -0.21    -0.00   0.02  -0.35
  17   7     0.01   0.18  -0.01    -0.00  -0.04   0.35     0.00  -0.00  -0.01
  18   6     0.01   0.01   0.05    -0.00  -0.02   0.46    -0.00  -0.01   0.18
  19   6    -0.28  -0.10  -0.09     0.03   0.01  -0.08     0.01  -0.00   0.08
  20   8    -0.35  -0.55   0.02     0.04   0.02  -0.10     0.02   0.01  -0.09
  21   1     0.04  -0.06  -0.01    -0.00   0.00   0.09    -0.00   0.01  -0.12
  22   1     0.07  -0.04  -0.00    -0.01   0.01  -0.04    -0.00  -0.01   0.17
  23   1     0.07   0.00   0.00    -0.01   0.01  -0.10    -0.00  -0.01   0.20
  24   1    -0.00  -0.04  -0.00    -0.00  -0.00   0.11    -0.00   0.01  -0.20
  25   1    -0.03   0.02  -0.01     0.00   0.00  -0.11     0.00   0.00  -0.01
  26   1    -0.03   0.05  -0.01     0.00   0.00  -0.12     0.00  -0.00  -0.01
  27   1    -0.01   0.06   0.00    -0.00  -0.01   0.02    -0.00  -0.00   0.01
  28   1    -0.01   0.05   0.00     0.00  -0.01   0.10     0.00  -0.00  -0.02
  29   1     0.01  -0.04   0.04    -0.02  -0.11   0.20    -0.03  -0.03   0.08
  30   1     0.04   0.01   0.04     0.02   0.09   0.21     0.03   0.02   0.08
  31   1    -0.10   0.03  -0.06     0.01   0.10  -0.08    -0.03   0.01   0.03
  32   1    -0.14  -0.04  -0.06     0.01  -0.10  -0.09     0.03  -0.01   0.03
  33   1    -0.04  -0.13   0.03     0.01   0.10   0.02    -0.02   0.01  -0.03
                      7                      8                      9
                        a                      a                      a 
 Frequencies --   138.8318               152.7505               179.8753
 Red. masses --    11.3231                11.0471                10.3631
 Frc consts  --     0.0000                 0.0000                 0.0000
 IR Inten    --     1.5330                 8.6979                 0.3659
 Raman Activ --     0.0000                 0.0000                 0.0000
 Depolar     --     0.0000                 0.0000                 0.0000
 Atom AN      X      Y      Z        X      Y      Z        X      Y      Z
   1   6     0.00  -0.00  -0.09    -0.00   0.01  -0.20     0.00  -0.01   0.19
   2   6     0.01  -0.00   0.00    -0.00   0.01  -0.17     0.00  -0.01   0.20
   3   6     0.01  -0.00   0.08    -0.00  -0.01   0.12     0.00   0.01  -0.14
   4   6     0.00  -0.00   0.07    -0.00  -0.02   0.28    -0.00   0.02  -0.30
   5   6     0.00  -0.00   0.05    -0.00  -0.02   0.28    -0.00   0.02  -0.30
   6   6     0.00  -0.00  -0.04    -0.00  -0.00   0.08    -0.00   0.01  -0.16
   7   6    -0.00  -0.00   0.06     0.00  -0.01   0.14    -0.00   0.00  -0.05
   8   8    -0.00   0.01  -0.11     0.00   0.02  -0.34    -0.00   0.00   0.01
   9   6    -0.00  -0.01   0.17     0.00  -0.02   0.25    -0.00  -0.01   0.17
  10   6     0.00   0.01  -0.05    -0.00  -0.02   0.25    -0.00  -0.02   0.45
  11   6     0.00   0.01  -0.18     0.00   0.01  -0.14    -0.00   0.00  -0.02
  12   6     0.00   0.01  -0.01     0.00   0.02  -0.35     0.00   0.03  -0.42
  13   6    -0.00  -0.01   0.24     0.00   0.01  -0.11    -0.00   0.01  -0.07
  14   6    -0.00  -0.01   0.28     0.00  -0.01   0.10    -0.00   0.00  -0.03
  15   6     0.00   0.00   0.03    -0.00  -0.01   0.09     0.00   0.01  -0.10
  16   8     0.00   0.03  -0.39    -0.00   0.01  -0.24     0.00  -0.01   0.16
  17   7    -0.01  -0.03   0.48     0.00   0.01  -0.14    -0.00  -0.02   0.27
  18   6    -0.00   0.01  -0.35     0.00  -0.01   0.28    -0.00  -0.00   0.06
  19   6    -0.00   0.00  -0.21     0.00   0.00   0.06     0.00   0.00  -0.04
  20   8    -0.03  -0.01   0.18     0.01  -0.01  -0.08    -0.00  -0.01   0.01
  21   1     0.00   0.00  -0.05    -0.00   0.01  -0.13     0.00  -0.01   0.13
  22   1     0.00  -0.00  -0.00    -0.00   0.01  -0.11     0.00  -0.01   0.14
  23   1     0.00  -0.00   0.03    -0.00  -0.00   0.03     0.00   0.00  -0.04
  24   1    -0.00  -0.00  -0.03     0.00  -0.00   0.02    -0.00   0.00  -0.05
  25   1     0.00   0.00  -0.05    -0.00  -0.01   0.12    -0.00  -0.01   0.23
  26   1     0.00   0.01  -0.12     0.00   0.00  -0.09     0.00   0.00  -0.03
  27   1     0.00   0.00  -0.03     0.00   0.01  -0.20     0.00   0.01  -0.24
  28   1    -0.00  -0.00   0.08     0.00  -0.00  -0.00    -0.00  -0.01   0.12
  29   1     0.13   0.06  -0.19    -0.07  -0.06   0.14     0.03  -0.00   0.01
  30   1    -0.13  -0.06  -0.20     0.07   0.05   0.15    -0.03   0.00   0.01
  31   1     0.06  -0.01  -0.08    -0.02   0.04   0.00     0.01   0.02  -0.03
  32   1    -0.06   0.01  -0.08     0.02  -0.04  -0.00    -0.01  -0.02  -0.03
  33   1     0.06  -0.01   0.07    -0.02   0.03  -0.01     0.01   0.03   0.02
                     10                     11                     12
                        a                      a                      a 
 Frequencies --   205.5042               248.7245               253.0134
 Red. masses --    11.2972                12.3436                11.1336
 Frc consts  --     0.0000                 0.0000                 0.0000
 IR Inten    --     1.8500                 3.2777                 0.9950
 Raman Activ --     0.0000                 0.0000                 0.0000
 Depolar     --     0.0000                 0.0000                 0.0000
 Atom AN      X      Y      Z        X      Y      Z        X      Y      Z
   1   6    -0.16   0.23   0.02     0.08   0.16   0.02    -0.01  -0.03   0.17
   2   6    -0.27   0.16   0.01    -0.03   0.08   0.02     0.01  -0.02   0.12
   3   6    -0.23  -0.05  -0.01    -0.01  -0.09  -0.02     0.00   0.02  -0.21
   4   6    -0.01  -0.14  -0.01     0.12  -0.15  -0.02    -0.01   0.03  -0.16
   5   6     0.04  -0.10  -0.01     0.21  -0.08  -0.02    -0.02   0.02  -0.19
   6   6     0.03   0.13   0.00     0.22   0.08  -0.01    -0.02  -0.00  -0.18
   7   6     0.05  -0.14  -0.01     0.15  -0.07   0.00    -0.01   0.00   0.06
   8   8     0.05  -0.16  -0.01     0.13  -0.11  -0.01    -0.01   0.02  -0.04
   9   6     0.02  -0.14  -0.00     0.09  -0.04   0.03    -0.01  -0.02   0.35
  10   6    -0.12  -0.08  -0.01     0.10  -0.04  -0.01    -0.00   0.01  -0.12
  11   6    -0.15   0.08   0.00     0.10  -0.00  -0.02    -0.00   0.01  -0.22
  12   6    -0.08   0.13   0.01     0.04  -0.03   0.01    -0.00  -0.01   0.13
  13   6     0.05   0.07   0.01    -0.07   0.01   0.02     0.01  -0.02   0.22
  14   6     0.05  -0.11   0.00    -0.01  -0.08   0.04    -0.00  -0.02   0.48
  15   6     0.04  -0.15  -0.01     0.10  -0.15   0.00    -0.01   0.01   0.13
  16   8     0.10  -0.13  -0.01     0.16  -0.15  -0.01    -0.02   0.02  -0.05
  17   7     0.24   0.20   0.02    -0.19   0.00  -0.03     0.02   0.02  -0.43
  18   6     0.24   0.26   0.01    -0.25   0.11   0.01     0.02  -0.01   0.04
  19   6     0.06   0.18   0.00    -0.35   0.13   0.02     0.03  -0.01   0.04
  20   8     0.05  -0.30  -0.01    -0.42   0.30  -0.01     0.04  -0.02  -0.02
  21   1    -0.05   0.10   0.01     0.02   0.08   0.02    -0.00  -0.02   0.12
  22   1    -0.11   0.06   0.01    -0.04   0.04   0.01     0.01  -0.01   0.10
  23   1    -0.12  -0.05  -0.00    -0.03  -0.05  -0.01     0.00   0.01  -0.09
  24   1     0.06   0.07   0.00     0.10   0.05  -0.00    -0.01  -0.00  -0.07
  25   1    -0.07  -0.05  -0.00     0.02  -0.02  -0.01     0.00   0.01  -0.13
  26   1    -0.07   0.03  -0.00     0.03  -0.00  -0.02     0.00   0.01  -0.17
  27   1    -0.03   0.06   0.00     0.01  -0.03  -0.00    -0.00   0.00   0.01
  28   1     0.10   0.04   0.00    -0.05  -0.00  -0.01     0.01   0.00  -0.10
  29   1     0.07   0.07   0.00    -0.08   0.03   0.01    -0.07  -0.03   0.06
  30   1     0.07   0.07  -0.00    -0.07   0.03   0.01     0.08   0.02   0.06
  31   1    -0.02   0.08   0.00    -0.10   0.04   0.01    -0.00   0.00   0.01
  32   1    -0.02   0.08  -0.00    -0.09   0.04   0.01     0.02  -0.01   0.01
  33   1     0.05  -0.14  -0.01    -0.13   0.14   0.02     0.00  -0.02  -0.01
                     13                     14                     15
                        a                      a                      a 
 Frequencies --   291.4043               326.3097               339.1698
 Red. masses --    11.6011                11.0730                 4.5934
 Frc consts  --     0.0000                 0.0000                 0.0000
 IR Inten    --     2.3652                25.8463               181.3514
 Raman Activ --     0.0000                 0.0000                 0.0000
 Depolar     --     0.0000                 0.0000                 0.0000
 Atom AN      X      Y      Z        X      Y      Z        X      Y      Z
   1   6    -0.01   0.20   0.01     0.05  -0.02  -0.00     0.10   0.06  -0.00
   2   6    -0.08   0.15   0.01     0.10   0.01  -0.00     0.09   0.06   0.00
   3   6    -0.05  -0.03  -0.01     0.09   0.08   0.01     0.09   0.04   0.00
   4   6     0.10  -0.10  -0.01     0.03   0.09   0.01     0.07   0.03  -0.00
   5   6     0.13  -0.10  -0.01    -0.03   0.07   0.00     0.06   0.04   0.00
   6   6     0.13   0.11   0.00    -0.02   0.02   0.00     0.08   0.06   0.01
   7   6    -0.02  -0.07  -0.00     0.06  -0.00  -0.00     0.01   0.02   0.01
   8   8    -0.32  -0.28  -0.02     0.45   0.26   0.02     0.09   0.09   0.00
   9   6    -0.05   0.08   0.01     0.01  -0.20  -0.01    -0.03  -0.07   0.00
  10   6    -0.12   0.11   0.00    -0.24  -0.11  -0.01    -0.13  -0.03   0.01
  11   6    -0.12   0.12   0.00    -0.30   0.12   0.01    -0.15   0.03  -0.01
  12   6    -0.06   0.14   0.01    -0.17   0.20   0.01    -0.12   0.04   0.00
  13   6     0.03   0.09   0.01     0.04   0.10   0.01    -0.04   0.01   0.00
  14   6     0.01   0.10   0.01     0.08  -0.12  -0.00    -0.01  -0.05  -0.01
  15   6     0.10   0.04   0.01     0.04  -0.10  -0.00     0.05  -0.06  -0.01
  16   8     0.23   0.12   0.01    -0.13  -0.24  -0.01    -0.01  -0.13  -0.01
  17   7    -0.07  -0.01  -0.02     0.01   0.08  -0.00    -0.09  -0.02   0.01
  18   6    -0.05  -0.39  -0.02     0.00  -0.16  -0.03    -0.09  -0.08   0.05
  19   6     0.09  -0.37  -0.00    -0.03  -0.17   0.04     0.02  -0.06  -0.13
  20   8     0.15   0.12  -0.00    -0.02   0.04  -0.05     0.04   0.23   0.14
  21   1    -0.01   0.08   0.01     0.02  -0.02  -0.00     0.03   0.01  -0.00
  22   1    -0.05   0.06   0.00     0.04  -0.00  -0.00     0.02   0.02   0.00
  23   1    -0.05  -0.04  -0.00     0.04   0.03   0.00     0.03   0.01   0.00
  24   1     0.08   0.06   0.00    -0.02  -0.00   0.00     0.02   0.02   0.00
  25   1    -0.05   0.03  -0.00    -0.13  -0.07  -0.01    -0.06  -0.03   0.01
  26   1    -0.04   0.04  -0.00    -0.13   0.05   0.00    -0.05   0.01  -0.01
  27   1    -0.02   0.05   0.00    -0.05   0.10   0.00    -0.04   0.02   0.00
  28   1    -0.07   0.02  -0.01    -0.02   0.03  -0.01    -0.04  -0.00   0.03
  29   1     0.01  -0.12  -0.01     0.02  -0.03  -0.02    -0.03  -0.08   0.05
  30   1     0.01  -0.13  -0.01     0.02  -0.07  -0.02    -0.01   0.03   0.06
  31   1     0.07  -0.14  -0.00     0.00  -0.07   0.02     0.05  -0.00  -0.05
  32   1     0.07  -0.13   0.00     0.03  -0.06   0.02    -0.02  -0.04  -0.06
  33   1    -0.01   0.14   0.04    -0.04   0.34   0.14     0.04  -0.73  -0.37
                     16                     17                     18
                        a                      a                      a 
 Frequencies --   362.3942               379.3459               385.6261
 Red. masses --    11.8354                 9.6209                10.8841
 Frc consts  --     0.0000                 0.0000                 0.0000
 IR Inten    --    30.7296                 0.0099                 0.0415
 Raman Activ --     0.0000                 0.0000                 0.0000
 Depolar     --     0.0000                 0.0000                 0.0000
 Atom AN      X      Y      Z        X      Y      Z        X      Y      Z
   1   6     0.22   0.17   0.01     0.00  -0.01   0.13     0.00  -0.02   0.28
   2   6     0.24   0.19   0.01     0.00  -0.01   0.22    -0.00   0.01  -0.26
   3   6     0.22   0.13   0.01     0.00   0.02  -0.43    -0.00  -0.00   0.02
   4   6     0.15   0.12   0.01     0.00  -0.01   0.29    -0.00  -0.02   0.30
   5   6     0.12   0.10   0.00     0.00  -0.02   0.38     0.00   0.01  -0.27
   6   6     0.15   0.17   0.01     0.00   0.02  -0.42     0.00   0.00  -0.05
   7   6    -0.13   0.13   0.00     0.00  -0.01   0.19     0.00   0.02  -0.31
   8   8    -0.33   0.04   0.00    -0.00   0.00  -0.07     0.00  -0.01   0.15
   9   6    -0.15  -0.05  -0.00    -0.00   0.00  -0.08     0.00   0.01  -0.21
  10   6    -0.16  -0.09  -0.01    -0.00   0.00  -0.08     0.00   0.01  -0.07
  11   6    -0.16  -0.20  -0.01    -0.00  -0.01   0.09    -0.00  -0.01   0.28
  12   6    -0.18  -0.20  -0.01    -0.00   0.00  -0.02     0.00   0.02  -0.25
  13   6    -0.12  -0.20  -0.01    -0.00   0.01  -0.15     0.00   0.00  -0.05
  14   6    -0.10  -0.07   0.00    -0.00   0.01  -0.12    -0.00  -0.02   0.29
  15   6     0.08  -0.08  -0.00     0.00  -0.01   0.12    -0.00  -0.02   0.35
  16   8     0.07  -0.12  -0.01    -0.00  -0.00  -0.05    -0.00   0.01  -0.18
  17   7    -0.03  -0.15  -0.01    -0.00  -0.01   0.10    -0.00  -0.00   0.01
  18   6    -0.01   0.14  -0.01    -0.00   0.00   0.00    -0.00  -0.00   0.02
  19   6     0.07   0.15   0.04     0.00   0.00  -0.00     0.00  -0.00  -0.00
  20   8     0.07  -0.22  -0.04     0.00  -0.00   0.00     0.00   0.00   0.00
  21   1     0.06   0.03   0.00     0.00  -0.00   0.06     0.00  -0.01   0.18
  22   1     0.06   0.06   0.00     0.00  -0.01   0.12    -0.00   0.01  -0.18
  23   1     0.07   0.04   0.00     0.00   0.02  -0.31    -0.00  -0.00   0.00
  24   1     0.05   0.05   0.01     0.00   0.02  -0.31     0.00   0.00  -0.03
  25   1    -0.04  -0.02  -0.00    -0.00   0.00  -0.01     0.00   0.00  -0.06
  26   1    -0.03  -0.07  -0.00    -0.00  -0.01   0.09    -0.00  -0.01   0.17
  27   1    -0.05  -0.04  -0.01    -0.00  -0.00   0.03     0.00   0.01  -0.14
  28   1     0.03  -0.06  -0.01    -0.00  -0.00   0.01    -0.00  -0.00   0.03
  29   1    -0.03   0.07  -0.01     0.02   0.01  -0.01    -0.01  -0.00   0.01
  30   1    -0.03   0.04  -0.02    -0.02  -0.00  -0.01     0.00   0.00   0.01
  31   1    -0.01   0.05   0.02     0.00   0.00  -0.00     0.00   0.01  -0.00
  32   1     0.01   0.06   0.02    -0.00   0.00  -0.00    -0.00  -0.01  -0.00
  33   1     0.04   0.13   0.10     0.00  -0.00   0.00     0.00  -0.01  -0.01
                     19                     20                     21
                        a                      a                      a 
 Frequencies --   411.6425               421.0056               448.4849
 Red. masses --    14.8634                12.2838                 9.8692
 Frc consts  --     0.0000                 0.0000                 0.0000
 IR Inten    --    48.1498                 5.1365                 1.8157
 Raman Activ --     0.0000                 0.0000                 0.0000
 Depolar     --     0.0000                 0.0000                 0.0000
 Atom AN      X      Y      Z        X      Y      Z        X      Y      Z
   1   6    -0.08  -0.04  -0.00    -0.20  -0.00   0.00     0.00  -0.02   0.29
   2   6    -0.12  -0.06  -0.00     0.04   0.16   0.01    -0.00   0.01  -0.25
   3   6    -0.09  -0.07  -0.00     0.05   0.24   0.01    -0.00  -0.00   0.06
   4   6    -0.00  -0.09  -0.00     0.08   0.19   0.01     0.00  -0.02   0.36
   5   6    -0.01  -0.02  -0.00    -0.21   0.02   0.00     0.00   0.01  -0.18
   6   6    -0.01  -0.05  -0.00    -0.24   0.01  -0.00     0.00   0.01  -0.15
   7   6    -0.00   0.03   0.00    -0.17  -0.07  -0.01    -0.00   0.01  -0.08
   8   8     0.36   0.28   0.02    -0.16  -0.05  -0.00    -0.00   0.00   0.03
   9   6    -0.06   0.01   0.00    -0.09  -0.22  -0.02    -0.00  -0.00   0.08
  10   6    -0.13   0.02  -0.00    -0.01  -0.30  -0.02    -0.00  -0.02   0.28
  11   6    -0.14  -0.13  -0.01    -0.00  -0.21  -0.01     0.00   0.02  -0.38
  12   6    -0.18  -0.16  -0.01     0.22  -0.03  -0.00    -0.00  -0.02   0.29
  13   6    -0.10  -0.16  -0.01     0.20   0.00   0.00    -0.00  -0.01   0.10
  14   6    -0.10   0.04   0.00     0.17  -0.04  -0.00    -0.00   0.02  -0.37
  15   6     0.03   0.07   0.00     0.18   0.04   0.00    -0.00  -0.00  -0.01
  16   8     0.60   0.43   0.02     0.26   0.07   0.00    -0.00  -0.00   0.01
  17   7    -0.04  -0.12  -0.01     0.18   0.03   0.01     0.00   0.00   0.01
  18   6    -0.04   0.00  -0.00     0.11  -0.03   0.01     0.00   0.00  -0.02
  19   6     0.02   0.02   0.00    -0.17  -0.07  -0.02    -0.00  -0.00  -0.00
  20   8     0.02  -0.04  -0.00    -0.22   0.24   0.02    -0.00  -0.00   0.00
  21   1    -0.03   0.01   0.00    -0.05  -0.05  -0.00     0.00  -0.01   0.17
  22   1    -0.04  -0.01  -0.00     0.06   0.02   0.00    -0.00   0.01  -0.19
  23   1    -0.04  -0.03  -0.00     0.00   0.06   0.00    -0.00   0.00  -0.01
  24   1    -0.00  -0.01  -0.00    -0.06   0.01  -0.00     0.00   0.01  -0.10
  25   1    -0.03   0.01   0.00     0.01  -0.08  -0.00    -0.00  -0.01   0.17
  26   1    -0.01  -0.05  -0.00    -0.05  -0.04  -0.00     0.00   0.01  -0.26
  27   1    -0.05  -0.04  -0.00     0.06   0.02   0.00    -0.00  -0.01   0.12
  28   1     0.00  -0.04  -0.00     0.05   0.01   0.01     0.00   0.01  -0.11
  29   1    -0.02   0.01  -0.00     0.06  -0.04   0.01     0.01   0.00  -0.01
  30   1    -0.02   0.01  -0.00     0.06  -0.02   0.01    -0.01  -0.00  -0.01
  31   1     0.00   0.01   0.00    -0.04  -0.02  -0.01     0.00  -0.01   0.00
  32   1     0.00   0.00   0.00    -0.05  -0.02  -0.01    -0.00   0.01   0.00
  33   1     0.01  -0.00   0.00    -0.08  -0.01  -0.05     0.00   0.00   0.00
                     22                     23                     24
                        a                      a                      a 
 Frequencies --   470.9760               502.0314               510.2977
 Red. masses --    13.4832                10.8124                11.5220
 Frc consts  --     0.0000                 0.0000                 0.0000
 IR Inten    --     2.9921                 2.1453                15.3875
 Raman Activ --     0.0000                 0.0000                 0.0000
 Depolar     --     0.0000                 0.0000                 0.0000
 Atom AN      X      Y      Z        X      Y      Z        X      Y      Z
   1   6    -0.07  -0.10  -0.01    -0.01  -0.01   0.12     0.18   0.03   0.00
   2   6    -0.17  -0.14  -0.01    -0.00   0.01  -0.15    -0.00  -0.10  -0.01
   3   6    -0.16   0.01  -0.00     0.00  -0.00   0.11    -0.01  -0.13  -0.00
   4   6     0.05  -0.05  -0.00     0.00   0.00  -0.03    -0.11  -0.07  -0.01
   5   6     0.09   0.09   0.01    -0.00   0.01  -0.23     0.09   0.06  -0.00
   6   6     0.10  -0.16  -0.01    -0.00   0.00  -0.05     0.13   0.05   0.00
   7   6    -0.20   0.35   0.02    -0.00  -0.02   0.28     0.03   0.10   0.01
   8   8    -0.25   0.43   0.02     0.00   0.00  -0.10    -0.08   0.05  -0.00
   9   6    -0.10   0.04  -0.00    -0.00  -0.03   0.51     0.02   0.09   0.02
  10   6     0.13  -0.04  -0.00     0.00   0.01  -0.28    -0.06   0.12  -0.00
  11   6     0.14   0.08   0.01     0.00  -0.00   0.09    -0.07  -0.07  -0.00
  12   6     0.07   0.06   0.00     0.01   0.00   0.03    -0.20  -0.16  -0.01
  13   6    -0.08   0.11   0.01     0.00   0.04  -0.54    -0.02  -0.19  -0.03
  14   6    -0.11  -0.09  -0.00     0.00   0.01  -0.12    -0.06  -0.02  -0.00
  15   6     0.13  -0.30  -0.02     0.01  -0.00   0.03    -0.17   0.02   0.00
  16   8     0.25  -0.33  -0.02     0.01  -0.01  -0.00    -0.14   0.09   0.01
  17   7     0.02   0.18   0.01    -0.01  -0.01   0.17     0.42   0.09   0.02
  18   6     0.04  -0.04  -0.00    -0.01   0.00   0.02     0.40  -0.04   0.01
  19   6     0.02  -0.09  -0.00     0.00   0.00   0.00    -0.16  -0.17  -0.02
  20   8     0.04   0.01   0.00     0.01  -0.01   0.00    -0.24   0.26   0.02
  21   1    -0.02   0.02  -0.00    -0.00  -0.01   0.11     0.05   0.03   0.00
  22   1    -0.03  -0.05  -0.00     0.00   0.00  -0.06    -0.04  -0.01  -0.00
  23   1    -0.05  -0.00  -0.00    -0.00  -0.00   0.10     0.02  -0.02   0.00
  24   1     0.01  -0.05  -0.00    -0.00  -0.00   0.04     0.02   0.00   0.00
  25   1     0.05   0.00  -0.00     0.00   0.01  -0.14    -0.01   0.04  -0.00
  26   1     0.03   0.03   0.00    -0.00  -0.01   0.15     0.04  -0.04   0.00
  27   1     0.03  -0.03  -0.00     0.00  -0.01   0.21    -0.06  -0.06   0.00
  28   1     0.01   0.04  -0.00    -0.01  -0.00   0.05     0.17  -0.00   0.01
  29   1     0.03  -0.03  -0.00     0.01  -0.00  -0.00     0.18  -0.07   0.01
  30   1     0.03  -0.03  -0.00    -0.03   0.00  -0.00     0.17  -0.04   0.01
  31   1     0.02  -0.03  -0.00     0.00   0.00   0.00    -0.04  -0.05  -0.01
  32   1     0.01  -0.03  -0.00     0.00   0.00   0.00    -0.05  -0.04  -0.00
  33   1     0.00   0.01  -0.00     0.00  -0.00   0.00    -0.11   0.02  -0.04
                     25                     26                     27
                        a                      a                      a 
 Frequencies --   571.4476               580.1368               605.0729
 Red. masses --     2.3148                11.7178                11.6108
 Frc consts  --     0.0000                 0.0000                 0.0000
 IR Inten    --   104.7929                 4.4998                 0.9733
 Raman Activ --     0.0000                 0.0000                 0.0000
 Depolar     --     0.0000                 0.0000                 0.0000
 Atom AN      X      Y      Z        X      Y      Z        X      Y      Z
   1   6    -0.02  -0.02   0.05    -0.27  -0.15  -0.01     0.08  -0.00  -0.01
   2   6    -0.01  -0.00  -0.04    -0.12  -0.01   0.00    -0.19  -0.17  -0.00
   3   6    -0.01   0.02   0.04    -0.13   0.34   0.01    -0.17  -0.06  -0.01
   4   6     0.02   0.01   0.03     0.18   0.17   0.01     0.03  -0.07  -0.00
   5   6     0.01   0.00   0.02     0.07   0.03  -0.00     0.23   0.01  -0.01
   6   6     0.01  -0.02  -0.04     0.04  -0.26  -0.01     0.33  -0.13   0.00
   7   6     0.01   0.00   0.02     0.13   0.01  -0.00    -0.08   0.12   0.00
   8   8    -0.01  -0.00  -0.00    -0.02  -0.11  -0.01    -0.08   0.17   0.01
   9   6     0.01   0.01   0.01     0.16   0.19   0.01    -0.09  -0.10  -0.01
  10   6    -0.01   0.03   0.00    -0.11   0.36   0.02    -0.17  -0.15  -0.00
  11   6    -0.01   0.01  -0.02    -0.09   0.08   0.01    -0.19  -0.21  -0.02
  12   6    -0.01  -0.00   0.04    -0.20  -0.06  -0.01     0.26   0.08   0.01
  13   6     0.02  -0.02   0.09     0.11  -0.19  -0.02     0.30   0.04  -0.01
  14   6     0.02   0.01  -0.04     0.14   0.06   0.01     0.22   0.14   0.01
  15   6     0.02   0.00  -0.10     0.21  -0.03   0.01     0.01   0.22   0.02
  16   8    -0.00  -0.02  -0.03    -0.01  -0.21  -0.01    -0.24   0.14   0.01
  17   7     0.01  -0.02  -0.26     0.06  -0.28   0.01    -0.01  -0.20  -0.00
  18   6     0.00   0.00  -0.02     0.02   0.01   0.00    -0.05   0.01   0.00
  19   6    -0.00   0.01  -0.00    -0.03   0.06   0.00    -0.01   0.09   0.00
  20   8    -0.01  -0.00   0.01    -0.08   0.03   0.00    -0.04  -0.01  -0.00
  21   1    -0.01   0.00   0.02    -0.08  -0.00  -0.00     0.01   0.11   0.00
  22   1     0.00  -0.00  -0.04     0.07  -0.05   0.00    -0.07  -0.04   0.00
  23   1    -0.01   0.01  -0.00    -0.05   0.09   0.01    -0.05  -0.02  -0.00
  24   1     0.00  -0.00  -0.04     0.02  -0.07  -0.00     0.10  -0.03   0.00
  25   1    -0.00   0.01   0.01    -0.04   0.09   0.00    -0.03  -0.03   0.00
  26   1     0.00  -0.00   0.02     0.06  -0.01  -0.00    -0.12  -0.03  -0.00
  27   1    -0.00   0.00   0.06    -0.06   0.03  -0.00     0.06   0.14   0.01
  28   1     0.00  -0.06   0.94     0.03  -0.08  -0.09    -0.04  -0.03  -0.02
  29   1     0.03   0.01  -0.02    -0.02   0.02   0.00    -0.05   0.02   0.00
  30   1    -0.04  -0.00  -0.02    -0.01   0.02   0.00    -0.04   0.02   0.00
  31   1    -0.01  -0.01   0.01    -0.02   0.02  -0.00    -0.01   0.03   0.00
  32   1     0.01   0.01   0.01    -0.02   0.02   0.00    -0.01   0.03   0.00
  33   1    -0.00   0.02   0.01    -0.02  -0.00  -0.01     0.00  -0.01   0.00
                     28                     29                     30
                        a                      a                      a 
 Frequencies --   619.8593               664.8089               669.7605
 Red. masses --    10.4533                11.8649                10.3729
 Frc consts  --     0.0000                 0.0000                 0.0000
 IR Inten    --     7.8789                 3.7832                17.1943
 Raman Activ --     0.0000                 0.0000                 0.0000
 Depolar     --     0.0000                 0.0000                 0.0000
 Atom AN      X      Y      Z        X      Y      Z        X      Y      Z
   1   6     0.00  -0.02   0.28     0.11  -0.09  -0.00    -0.00   0.01  -0.15
   2   6    -0.01   0.01  -0.26    -0.11  -0.19  -0.01    -0.00  -0.01   0.22
   3   6    -0.00  -0.01   0.26    -0.18   0.36   0.02    -0.00   0.02  -0.17
   4   6     0.00   0.00  -0.10    -0.09   0.25   0.01     0.00  -0.02   0.40
   5   6     0.01  -0.01   0.21     0.14   0.24   0.02     0.00   0.01  -0.21
   6   6     0.01   0.01  -0.26     0.22  -0.11  -0.01     0.01  -0.02   0.21
   7   6    -0.00  -0.01   0.20     0.23   0.02   0.00     0.00   0.01  -0.29
   8   8    -0.00   0.01  -0.05    -0.09  -0.25  -0.01     0.00  -0.01   0.08
   9   6    -0.00  -0.01   0.05     0.13  -0.22  -0.02    -0.00  -0.03   0.42
  10   6    -0.00   0.01  -0.18     0.10  -0.28  -0.01     0.00   0.01  -0.16
  11   6    -0.01  -0.02   0.23     0.03   0.08   0.00     0.00  -0.01   0.20
  12   6     0.01   0.01  -0.19    -0.13   0.01   0.00    -0.00   0.00  -0.10
  13   6     0.01  -0.02   0.36    -0.15   0.02  -0.00    -0.01  -0.01   0.20
  14   6     0.01   0.01  -0.04    -0.06  -0.20  -0.01    -0.00   0.01  -0.24
  15   6    -0.00   0.03  -0.45    -0.18   0.02   0.00    -0.00   0.02  -0.23
  16   8    -0.01  -0.00   0.14     0.07   0.25   0.01    -0.00  -0.00   0.07
  17   7     0.00  -0.00  -0.03    -0.05   0.15   0.01    -0.00   0.01  -0.01
  18   6    -0.00  -0.00   0.00    -0.05  -0.00  -0.00     0.00  -0.00   0.01
  19   6    -0.00   0.00  -0.00     0.01  -0.03   0.00     0.00  -0.00  -0.00
  20   8    -0.00   0.00  -0.00     0.04  -0.02  -0.00     0.00   0.00  -0.00
  21   1     0.00  -0.00   0.10     0.02   0.07   0.00    -0.00   0.01  -0.16
  22   1    -0.00   0.01  -0.17     0.03  -0.08  -0.00     0.00   0.00  -0.04
  23   1    -0.00  -0.00   0.07     0.03   0.15   0.01    -0.00   0.01  -0.21
  24   1     0.00   0.01  -0.16     0.01  -0.06  -0.00     0.00  -0.00  -0.01
  25   1    -0.00   0.01  -0.12    -0.04  -0.13  -0.01     0.00   0.01  -0.22
  26   1    -0.00  -0.00   0.02    -0.03   0.04   0.00     0.00   0.00  -0.06
  27   1     0.00   0.02  -0.22    -0.03  -0.06  -0.00     0.00   0.01  -0.18
  28   1    -0.00   0.01  -0.13    -0.02   0.04   0.01     0.00   0.00  -0.01
  29   1    -0.02   0.01   0.00    -0.00  -0.01  -0.00     0.00   0.01  -0.01
  30   1     0.01  -0.01   0.00    -0.00  -0.01  -0.00     0.00  -0.01  -0.01
  31   1     0.00   0.01  -0.01     0.01  -0.01  -0.00     0.00   0.01  -0.00
  32   1    -0.00  -0.01  -0.01     0.01  -0.02  -0.00    -0.00  -0.01  -0.01
  33   1    -0.00  -0.00  -0.00     0.01   0.00   0.00     0.00  -0.00  -0.00
                     31                     32                     33
                        a                      a                      a 
 Frequencies --   682.7033               692.5080               761.3123
 Red. masses --    11.8753                10.3125                10.5428
 Frc consts  --     0.0000                 0.0000                 0.0000
 IR Inten    --     2.7920                63.2918                 0.2618
 Raman Activ --     0.0000                 0.0000                 0.0000
 Depolar     --     0.0000                 0.0000                 0.0000
 Atom AN      X      Y      Z        X      Y      Z        X      Y      Z
   1   6     0.21   0.02   0.00     0.00   0.01  -0.12     0.00   0.00  -0.06
   2   6    -0.02  -0.18  -0.01    -0.00  -0.00  -0.01    -0.00  -0.01   0.10
   3   6    -0.03  -0.19  -0.01    -0.00   0.00  -0.11    -0.00   0.00  -0.05
   4   6    -0.24  -0.01   0.01    -0.00  -0.00   0.02     0.00  -0.02   0.36
   5   6    -0.15   0.19   0.01    -0.00   0.02  -0.25    -0.00   0.02  -0.38
   6   6    -0.20   0.25   0.02    -0.00   0.00   0.01     0.00  -0.00   0.08
   7   6     0.07   0.16  -0.00     0.00  -0.02   0.44    -0.00  -0.02   0.41
   8   8    -0.22   0.01   0.00    -0.00   0.01  -0.12     0.00   0.00  -0.10
   9   6     0.21  -0.07   0.00     0.00   0.00  -0.08     0.00   0.02  -0.27
  10   6     0.01   0.05   0.00     0.00   0.01  -0.11    -0.00   0.00  -0.03
  11   6    -0.03   0.26   0.02    -0.00  -0.00   0.12     0.00   0.01  -0.10
  12   6    -0.04   0.16   0.01    -0.00   0.01  -0.14     0.00   0.00  -0.06
  13   6     0.26  -0.11  -0.01     0.00  -0.03   0.40     0.00   0.00  -0.01
  14   6     0.20  -0.15  -0.01     0.00   0.02  -0.40    -0.00  -0.02   0.32
  15   6    -0.05  -0.13  -0.02    -0.00  -0.02   0.37    -0.00   0.02  -0.42
  16   8     0.23  -0.00   0.00     0.00   0.01  -0.11     0.00  -0.01   0.10
  17   7     0.02  -0.36  -0.02     0.00   0.00  -0.07    -0.00  -0.00   0.01
  18   6    -0.06  -0.02  -0.00    -0.00  -0.00  -0.00    -0.00   0.00  -0.01
  19   6    -0.01   0.10   0.00    -0.00   0.00  -0.00     0.00   0.00  -0.00
  20   8    -0.06   0.00  -0.00    -0.00  -0.00  -0.00    -0.00  -0.00   0.00
  21   1     0.06  -0.03  -0.01     0.00  -0.01   0.18     0.00   0.00  -0.02
  22   1    -0.08  -0.02  -0.00    -0.00  -0.01   0.21    -0.00   0.00  -0.08
  23   1     0.04  -0.02  -0.01     0.00  -0.01   0.16    -0.00   0.01  -0.13
  24   1    -0.14   0.02  -0.00    -0.00  -0.01   0.23    -0.00  -0.00   0.05
  25   1    -0.07  -0.04  -0.01    -0.00  -0.00   0.05    -0.00  -0.01   0.23
  26   1    -0.01   0.08   0.00    -0.00  -0.00   0.03    -0.00  -0.01   0.19
  27   1    -0.01   0.11   0.00     0.00   0.01  -0.09    -0.00  -0.01   0.16
  28   1    -0.03  -0.08  -0.01     0.00  -0.00  -0.00    -0.00   0.00  -0.04
  29   1    -0.06   0.03   0.00    -0.00   0.01  -0.01    -0.01  -0.02   0.01
  30   1    -0.05   0.03   0.00    -0.00  -0.01  -0.01     0.01   0.02   0.01
  31   1    -0.02   0.03   0.00    -0.00   0.01  -0.00    -0.00  -0.02   0.01
  32   1    -0.01   0.03   0.00     0.00  -0.00  -0.00     0.00   0.02   0.01
  33   1    -0.00  -0.01   0.00    -0.00  -0.00  -0.00     0.00   0.00   0.00
                     34                     35                     36
                        a                      a                      a 
 Frequencies --   771.1973               779.4430               801.4743
 Red. masses --    11.7215                 4.8368                 5.2982
 Frc consts  --     0.0000                 0.0000                 0.0000
 IR Inten    --     1.2262                 1.6590                22.9351
 Raman Activ --     0.0000                 0.0000                 0.0000
 Depolar     --     0.0000                 0.0000                 0.0000
 Atom AN      X      Y      Z        X      Y      Z        X      Y      Z
   1   6    -0.27   0.00  -0.00    -0.00  -0.01   0.15    -0.00  -0.01   0.12
   2   6     0.10   0.27   0.01     0.00  -0.00   0.12     0.00  -0.01   0.14
   3   6     0.14  -0.10  -0.01     0.00  -0.01   0.12     0.00  -0.01   0.09
   4   6     0.12  -0.11  -0.00     0.00   0.01  -0.22     0.00   0.01  -0.13
   5   6     0.09  -0.16  -0.01     0.00   0.00  -0.04    -0.00   0.01  -0.21
   6   6     0.09  -0.20  -0.01     0.00  -0.01   0.10     0.00  -0.01   0.10
   7   6    -0.12   0.08   0.01    -0.00   0.00  -0.03    -0.00  -0.02   0.31
   8   8    -0.09   0.18   0.01    -0.00   0.00   0.00    -0.00   0.00  -0.08
   9   6     0.04  -0.17  -0.01    -0.00  -0.01   0.11     0.00   0.01  -0.19
  10   6     0.21  -0.23  -0.01     0.00   0.00  -0.12     0.00  -0.01   0.09
  11   6     0.14   0.42   0.03     0.00   0.01  -0.08    -0.00  -0.01   0.10
  12   6    -0.25   0.09   0.01    -0.00   0.02  -0.25    -0.00  -0.01   0.24
  13   6     0.00  -0.13  -0.01    -0.00  -0.02   0.24     0.00   0.01  -0.15
  14   6     0.04  -0.11  -0.01     0.00   0.01  -0.14     0.00   0.00  -0.03
  15   6    -0.09   0.13   0.00    -0.00  -0.01   0.24     0.00  -0.01   0.16
  16   8    -0.14   0.21   0.01    -0.00   0.01  -0.06    -0.00   0.00  -0.04
  17   7     0.05  -0.20  -0.01    -0.00  -0.00  -0.03     0.00   0.00   0.00
  18   6     0.05  -0.01  -0.00     0.00   0.00  -0.03    -0.00  -0.00   0.06
  19   6    -0.00   0.03  -0.00     0.00   0.00  -0.02    -0.00  -0.00   0.04
  20   8    -0.04   0.01   0.00    -0.00  -0.00   0.01     0.00   0.00  -0.01
  21   1    -0.07  -0.02   0.00    -0.00   0.02  -0.36    -0.00   0.02  -0.31
  22   1     0.06   0.06   0.01     0.00   0.02  -0.34    -0.00   0.02  -0.32
  23   1    -0.03  -0.08  -0.00    -0.00   0.01  -0.21    -0.00   0.01  -0.20
  24   1     0.11  -0.00   0.00     0.00   0.01  -0.26     0.00   0.01  -0.18
  25   1    -0.03  -0.13  -0.01    -0.00  -0.02   0.28     0.00   0.01  -0.22
  26   1     0.02   0.12   0.00    -0.00  -0.01   0.27     0.00   0.01  -0.26
  27   1    -0.06  -0.03  -0.01    -0.00  -0.02   0.37     0.00   0.02  -0.40
  28   1     0.01  -0.05  -0.00     0.00   0.00  -0.05     0.00  -0.00   0.04
  29   1    -0.00   0.00   0.00    -0.01  -0.05   0.02     0.01   0.11  -0.05
  30   1     0.00   0.01   0.00     0.01   0.05   0.03    -0.01  -0.11  -0.06
  31   1    -0.01   0.01   0.00    -0.01  -0.04   0.02     0.02   0.10  -0.05
  32   1    -0.01   0.02   0.00     0.01   0.04   0.03    -0.02  -0.10  -0.06
  33   1    -0.01  -0.00  -0.00     0.00   0.00   0.01    -0.02  -0.01  -0.02
                     37                     38                     39
                        a                      a                      a 
 Frequencies --   822.5653               874.6072               880.1080
 Red. masses --     2.3511                11.6681                 3.9723
 Frc consts  --     0.0000                 0.0000                 0.0000
 IR Inten    --     3.1701                 3.6122                 0.1023
 Raman Activ --     0.0000                 0.0000                 0.0000
 Depolar     --     0.0000                 0.0000                 0.0000
 Atom AN      X      Y      Z        X      Y      Z        X      Y      Z
   1   6     0.01  -0.00   0.01     0.34   0.05   0.00    -0.01  -0.00   0.02
   2   6    -0.00  -0.00   0.02    -0.13  -0.24  -0.01     0.00   0.01  -0.03
   3   6    -0.00   0.01   0.01    -0.16   0.21   0.01     0.00  -0.00  -0.03
   4   6    -0.00   0.00  -0.01     0.10   0.07   0.00    -0.00  -0.00  -0.01
   5   6    -0.00   0.00  -0.04    -0.08  -0.13  -0.01     0.00   0.00   0.02
   6   6     0.00   0.00   0.01     0.02   0.15   0.01    -0.00  -0.01   0.03
   7   6    -0.00  -0.01   0.07    -0.33  -0.30  -0.02     0.01   0.01  -0.07
   8   8     0.01  -0.00  -0.02     0.17  -0.02   0.00    -0.00  -0.00   0.01
   9   6    -0.01   0.01  -0.06    -0.32   0.02   0.00     0.01  -0.01   0.11
  10   6    -0.00  -0.00   0.07     0.12  -0.10  -0.02    -0.00   0.02  -0.38
  11   6     0.00  -0.00   0.07     0.16   0.29   0.02    -0.00  -0.01  -0.04
  12   6     0.00   0.00   0.04    -0.09   0.05   0.01     0.00  -0.02   0.31
  13   6    -0.00   0.01  -0.04    -0.04  -0.08  -0.01     0.00   0.01  -0.07
  14   6    -0.01   0.00  -0.02    -0.09   0.17   0.01     0.00  -0.01   0.02
  15   6    -0.00  -0.00   0.03     0.18   0.08   0.00    -0.01  -0.00   0.01
  16   8     0.00  -0.00  -0.01    -0.02  -0.06  -0.00     0.00   0.00  -0.00
  17   7    -0.01  -0.01   0.08     0.03  -0.21  -0.01    -0.00   0.00   0.02
  18   6     0.01   0.00  -0.20     0.12  -0.00   0.00    -0.00  -0.00  -0.01
  19   6     0.01   0.02  -0.21     0.01   0.02   0.00     0.00   0.00  -0.03
  20   8    -0.03  -0.01   0.05    -0.05   0.02   0.00    -0.00   0.00   0.00
  21   1     0.00   0.00  -0.04     0.09   0.08   0.00    -0.00  -0.00  -0.03
  22   1    -0.00   0.00  -0.04    -0.06  -0.05  -0.00     0.00  -0.00   0.05
  23   1     0.00   0.00  -0.03    -0.01   0.08   0.01     0.00  -0.01   0.07
  24   1    -0.00   0.00  -0.02     0.00   0.03   0.00    -0.00   0.00  -0.07
  25   1     0.00   0.01  -0.15     0.05  -0.01   0.02    -0.00  -0.04   0.64
  26   1    -0.00   0.01  -0.14     0.02   0.09   0.01    -0.00  -0.01   0.14
  27   1     0.00   0.01  -0.11    -0.01  -0.05  -0.02     0.00   0.03  -0.52
  28   1    -0.00  -0.00   0.03     0.04  -0.07  -0.01    -0.00   0.00   0.02
  29   1    -0.04  -0.40   0.19     0.02   0.01  -0.00    -0.01  -0.03   0.02
  30   1     0.04   0.38   0.23     0.02  -0.00  -0.00     0.01   0.03   0.02
  31   1    -0.07  -0.40   0.20    -0.01   0.02  -0.00    -0.01  -0.04   0.02
  32   1     0.07   0.38   0.23    -0.01   0.01  -0.00     0.01   0.04   0.02
  33   1     0.09   0.03   0.07    -0.02   0.00  -0.00     0.02   0.00   0.01
                     40                     41                     42
                        a                      a                      a 
 Frequencies --   894.4587               913.9833               922.0005
 Red. masses --     3.5963                11.3849                 3.5662
 Frc consts  --     0.0000                 0.0000                 0.0000
 IR Inten    --     0.0036                12.4507                 0.0911
 Raman Activ --     0.0000                 0.0000                 0.0000
 Depolar     --     0.0000                 0.0000                 0.0000
 Atom AN      X      Y      Z        X      Y      Z        X      Y      Z
   1   6     0.00  -0.01   0.16    -0.04  -0.01  -0.00     0.00   0.00  -0.01
   2   6    -0.00   0.01  -0.16     0.13   0.18   0.01    -0.00  -0.00   0.00
   3   6    -0.00   0.02  -0.29     0.03   0.15   0.01    -0.00  -0.00  -0.00
   4   6     0.00  -0.00   0.07    -0.17   0.02   0.00     0.00  -0.00   0.00
   5   6    -0.00   0.00  -0.07     0.04  -0.00  -0.00    -0.00   0.00  -0.00
   6   6    -0.00  -0.01   0.28     0.17  -0.15  -0.01    -0.00   0.00   0.01
   7   6    -0.00  -0.00   0.06    -0.05  -0.10  -0.01     0.00   0.00  -0.00
   8   8    -0.00   0.00  -0.01     0.10  -0.05  -0.00    -0.00   0.00  -0.00
   9   6     0.00   0.00  -0.03    -0.18   0.08   0.00     0.00   0.00  -0.03
  10   6    -0.00  -0.00   0.05    -0.10   0.14   0.01     0.00   0.01  -0.20
  11   6    -0.00  -0.00   0.00    -0.01   0.07   0.01    -0.00  -0.02   0.40
  12   6    -0.00   0.00  -0.03     0.39   0.20   0.01    -0.00   0.01  -0.14
  13   6    -0.00  -0.00   0.01     0.04  -0.02  -0.00    -0.00   0.00  -0.07
  14   6     0.00  -0.00   0.01    -0.31  -0.12  -0.01     0.00  -0.00   0.07
  15   6     0.00   0.00  -0.05    -0.41  -0.28  -0.01     0.00   0.00  -0.01
  16   8    -0.00  -0.00   0.01     0.13   0.03   0.00    -0.00  -0.00  -0.00
  17   7    -0.00   0.00  -0.00     0.03  -0.26  -0.02    -0.00   0.00  -0.00
  18   6    -0.00   0.00   0.00     0.15  -0.03   0.00    -0.00   0.00   0.00
  19   6    -0.00  -0.00   0.00     0.02   0.04   0.00    -0.00  -0.00   0.01
  20   8     0.00  -0.00  -0.00    -0.07   0.02   0.00     0.00  -0.00  -0.00
  21   1    -0.00   0.01  -0.27    -0.01   0.01   0.00     0.00  -0.00   0.01
  22   1     0.00  -0.01   0.26     0.10   0.02   0.00    -0.00   0.00  -0.01
  23   1     0.00  -0.03   0.56     0.05   0.08   0.01    -0.00  -0.00   0.01
  24   1    -0.00   0.03  -0.55     0.08  -0.02  -0.00    -0.00   0.00  -0.02
  25   1     0.00   0.00  -0.09     0.01   0.07   0.01    -0.00  -0.02   0.37
  26   1     0.00   0.00  -0.01    -0.10   0.07  -0.00     0.00   0.04  -0.74
  27   1    -0.00  -0.00   0.06     0.10   0.13   0.01    -0.00  -0.02   0.29
  28   1     0.00   0.00  -0.00     0.02  -0.07  -0.01    -0.00  -0.00   0.02
  29   1     0.00   0.00  -0.00     0.02   0.01  -0.00     0.01   0.01  -0.01
  30   1    -0.00  -0.00  -0.00     0.02  -0.00  -0.00    -0.01  -0.00  -0.01
  31   1     0.00   0.00  -0.00    -0.01   0.03  -0.00     0.00   0.01  -0.01
  32   1    -0.00  -0.00  -0.00    -0.01   0.02  -0.00    -0.00  -0.01  -0.01
  33   1    -0.00   0.00  -0.00    -0.02  -0.00  -0.00    -0.01   0.00  -0.00
                     43                     44                     45
                        a                      a                      a 
 Frequencies --   928.5379               930.5610              1017.5279
 Red. masses --     4.1117                 3.5129                 7.5061
 Frc consts  --     0.0000                 0.0000                 0.0000
 IR Inten    --     0.0580                 0.0253                50.0558
 Raman Activ --     0.0000                 0.0000                 0.0000
 Depolar     --     0.0000                 0.0000                 0.0000
 Atom AN      X      Y      Z        X      Y      Z        X      Y      Z
   1   6     0.00  -0.01   0.27     0.00  -0.01   0.26     0.03   0.01   0.00
   2   6     0.00  -0.01   0.16    -0.00   0.02  -0.34     0.01   0.01   0.00
   3   6    -0.00   0.01  -0.27     0.00  -0.01   0.18    -0.01   0.03   0.00
   4   6     0.00  -0.00   0.07     0.00  -0.00   0.05    -0.01  -0.00  -0.00
   5   6     0.00  -0.00   0.05    -0.00   0.00  -0.07    -0.02  -0.04  -0.00
   6   6    -0.00   0.02  -0.32    -0.00   0.00  -0.07     0.02  -0.02  -0.00
   7   6     0.00   0.00  -0.03    -0.00  -0.00   0.01    -0.07  -0.04  -0.00
   8   8     0.00  -0.00   0.01    -0.00   0.00  -0.00    -0.00   0.03   0.00
   9   6    -0.00  -0.00   0.01    -0.00   0.00  -0.01     0.02  -0.02  -0.00
  10   6    -0.00   0.00  -0.00     0.00   0.00  -0.00    -0.01   0.05   0.00
  11   6    -0.00  -0.00   0.00     0.00  -0.00   0.01     0.01  -0.03  -0.00
  12   6     0.00   0.00  -0.00    -0.00   0.00  -0.00    -0.06  -0.04  -0.01
  13   6    -0.00   0.00  -0.00     0.00   0.00  -0.00     0.04   0.05  -0.00
  14   6    -0.00  -0.00   0.01     0.00  -0.00   0.00     0.05  -0.05   0.00
  15   6    -0.00   0.00  -0.03     0.00  -0.00   0.00    -0.04  -0.01  -0.00
  16   8     0.00  -0.00   0.00    -0.00  -0.00   0.00     0.01   0.01   0.00
  17   7    -0.00  -0.00  -0.00     0.00   0.00   0.00     0.06   0.11  -0.04
  18   6     0.00  -0.00   0.00    -0.00   0.00   0.00    -0.04  -0.40   0.18
  19   6     0.00   0.00  -0.00    -0.00  -0.00   0.00     0.20   0.36  -0.15
  20   8    -0.00   0.00   0.00     0.00  -0.00  -0.00    -0.32   0.02  -0.02
  21   1    -0.00   0.02  -0.45    -0.00   0.03  -0.48     0.01   0.01   0.00
  22   1    -0.00   0.01  -0.26     0.00  -0.03   0.60     0.00   0.00  -0.00
  23   1     0.00  -0.02   0.42    -0.00   0.02  -0.37     0.00   0.01  -0.00
  24   1     0.00  -0.03   0.52     0.00  -0.01   0.20     0.02   0.00   0.00
  25   1    -0.00  -0.00   0.01    -0.00  -0.00   0.00     0.00   0.02   0.00
  26   1    -0.00   0.00  -0.00     0.00   0.00  -0.02     0.07  -0.03  -0.00
  27   1     0.00  -0.00   0.00    -0.00  -0.00   0.01    -0.01  -0.07   0.01
  28   1    -0.00  -0.00   0.00     0.00   0.00  -0.00    -0.06   0.07  -0.02
  29   1     0.00   0.00  -0.00     0.00   0.00  -0.00     0.11   0.02  -0.07
  30   1    -0.00  -0.00  -0.00    -0.00  -0.00  -0.00    -0.04  -0.27  -0.08
  31   1    -0.00  -0.00   0.00     0.00   0.00  -0.00    -0.18   0.02   0.08
  32   1     0.00   0.00   0.00    -0.00  -0.00  -0.00     0.30   0.12   0.09
  33   1     0.00   0.00   0.00    -0.00  -0.00  -0.00     0.38  -0.09   0.17
                     46                     47                     48
                        a                      a                      a 
 Frequencies --  1024.8149              1062.2911              1085.0987
 Red. masses --    10.8551                 7.4377                 6.5289
 Frc consts  --     0.0000                 0.0000                 0.0000
 IR Inten    --   107.6286                75.0140                 7.3862
 Raman Activ --     0.0000                 0.0000                 0.0000
 Depolar     --     0.0000                 0.0000                 0.0000
 Atom AN      X      Y      Z        X      Y      Z        X      Y      Z
   1   6    -0.18  -0.04  -0.00    -0.01  -0.00  -0.00    -0.35   0.06   0.00
   2   6    -0.03  -0.06  -0.00    -0.00   0.00  -0.00    -0.06  -0.39  -0.02
   3   6     0.07  -0.17  -0.01     0.01  -0.01  -0.00     0.20  -0.05  -0.00
   4   6     0.06   0.02   0.00    -0.01   0.00   0.00     0.04   0.04   0.00
   5   6     0.09   0.21   0.01     0.00   0.02   0.00     0.06  -0.07  -0.00
   6   6    -0.11   0.08   0.00     0.00  -0.00  -0.00    -0.02   0.26   0.01
   7   6     0.37   0.18   0.01     0.01   0.01   0.00    -0.02  -0.01  -0.00
   8   8     0.02  -0.14  -0.01     0.00  -0.01  -0.00    -0.01   0.03   0.00
   9   6    -0.14   0.10   0.01    -0.01   0.00  -0.00     0.01  -0.01  -0.00
  10   6     0.07  -0.26  -0.01     0.01  -0.01  -0.00    -0.05   0.04   0.00
  11   6    -0.08   0.01   0.00    -0.01  -0.02  -0.00     0.02   0.02   0.00
  12   6     0.07   0.09   0.00    -0.05  -0.03   0.00     0.05   0.00  -0.00
  13   6    -0.20   0.01  -0.00     0.00   0.07   0.01    -0.01  -0.02  -0.00
  14   6    -0.24   0.26   0.02    -0.01   0.02  -0.01    -0.02  -0.07  -0.00
  15   6     0.20   0.08   0.00    -0.00   0.00   0.00    -0.03  -0.00  -0.00
  16   8    -0.02  -0.09  -0.00     0.01  -0.01  -0.00    -0.01   0.02   0.00
  17   7    -0.12  -0.20  -0.03    -0.00   0.03   0.07     0.01  -0.01  -0.01
  18   6     0.28  -0.05   0.05     0.11  -0.44  -0.27     0.00  -0.03   0.04
  19   6     0.12   0.05  -0.04    -0.00   0.46   0.26    -0.20   0.05  -0.03
  20   8    -0.16   0.02  -0.00     0.04  -0.05  -0.04     0.16   0.00   0.01
  21   1    -0.05  -0.05  -0.00    -0.00   0.00   0.00    -0.12   0.14   0.01
  22   1    -0.02  -0.02  -0.00    -0.00  -0.00   0.00     0.14  -0.19  -0.01
  23   1     0.00  -0.06  -0.00     0.00  -0.00   0.00     0.37   0.20   0.01
  24   1    -0.09  -0.01  -0.00    -0.00  -0.00  -0.00     0.35   0.32   0.02
  25   1     0.02  -0.07  -0.00     0.02   0.01   0.00    -0.04  -0.01  -0.00
  26   1    -0.25   0.10   0.01     0.02  -0.02  -0.00     0.01   0.00   0.00
  27   1     0.02   0.02   0.00    -0.01  -0.08  -0.01     0.02  -0.03  -0.00
  28   1     0.03  -0.08  -0.01    -0.13   0.06   0.04    -0.00  -0.00  -0.01
  29   1     0.10   0.01  -0.01    -0.09  -0.28   0.07     0.06  -0.02  -0.01
  30   1     0.05  -0.06  -0.02     0.21  -0.01   0.08    -0.01  -0.04  -0.02
  31   1    -0.05   0.01   0.02     0.17   0.24  -0.07    -0.05  -0.00   0.01
  32   1     0.06   0.04   0.02    -0.28   0.05  -0.10    -0.03   0.03   0.01
  33   1     0.05  -0.01   0.03    -0.24   0.03  -0.11     0.06  -0.00   0.01
                     49                     50                     51
                        a                      a                      a 
 Frequencies --  1085.4434              1092.6320              1111.3645
 Red. masses --    10.6832                 8.8734                 6.3312
 Frc consts  --     0.0000                 0.0000                 0.0000
 IR Inten    --    69.3575                 6.1869                10.6161
 Raman Activ --     0.0000                 0.0000                 0.0000
 Depolar     --     0.0000                 0.0000                 0.0000
 Atom AN      X      Y      Z        X      Y      Z        X      Y      Z
   1   6     0.08  -0.02  -0.00    -0.14   0.08   0.00     0.02  -0.06  -0.00
   2   6     0.02   0.12   0.01    -0.02   0.07   0.00     0.06  -0.02  -0.00
   3   6    -0.04  -0.02  -0.00     0.20  -0.22  -0.01    -0.13   0.14   0.01
   4   6    -0.04   0.00  -0.00    -0.34   0.14   0.01     0.03  -0.10  -0.01
   5   6    -0.01   0.07   0.00    -0.05   0.27   0.01     0.05  -0.14  -0.01
   6   6     0.02  -0.09  -0.00     0.19  -0.22  -0.01    -0.06   0.15   0.01
   7   6     0.03   0.00   0.00    -0.08  -0.11  -0.01     0.08   0.06   0.00
   8   8     0.02  -0.03  -0.00     0.08  -0.11  -0.01    -0.00   0.00   0.00
   9   6    -0.05   0.02   0.00    -0.20   0.04   0.00    -0.05   0.11   0.01
  10   6     0.01  -0.03  -0.00     0.15  -0.10  -0.00     0.33  -0.15  -0.01
  11   6    -0.00   0.03   0.00    -0.01  -0.01  -0.00    -0.16  -0.14  -0.01
  12   6    -0.00   0.00  -0.00    -0.22  -0.02  -0.00    -0.25   0.07   0.00
  13   6     0.01  -0.02  -0.00     0.15   0.01   0.00     0.15  -0.01   0.00
  14   6    -0.01   0.06   0.01     0.10   0.18   0.01    -0.04   0.08   0.00
  15   6     0.02   0.00  -0.00     0.04  -0.03  -0.00    -0.14  -0.10  -0.01
  16   8     0.01  -0.03  -0.00     0.09  -0.13  -0.01     0.01  -0.00  -0.00
  17   7     0.01  -0.05  -0.05     0.11   0.04   0.01     0.15   0.03   0.01
  18   6     0.04  -0.11   0.13    -0.14   0.01  -0.02    -0.14  -0.05  -0.01
  19   6    -0.64   0.15  -0.11     0.03  -0.03   0.01    -0.05   0.02   0.00
  20   8     0.51   0.02   0.02    -0.02  -0.01  -0.00     0.04  -0.00  -0.00
  21   1     0.03  -0.02  -0.00    -0.06   0.29   0.02     0.02  -0.22  -0.01
  22   1    -0.06   0.06   0.00    -0.17   0.09   0.01     0.21  -0.09  -0.01
  23   1    -0.09  -0.06  -0.00     0.28   0.10   0.01    -0.11  -0.01  -0.00
  24   1    -0.12  -0.11  -0.01    -0.01  -0.10  -0.01     0.11   0.13   0.01
  25   1     0.01  -0.00  -0.00     0.21   0.10   0.01     0.41   0.19   0.01
  26   1    -0.04   0.02   0.00     0.04  -0.02  -0.00    -0.16   0.00  -0.00
  27   1     0.00  -0.03  -0.00    -0.07   0.09   0.01    -0.11   0.35   0.02
  28   1    -0.01  -0.01  -0.02     0.02   0.02   0.00     0.01   0.02   0.00
  29   1     0.20  -0.04  -0.04    -0.07   0.03   0.00    -0.08   0.03  -0.01
  30   1    -0.03  -0.14  -0.06    -0.03   0.03   0.01    -0.04   0.02   0.01
  31   1    -0.18  -0.01   0.03     0.02  -0.01  -0.00    -0.01   0.00   0.00
  32   1    -0.09   0.12   0.05     0.02  -0.02  -0.00     0.01  -0.01   0.00
  33   1     0.19  -0.00   0.04     0.00  -0.00   0.00     0.03  -0.01   0.01
                     52                     53                     54
                        a                      a                      a 
 Frequencies --  1132.8690              1149.2990              1170.0397
 Red. masses --     4.5185                 7.4116                 2.6238
 Frc consts  --     0.0000                 0.0000                 0.0000
 IR Inten    --    64.1058                17.3656                 0.9138
 Raman Activ --     0.0000                 0.0000                 0.0000
 Depolar     --     0.0000                 0.0000                 0.0000
 Atom AN      X      Y      Z        X      Y      Z        X      Y      Z
   1   6     0.01   0.01   0.00     0.03   0.01   0.00    -0.01   0.11   0.01
   2   6     0.01   0.01   0.00     0.00   0.01   0.00     0.00  -0.10  -0.01
   3   6    -0.00   0.02   0.00     0.00   0.02   0.00     0.11  -0.02  -0.00
   4   6    -0.03  -0.00  -0.00    -0.03   0.00   0.00     0.20  -0.03  -0.00
   5   6    -0.03  -0.03  -0.00    -0.05  -0.05  -0.00    -0.08  -0.03  -0.00
   6   6     0.02  -0.01  -0.00     0.02  -0.03  -0.00    -0.07   0.01   0.00
   7   6    -0.04  -0.01  -0.00    -0.06  -0.02  -0.00    -0.03  -0.02  -0.00
   8   8    -0.01   0.02   0.00    -0.02   0.03   0.00    -0.01   0.02   0.00
   9   6     0.06  -0.03   0.00     0.11  -0.05  -0.00     0.10   0.01   0.00
  10   6     0.06   0.00  -0.00     0.08   0.01   0.00     0.05   0.04   0.00
  11   6    -0.03  -0.08  -0.01    -0.05  -0.11  -0.01    -0.04  -0.05  -0.00
  12   6    -0.12  -0.00  -0.00    -0.13   0.02   0.00     0.02   0.05   0.00
  13   6     0.03   0.13  -0.00     0.02   0.18   0.02    -0.05  -0.04  -0.00
  14   6     0.06  -0.01   0.01     0.07  -0.03  -0.01    -0.07  -0.15  -0.01
  15   6    -0.04  -0.01  -0.00    -0.04  -0.01   0.00    -0.02   0.01   0.00
  16   8     0.03  -0.01   0.00     0.03  -0.01  -0.00    -0.04   0.06   0.00
  17   7    -0.22  -0.05  -0.13    -0.38  -0.13   0.07     0.01   0.01  -0.00
  18   6     0.27  -0.02   0.27     0.46   0.13  -0.12    -0.00  -0.03   0.00
  19   6     0.14   0.02  -0.09    -0.08  -0.12  -0.01    -0.01   0.01   0.00
  20   8    -0.03  -0.03   0.05     0.00   0.06  -0.00     0.00  -0.00  -0.00
  21   1     0.00   0.02   0.00     0.01   0.05   0.00    -0.06   0.69   0.04
  22   1     0.01   0.00  -0.00    -0.02   0.01   0.00     0.32  -0.18  -0.01
  23   1     0.02   0.02   0.00     0.03   0.03   0.00    -0.15  -0.14  -0.01
  24   1     0.04   0.02   0.00     0.04   0.01   0.00    -0.34  -0.21  -0.01
  25   1     0.09   0.05   0.00     0.10   0.06   0.00     0.11   0.08   0.00
  26   1     0.10  -0.07   0.00     0.16  -0.11  -0.01    -0.09   0.02   0.00
  27   1    -0.04   0.06  -0.01    -0.05   0.10   0.02    -0.01   0.13   0.01
  28   1    -0.24   0.07  -0.06    -0.33   0.07   0.03     0.01  -0.00  -0.00
  29   1     0.43  -0.02  -0.08    -0.18   0.10   0.05    -0.00   0.00  -0.00
  30   1    -0.40   0.07  -0.08     0.34  -0.03   0.04    -0.01   0.00   0.00
  31   1     0.11  -0.11   0.02    -0.21   0.09   0.00     0.00   0.00  -0.00
  32   1    -0.21   0.21   0.01     0.10  -0.08   0.01    -0.00   0.00  -0.00
  33   1    -0.32   0.06  -0.11     0.18  -0.03   0.07    -0.00  -0.00  -0.00
                     55                     56                     57
                        a                      a                      a 
 Frequencies --  1171.7222              1184.9766              1211.7903
 Red. masses --     4.9677                 3.0832                 7.3172
 Frc consts  --     0.0000                 0.0000                 0.0000
 IR Inten    --     6.0674                29.1709                17.2019
 Raman Activ --     0.0000                 0.0000                 0.0000
 Depolar     --     0.0000                 0.0000                 0.0000
 Atom AN      X      Y      Z        X      Y      Z        X      Y      Z
   1   6    -0.09  -0.03  -0.00    -0.02  -0.00  -0.00     0.12   0.05   0.00
   2   6     0.12   0.02   0.00    -0.06  -0.04  -0.00     0.06   0.11   0.01
   3   6    -0.10  -0.05  -0.00     0.06  -0.01  -0.00    -0.10   0.12   0.01
   4   6    -0.22  -0.07  -0.00     0.19   0.03   0.00    -0.25  -0.15  -0.01
   5   6     0.08   0.21   0.01     0.06   0.01   0.00    -0.16  -0.28  -0.01
   6   6     0.08   0.11   0.01    -0.07   0.02   0.00     0.02  -0.10  -0.01
   7   6     0.02  -0.02  -0.00     0.05   0.02   0.00    -0.01   0.04   0.00
   8   8     0.04  -0.07  -0.00     0.02  -0.02  -0.00    -0.04   0.08   0.00
   9   6    -0.25  -0.05  -0.00    -0.06  -0.01  -0.00     0.28   0.17   0.01
  10   6    -0.09  -0.06  -0.00     0.03  -0.04  -0.00     0.18  -0.10  -0.01
  11   6     0.10   0.08   0.01     0.07  -0.04  -0.00    -0.07  -0.09  -0.01
  12   6    -0.06  -0.07  -0.00     0.01   0.07   0.00    -0.02  -0.08  -0.00
  13   6     0.14   0.07   0.00     0.02  -0.05  -0.00    -0.04   0.04   0.00
  14   6     0.06   0.22   0.01    -0.28  -0.04  -0.00    -0.01   0.33   0.02
  15   6    -0.03  -0.03  -0.00     0.01   0.03   0.00     0.02  -0.04  -0.00
  16   8     0.05  -0.08  -0.00    -0.04   0.02   0.00     0.05  -0.09  -0.01
  17   7     0.02  -0.01   0.00     0.09   0.03   0.00    -0.04   0.00  -0.00
  18   6    -0.01   0.03   0.00    -0.02  -0.10   0.00    -0.01  -0.02  -0.00
  19   6     0.00  -0.03  -0.01    -0.03   0.03  -0.01    -0.01   0.03   0.02
  20   8     0.00   0.00   0.00     0.02  -0.00   0.00    -0.01  -0.00  -0.01
  21   1    -0.02  -0.02  -0.00    -0.00  -0.04  -0.00     0.02   0.17   0.01
  22   1     0.54  -0.23  -0.01    -0.20   0.07   0.00     0.15  -0.03  -0.00
  23   1    -0.25  -0.17  -0.01     0.06   0.02   0.00     0.19   0.19   0.01
  24   1     0.02   0.03   0.00    -0.11  -0.05  -0.00     0.05  -0.01  -0.00
  25   1    -0.19  -0.14  -0.01    -0.23  -0.19  -0.01    -0.36  -0.34  -0.02
  26   1     0.35  -0.12  -0.01     0.49  -0.22  -0.01    -0.13   0.02   0.00
  27   1    -0.01  -0.08  -0.00    -0.06   0.60   0.04    -0.03   0.12   0.01
  28   1    -0.07   0.04   0.00     0.03   0.00   0.00     0.13  -0.06  -0.00
  29   1    -0.03   0.03   0.00    -0.05   0.04  -0.02     0.05  -0.04  -0.01
  30   1    -0.01   0.01  -0.00    -0.05   0.03   0.01     0.03  -0.01   0.00
  31   1    -0.02  -0.00   0.00    -0.01   0.00   0.00     0.03  -0.00  -0.00
  32   1     0.00  -0.00   0.00    -0.02   0.02   0.00     0.01  -0.01  -0.00
  33   1     0.00   0.00   0.00    -0.00  -0.00  -0.00     0.01  -0.00   0.00
                     58                     59                     60
                        a                      a                      a 
 Frequencies --  1231.7316              1236.9351              1248.4944
 Red. masses --     4.2420                 3.6539                 3.8856
 Frc consts  --     0.0000                 0.0000                 0.0000
 IR Inten    --    17.0391                40.2560                 1.9868
 Raman Activ --     0.0000                 0.0000                 0.0000
 Depolar     --     0.0000                 0.0000                 0.0000
 Atom AN      X      Y      Z        X      Y      Z        X      Y      Z
   1   6    -0.06   0.07   0.00    -0.03   0.04   0.00    -0.00   0.03   0.00
   2   6    -0.07   0.04   0.00    -0.03   0.04   0.00    -0.00   0.05   0.00
   3   6    -0.05   0.08   0.00    -0.05   0.02   0.00    -0.06  -0.01  -0.00
   4   6     0.11  -0.24  -0.01    -0.01  -0.13  -0.01    -0.12  -0.07  -0.00
   5   6     0.25  -0.11  -0.01     0.13  -0.03  -0.00     0.04  -0.00  -0.00
   6   6    -0.06   0.12   0.01    -0.00   0.06   0.00     0.03   0.01   0.00
   7   6     0.05   0.03   0.00     0.01   0.01   0.00    -0.02  -0.01  -0.00
   8   8     0.00   0.02   0.00    -0.01   0.02   0.00    -0.02   0.02   0.00
   9   6    -0.12   0.02   0.00    -0.05  -0.09  -0.00     0.03  -0.12  -0.01
  10   6    -0.03  -0.02  -0.00    -0.04  -0.00  -0.00    -0.05   0.01   0.00
  11   6     0.01   0.04   0.00    -0.02   0.01   0.00    -0.03  -0.01  -0.00
  12   6    -0.03  -0.06  -0.00    -0.01   0.08   0.01     0.02   0.12   0.01
  13   6     0.17   0.02   0.00    -0.05   0.07   0.00    -0.21   0.09   0.01
  14   6    -0.02   0.04   0.00     0.10  -0.02   0.00     0.14  -0.04  -0.00
  15   6    -0.12  -0.02  -0.00     0.01  -0.03  -0.00     0.13  -0.01  -0.00
  16   8    -0.01  -0.00  -0.00    -0.03   0.05   0.00    -0.04   0.07   0.00
  17   7     0.11   0.01   0.02    -0.13  -0.07  -0.05    -0.15  -0.06   0.03
  18   6     0.00  -0.01   0.04    -0.02   0.11  -0.12    -0.04  -0.01   0.12
  19   6     0.03  -0.05  -0.11    -0.06   0.02   0.27     0.02   0.09  -0.19
  20   8     0.03   0.00   0.04    -0.07   0.02  -0.08     0.02  -0.04   0.03
  21   1    -0.01  -0.12  -0.01    -0.00  -0.10  -0.01     0.01  -0.07  -0.00
  22   1     0.06  -0.02  -0.00     0.09  -0.03  -0.00     0.12  -0.04  -0.00
  23   1     0.37   0.29   0.02     0.19   0.15   0.01     0.10   0.08   0.00
  24   1    -0.45  -0.25  -0.01    -0.21  -0.12  -0.01    -0.06  -0.04  -0.00
  25   1    -0.02  -0.02  -0.00     0.13   0.11   0.01     0.17   0.14   0.01
  26   1    -0.03   0.03   0.00     0.17  -0.07  -0.00     0.19  -0.09  -0.01
  27   1     0.01  -0.22  -0.01    -0.00   0.00  -0.02    -0.00   0.07   0.02
  28   1    -0.22   0.12   0.02     0.18  -0.11  -0.03     0.42  -0.23   0.01
  29   1    -0.20   0.16   0.01     0.40  -0.35   0.01    -0.07   0.11  -0.01
  30   1    -0.01  -0.02  -0.01    -0.10   0.15   0.02     0.34  -0.31  -0.02
  31   1    -0.07  -0.03   0.02     0.08   0.12  -0.04     0.17  -0.21   0.02
  32   1    -0.06   0.11   0.02     0.16  -0.29  -0.05    -0.07   0.19   0.03
  33   1    -0.09   0.02  -0.03     0.25  -0.05   0.08    -0.17   0.03  -0.06
                     61                     62                     63
                        a                      a                      a 
 Frequencies --  1265.5995              1277.6030              1286.6523
 Red. masses --     8.3899                 9.0514                 3.7412
 Frc consts  --     0.0000                 0.0000                 0.0000
 IR Inten    --    90.8163               844.8159               318.7848
 Raman Activ --     0.0000                 0.0000                 0.0000
 Depolar     --     0.0000                 0.0000                 0.0000
 Atom AN      X      Y      Z        X      Y      Z        X      Y      Z
   1   6    -0.05   0.07   0.00     0.14  -0.00  -0.00     0.04   0.00  -0.00
   2   6    -0.03   0.06   0.00     0.06   0.11   0.01     0.02   0.03   0.00
   3   6    -0.10  -0.12  -0.01    -0.12   0.06   0.00    -0.03   0.01   0.00
   4   6    -0.23  -0.03  -0.00    -0.22  -0.10  -0.01    -0.06  -0.02  -0.00
   5   6     0.13   0.19   0.01    -0.20  -0.27  -0.01    -0.05  -0.07  -0.00
   6   6     0.13   0.03   0.00    -0.05  -0.14  -0.01    -0.02  -0.04  -0.00
   7   6    -0.27  -0.19  -0.01     0.36   0.25   0.01     0.11   0.07   0.00
   8   8     0.03   0.01   0.00    -0.04   0.01   0.00    -0.00  -0.01  -0.00
   9   6     0.16   0.09   0.01    -0.21  -0.06  -0.00    -0.11   0.05   0.00
  10   6    -0.01   0.07   0.00    -0.20  -0.05  -0.00    -0.06  -0.02  -0.00
  11   6     0.12  -0.05  -0.00     0.07   0.06   0.00     0.08   0.02   0.00
  12   6     0.05   0.01   0.00     0.06   0.11   0.01     0.01  -0.00  -0.00
  13   6    -0.17  -0.24  -0.01    -0.07  -0.13  -0.01     0.08  -0.16  -0.01
  14   6    -0.01  -0.26  -0.01    -0.04  -0.16  -0.01    -0.05  -0.10  -0.01
  15   6     0.30   0.24   0.01     0.27   0.18   0.01     0.06   0.12   0.01
  16   8    -0.02  -0.02  -0.00    -0.02  -0.01  -0.00     0.01  -0.04  -0.00
  17   7    -0.04   0.12   0.00     0.07   0.05  -0.00     0.01   0.02   0.00
  18   6     0.10  -0.08  -0.02     0.04  -0.09  -0.03    -0.01   0.14   0.09
  19   6     0.01  -0.01   0.01     0.02  -0.03  -0.01    -0.06   0.00   0.13
  20   8     0.01   0.01   0.01     0.04   0.01   0.05    -0.11   0.03  -0.21
  21   1     0.01  -0.25  -0.01     0.03   0.16   0.01     0.01   0.04   0.00
  22   1     0.23  -0.10  -0.01     0.08   0.00  -0.00     0.02   0.00   0.00
  23   1     0.08   0.04   0.00     0.10   0.11   0.01     0.03   0.03   0.00
  24   1    -0.07  -0.06  -0.00     0.15   0.06   0.00     0.04   0.02   0.00
  25   1    -0.03   0.00   0.00     0.15   0.14   0.01    -0.00   0.01   0.00
  26   1    -0.23   0.10   0.01     0.16  -0.04  -0.00    -0.03   0.03   0.00
  27   1    -0.02   0.29   0.02     0.02  -0.03  -0.00    -0.00   0.05   0.01
  28   1    -0.11   0.07   0.00    -0.04   0.03  -0.00    -0.27   0.12   0.02
  29   1    -0.05   0.03  -0.00    -0.10   0.03   0.00     0.04   0.03   0.01
  30   1    -0.09   0.07   0.01    -0.16   0.11   0.01     0.14  -0.13  -0.02
  31   1    -0.08   0.06  -0.00    -0.21   0.13   0.00     0.55  -0.31  -0.01
  32   1    -0.01   0.00   0.00     0.02   0.00   0.01    -0.27   0.05  -0.04
  33   1     0.01  -0.00   0.00    -0.06   0.01  -0.02     0.37  -0.06   0.11
                     64                     65                     66
                        a                      a                      a 
 Frequencies --  1308.0539              1338.2413              1345.7686
 Red. masses --     3.8124                11.9506                 4.5007
 Frc consts  --     0.0000                 0.0000                 0.0000
 IR Inten    --    48.1642                26.9304                17.0787
 Raman Activ --     0.0000                 0.0000                 0.0000
 Depolar     --     0.0000                 0.0000                 0.0000
 Atom AN      X      Y      Z        X      Y      Z        X      Y      Z
   1   6     0.01   0.00   0.00    -0.02   0.40   0.02     0.00   0.06   0.00
   2   6     0.01   0.00   0.00     0.38  -0.17  -0.01     0.04  -0.01  -0.00
   3   6    -0.01   0.01   0.00    -0.35  -0.20  -0.01    -0.06  -0.04  -0.00
   4   6    -0.01  -0.00  -0.00    -0.00   0.37   0.02    -0.03   0.05   0.00
   5   6    -0.01  -0.03  -0.00     0.35  -0.16  -0.01     0.03  -0.00  -0.00
   6   6    -0.02  -0.01  -0.00    -0.33  -0.25  -0.01    -0.03  -0.05  -0.00
   7   6     0.06   0.03   0.00    -0.01  -0.00  -0.00    -0.03  -0.01  -0.00
   8   8     0.01  -0.01  -0.00     0.01   0.02   0.00    -0.01   0.01   0.00
   9   6    -0.10   0.07   0.00    -0.03   0.06   0.00     0.08  -0.08  -0.00
  10   6    -0.03  -0.01  -0.00    -0.04  -0.04  -0.00     0.05   0.04   0.00
  11   6     0.08   0.02   0.00     0.04  -0.02  -0.00    -0.10   0.01  -0.00
  12   6    -0.01  -0.02  -0.00    -0.01   0.04   0.00     0.01  -0.03  -0.00
  13   6     0.10  -0.17  -0.01    -0.04  -0.05  -0.00     0.05   0.14   0.01
  14   6    -0.02  -0.08  -0.00     0.10   0.03   0.00    -0.16  -0.01  -0.00
  15   6    -0.00   0.08   0.00    -0.09  -0.04  -0.00     0.09   0.01   0.00
  16   8     0.02  -0.04  -0.00     0.04  -0.02  -0.00    -0.02   0.02   0.00
  17   7    -0.03   0.01   0.01    -0.02   0.02   0.00     0.05  -0.03  -0.00
  18   6    -0.16   0.21  -0.01    -0.01   0.00  -0.00     0.24  -0.13   0.00
  19   6    -0.03   0.18  -0.14     0.03  -0.02   0.00    -0.29   0.20  -0.03
  20   8     0.03  -0.10   0.15     0.00   0.01  -0.00    -0.02  -0.06   0.03
  21   1     0.00   0.02   0.00     0.00   0.01   0.00     0.00  -0.01  -0.00
  22   1    -0.00   0.00   0.00    -0.02   0.01   0.00     0.02  -0.01  -0.00
  23   1     0.01   0.01   0.00    -0.01   0.01   0.00     0.01   0.00   0.00
  24   1     0.01   0.00   0.00     0.00  -0.01  -0.00     0.01   0.00   0.00
  25   1    -0.03  -0.02  -0.00    -0.01  -0.01  -0.00     0.02   0.01   0.00
  26   1    -0.05   0.04   0.00     0.00  -0.00  -0.00     0.03  -0.02  -0.00
  27   1    -0.01   0.11   0.01    -0.00   0.01   0.00     0.01  -0.13  -0.01
  28   1    -0.27   0.11   0.00     0.00  -0.00   0.00     0.04  -0.01  -0.00
  29   1     0.27  -0.19   0.00     0.01  -0.01  -0.00    -0.26   0.19   0.02
  30   1     0.31  -0.20  -0.02     0.01  -0.01   0.00    -0.27   0.18  -0.00
  31   1     0.02  -0.10   0.04    -0.04   0.03  -0.00     0.38  -0.26  -0.01
  32   1     0.45  -0.20  -0.00    -0.04   0.03   0.00     0.42  -0.25   0.00
  33   1    -0.37   0.05  -0.11     0.01   0.00   0.00    -0.09  -0.01  -0.03
                     67                     68                     69
                        a                      a                      a 
 Frequencies --  1356.3981              1382.0426              1417.4496
 Red. masses --    10.4676                10.1860                 9.6789
 Frc consts  --     0.0000                 0.0000                 0.0000
 IR Inten    --    10.1174                51.0192                36.3629
 Raman Activ --     0.0000                 0.0000                 0.0000
 Depolar     --     0.0000                 0.0000                 0.0000
 Atom AN      X      Y      Z        X      Y      Z        X      Y      Z
   1   6     0.02   0.09   0.00    -0.01  -0.04  -0.00    -0.11  -0.33  -0.02
   2   6     0.02   0.01   0.00    -0.02  -0.00  -0.00     0.35  -0.03  -0.00
   3   6    -0.07  -0.08  -0.00     0.05   0.03   0.00    -0.06   0.25   0.01
   4   6    -0.08   0.07   0.00     0.00  -0.02  -0.00    -0.25  -0.30  -0.02
   5   6     0.01   0.02   0.00    -0.00   0.02   0.00     0.39   0.10   0.01
   6   6    -0.01  -0.07  -0.00     0.03   0.04   0.00    -0.20   0.16   0.01
   7   6    -0.08  -0.03  -0.00    -0.13  -0.05  -0.00    -0.08  -0.09  -0.00
   8   8    -0.00  -0.00  -0.00     0.03  -0.01  -0.00     0.00   0.02   0.00
   9   6     0.20  -0.09  -0.00     0.21   0.45   0.03    -0.04   0.06   0.00
  10   6     0.20   0.07   0.00    -0.10  -0.33  -0.02     0.03   0.02   0.00
  11   6    -0.31  -0.01  -0.00    -0.05  -0.19  -0.01     0.02  -0.04  -0.00
  12   6     0.01   0.03   0.00    -0.03   0.53   0.03    -0.04  -0.00  -0.00
  13   6     0.24   0.23   0.01    -0.17  -0.14  -0.01     0.08   0.06   0.00
  14   6    -0.52  -0.15  -0.01     0.08  -0.03  -0.00    -0.02  -0.13  -0.01
  15   6     0.27   0.14   0.01    -0.09   0.07   0.00     0.16   0.03   0.00
  16   8    -0.05   0.01   0.00     0.05  -0.08  -0.00    -0.05   0.06   0.00
  17   7     0.17  -0.17  -0.01     0.15  -0.08  -0.00    -0.05   0.00  -0.00
  18   6    -0.19   0.12   0.00    -0.03   0.02   0.00     0.01   0.00   0.00
  19   6     0.08  -0.06   0.00    -0.02   0.01  -0.00    -0.00  -0.00  -0.00
  20   8     0.01   0.01  -0.00     0.00  -0.01   0.00    -0.00   0.00  -0.00
  21   1     0.01  -0.05  -0.00    -0.00  -0.00  -0.00    -0.07   0.29   0.02
  22   1     0.07  -0.03  -0.00    -0.02   0.01   0.00    -0.26   0.16   0.01
  23   1     0.02   0.01   0.00    -0.03  -0.02  -0.00    -0.11   0.01   0.00
  24   1     0.03   0.00   0.00    -0.01  -0.00  -0.00     0.00   0.09   0.00
  25   1     0.04  -0.00   0.00     0.05  -0.04  -0.00    -0.03  -0.02  -0.00
  26   1     0.11  -0.09  -0.00     0.22  -0.16  -0.01    -0.03   0.01   0.00
  27   1     0.03  -0.22  -0.01     0.03  -0.27  -0.02    -0.01  -0.02  -0.00
  28   1    -0.06   0.00   0.00    -0.09   0.03   0.00     0.04  -0.03  -0.00
  29   1     0.11  -0.09   0.00    -0.04  -0.01   0.02     0.00  -0.00   0.00
  30   1     0.11  -0.09  -0.01    -0.04  -0.01  -0.02     0.00  -0.00  -0.00
  31   1    -0.09   0.05   0.01     0.02  -0.03   0.01     0.00   0.01  -0.01
  32   1    -0.10   0.05  -0.00     0.03  -0.03  -0.01    -0.00   0.01   0.01
  33   1     0.01   0.01   0.01    -0.01   0.00  -0.00    -0.00   0.00   0.00
                     70                     71                     72
                        a                      a                      a 
 Frequencies --  1432.8602              1457.7420              1467.9036
 Red. masses --    10.1686                 9.7163                 1.9855
 Frc consts  --     0.0000                 0.0000                 0.0000
 IR Inten    --   276.3629                28.5841                19.3152
 Raman Activ --     0.0000                 0.0000                 0.0000
 Depolar     --     0.0000                 0.0000                 0.0000
 Atom AN      X      Y      Z        X      Y      Z        X      Y      Z
   1   6     0.02  -0.09  -0.01     0.23  -0.18  -0.01     0.01  -0.01  -0.00
   2   6     0.08   0.05   0.00    -0.10   0.27   0.01    -0.00   0.01   0.00
   3   6    -0.10   0.01   0.00    -0.26  -0.22  -0.01    -0.01  -0.01  -0.00
   4   6     0.06  -0.12  -0.01     0.36  -0.13  -0.01     0.02  -0.01  -0.00
   5   6     0.06   0.14   0.01    -0.01   0.39   0.02     0.00   0.02   0.00
   6   6    -0.10  -0.01  -0.00    -0.29  -0.17  -0.01    -0.02  -0.01  -0.00
   7   6    -0.09  -0.07  -0.00    -0.04  -0.05  -0.00     0.00  -0.01  -0.00
   8   8    -0.05   0.04   0.00     0.03  -0.06  -0.00    -0.00   0.00   0.00
   9   6     0.36  -0.33  -0.02    -0.09   0.08   0.00    -0.02  -0.02  -0.00
  10   6    -0.18  -0.08  -0.01     0.03   0.03   0.00     0.05   0.03   0.00
  11   6    -0.10   0.22   0.01     0.07  -0.09  -0.00    -0.03   0.01   0.00
  12   6     0.19  -0.09  -0.00    -0.07   0.05   0.00     0.00  -0.01  -0.00
  13   6    -0.20  -0.23  -0.01     0.00   0.09   0.01     0.02  -0.03  -0.00
  14   6    -0.11   0.45   0.03     0.06  -0.11  -0.01     0.01   0.00   0.00
  15   6    -0.07   0.01   0.00    -0.05  -0.05  -0.00    -0.01  -0.00  -0.00
  16   8     0.04  -0.10  -0.01    -0.05   0.08   0.00    -0.00   0.00   0.00
  17   7     0.12   0.04   0.00     0.02  -0.05  -0.00    -0.02   0.04   0.00
  18   6    -0.04   0.01  -0.00    -0.01  -0.01  -0.00     0.14   0.18   0.01
  19   6     0.01   0.01  -0.00    -0.01  -0.00   0.00     0.09   0.12   0.00
  20   8     0.00  -0.00   0.00    -0.00   0.00  -0.00     0.02   0.01   0.00
  21   1    -0.00   0.09   0.00     0.05   0.15   0.01     0.00   0.01   0.00
  22   1    -0.02   0.04   0.00     0.16  -0.01  -0.00     0.01   0.00  -0.00
  23   1     0.05   0.06   0.00     0.23   0.15   0.01     0.01   0.01   0.00
[...]
  27   1    -0.01  -0.00  -0.00     0.02  -0.10  -0.01    -0.07   0.10   0.01
  28   1    -0.04   0.01  -0.00     0.28  -0.12  -0.00     0.09  -0.07  -0.00
  29   1     0.17   0.26  -0.20     0.04   0.08  -0.06    -0.02  -0.04   0.03
  30   1     0.15   0.24   0.22     0.04   0.07   0.07    -0.02  -0.04  -0.04
  31   1    -0.27  -0.39   0.31    -0.06  -0.05   0.05     0.00   0.00  -0.00
  32   1    -0.24  -0.37  -0.35    -0.05  -0.04  -0.05    -0.00   0.00   0.00
  33   1     0.02   0.00   0.01    -0.00   0.00  -0.00     0.00  -0.00   0.00
                     76                     77                     78
                        a                      a                      a 
 Frequencies --  1556.2354              1570.5352              1573.7484
 Red. masses --    12.4610                11.7258                11.8679
 Frc consts  --     0.0000                 0.0000                 0.0000
 IR Inten    --   417.8776               386.6690                35.5593
 Raman Activ --     0.0000                 0.0000                 0.0000
 Depolar     --     0.0000                 0.0000                 0.0000
 Atom AN      X      Y      Z        X      Y      Z        X      Y      Z
   1   6    -0.06  -0.22  -0.01    -0.01   0.39   0.02     0.21  -0.09  -0.00
   2   6     0.12   0.06   0.00     0.06  -0.19  -0.01    -0.46   0.15   0.01
   3   6    -0.19  -0.12  -0.01     0.13   0.22   0.01     0.36   0.05   0.00
   4   6     0.06   0.12   0.01     0.03  -0.37  -0.02    -0.23   0.17   0.01
   5   6    -0.03  -0.09  -0.00    -0.11   0.25   0.01     0.43  -0.15  -0.01
   6   6     0.14   0.18   0.01    -0.08  -0.24  -0.01    -0.34  -0.10  -0.01
   7   6     0.04  -0.02  -0.00     0.16  -0.20  -0.01     0.11  -0.19  -0.01
   8   8    -0.03   0.03   0.00    -0.11   0.14   0.01    -0.10   0.17   0.01
   9   6    -0.09  -0.26  -0.01    -0.04  -0.24  -0.01    -0.02  -0.06  -0.00
  10   6     0.17   0.23   0.01     0.08   0.18   0.01     0.01   0.03   0.00
  11   6     0.02  -0.14  -0.01     0.16  -0.22  -0.01     0.02  -0.02  -0.00
  12   6    -0.04   0.14   0.01    -0.12   0.30   0.02    -0.01   0.01   0.00
  13   6    -0.16   0.08   0.00     0.06  -0.13  -0.01    -0.05   0.04   0.00
  14   6     0.04  -0.02  -0.00    -0.07   0.11   0.01     0.00   0.03   0.00
  15   6    -0.28   0.51   0.03    -0.03   0.07   0.00    -0.07   0.10   0.01
  16   8     0.22  -0.36  -0.02     0.01  -0.05  -0.00     0.07  -0.10  -0.01
  17   7     0.09  -0.08  -0.00    -0.04   0.03   0.00     0.04  -0.03  -0.00
  18   6    -0.02  -0.01  -0.00     0.00  -0.01  -0.00    -0.01   0.00  -0.00
  19   6    -0.01  -0.00  -0.00     0.00   0.00  -0.00    -0.00   0.00  -0.00
  20   8     0.00  -0.00   0.00     0.00  -0.00   0.00     0.00  -0.00   0.00
  21   1    -0.03   0.06   0.00     0.01  -0.10  -0.01     0.05   0.02   0.00
  22   1    -0.02   0.04   0.00    -0.04  -0.02  -0.00     0.10  -0.06  -0.00
  23   1     0.03   0.04   0.00    -0.06  -0.01  -0.00    -0.04  -0.09  -0.00
  24   1    -0.06  -0.02  -0.00     0.07  -0.01  -0.00     0.05   0.06   0.00
  25   1    -0.07  -0.03  -0.00    -0.06  -0.02  -0.00    -0.00   0.00   0.00
  26   1    -0.06  -0.01  -0.00    -0.07  -0.01  -0.00    -0.01  -0.00  -0.00
  27   1    -0.01  -0.02  -0.00    -0.02  -0.08  -0.00    -0.00   0.01   0.00
  28   1     0.05  -0.05  -0.00     0.03  -0.02  -0.00     0.00  -0.01  -0.00
  29   1    -0.01   0.00   0.00     0.01   0.01  -0.01    -0.00  -0.00   0.00
  30   1    -0.01   0.00  -0.00     0.01   0.01   0.01    -0.00  -0.00  -0.00
  31   1     0.01   0.00  -0.01    -0.00  -0.00   0.00     0.00   0.00  -0.00
  32   1     0.01   0.00   0.01    -0.00  -0.00  -0.00     0.00   0.00   0.00
  33   1    -0.00   0.00  -0.00    -0.00   0.00  -0.00    -0.00   0.00  -0.00
                     79                     80                     81
                        a                      a                      a 
 Frequencies --  1588.1760              1618.4046              2891.9847
 Red. masses --    11.9759                13.0176                 1.7879
 Frc consts  --     0.0000                 0.0000                 0.0000
 IR Inten    --   618.7163               382.9039                39.2440
 Raman Activ --     0.0000                 0.0000                 0.0000
 Depolar     --     0.0000                 0.0000                 0.0000
 Atom AN      X      Y      Z        X      Y      Z        X      Y      Z
   1   6    -0.01  -0.26  -0.01     0.06   0.05   0.00    -0.00   0.00   0.00
   2   6    -0.01   0.12   0.01    -0.10  -0.00  -0.00    -0.00  -0.00  -0.00
   3   6    -0.10  -0.17  -0.01     0.13   0.08   0.00    -0.00  -0.00  -0.00
   4   6    -0.02   0.28   0.02    -0.07  -0.07  -0.00    -0.00   0.00   0.00
   5   6     0.03  -0.15  -0.01     0.13  -0.05  -0.00    -0.00  -0.00  -0.00
   6   6     0.11   0.18   0.01    -0.14  -0.06  -0.00    -0.00   0.00  -0.00
   7   6     0.05  -0.07  -0.00    -0.39   0.59   0.03    -0.00   0.00   0.00
   8   8    -0.06   0.08   0.00     0.29  -0.43  -0.02     0.00  -0.00  -0.00
   9   6     0.05  -0.22  -0.01     0.01  -0.21  -0.01     0.00  -0.00   0.00
  10   6    -0.02   0.11   0.01     0.08   0.15   0.01    -0.00   0.00  -0.00
  11   6     0.23  -0.22  -0.01     0.04  -0.10  -0.01     0.00   0.00   0.00
  12   6    -0.15   0.35   0.02    -0.03   0.16   0.01    -0.00   0.00  -0.00
  13   6     0.18  -0.25  -0.01    -0.01  -0.12  -0.01     0.00  -0.00  -0.00
  14   6    -0.17   0.21   0.01     0.00   0.07   0.00    -0.00   0.00  -0.00
  15   6     0.17  -0.32  -0.02    -0.01   0.03   0.00     0.00  -0.00   0.00
  16   8    -0.12   0.19   0.01     0.01  -0.02  -0.00    -0.00   0.00  -0.00
  17   7    -0.10   0.10   0.01    -0.03   0.04   0.00    -0.00   0.00   0.00
  18   6     0.01  -0.01  -0.00     0.01  -0.00  -0.00    -0.01  -0.02   0.14
  19   6     0.01   0.00  -0.00     0.00   0.00  -0.00    -0.05  -0.08  -0.20
  20   8     0.00  -0.00   0.00     0.00  -0.00   0.00    -0.01  -0.00  -0.01
  21   1    -0.01   0.06   0.00     0.01   0.00   0.00     0.00   0.00  -0.00
  22   1     0.03   0.02   0.00     0.01  -0.02  -0.00     0.00   0.00   0.00
  23   1     0.04   0.01   0.00    -0.02  -0.02  -0.00     0.00   0.00   0.00
  24   1    -0.06  -0.01  -0.00     0.03   0.03   0.00     0.00  -0.00  -0.00
  25   1    -0.04   0.00  -0.00    -0.05  -0.01  -0.00     0.00  -0.00  -0.00
  26   1    -0.07  -0.00  -0.00    -0.04  -0.01  -0.00    -0.00  -0.00  -0.00
  27   1    -0.02  -0.10  -0.01    -0.00  -0.04  -0.00     0.00   0.00  -0.00
  28   1    -0.01   0.02   0.00    -0.00   0.01   0.00     0.00  -0.00   0.00
  29   1     0.01   0.01  -0.01     0.00   0.00  -0.00    -0.11  -0.15  -0.25
  30   1     0.01   0.00   0.01     0.00  -0.00   0.00     0.13   0.20  -0.29
  31   1    -0.01  -0.00   0.01    -0.00   0.00  -0.00     0.26   0.37   0.69
  32   1    -0.01  -0.00  -0.01     0.00   0.00   0.00    -0.04  -0.07   0.05
  33   1    -0.00   0.00  -0.00    -0.00  -0.00  -0.00     0.00   0.00   0.00
                     82                     83                     84
                        a                      a                      a 
 Frequencies --  2900.6451              2927.3943              2979.0889
 Red. masses --     1.8837                 1.5170                 1.6902
 Frc consts  --     0.0000                 0.0000                 0.0000
 IR Inten    --    65.0356                92.8918                44.6503
 Raman Activ --     0.0000                 0.0000                 0.0000
 Depolar     --     0.0000                 0.0000                 0.0000
 Atom AN      X      Y      Z        X      Y      Z        X      Y      Z
   1   6     0.00   0.00   0.00     0.00  -0.00  -0.00    -0.00   0.00   0.00
   2   6     0.00  -0.00  -0.00    -0.00   0.00   0.00    -0.00  -0.00  -0.00
   3   6    -0.00  -0.00  -0.00     0.00   0.00  -0.00    -0.00  -0.00  -0.00
   4   6    -0.00   0.00   0.00     0.00  -0.00   0.00    -0.00   0.00   0.00
   5   6     0.00   0.00  -0.00    -0.00  -0.00  -0.00    -0.00  -0.00  -0.00
   6   6    -0.00  -0.00  -0.00     0.00   0.00   0.00    -0.00   0.00  -0.00
   7   6     0.00  -0.00  -0.00    -0.00   0.00   0.00    -0.00   0.00   0.00
   8   8    -0.00   0.00   0.00     0.00  -0.00  -0.00    -0.00  -0.00   0.00
   9   6    -0.00  -0.00  -0.00     0.00   0.00   0.00    -0.00  -0.00  -0.00
  10   6    -0.00  -0.00  -0.00     0.00   0.00   0.00    -0.00   0.00   0.00
  11   6     0.00  -0.00   0.00    -0.00   0.00   0.00     0.00   0.00   0.00
  12   6     0.00   0.00  -0.00    -0.00  -0.00  -0.00    -0.00   0.00  -0.00
  13   6     0.00  -0.00  -0.00    -0.00   0.00   0.00     0.00  -0.00   0.00
  14   6    -0.00  -0.00  -0.00     0.00   0.00  -0.00    -0.00   0.00  -0.00
  15   6     0.00   0.00   0.00    -0.00  -0.00   0.00     0.00  -0.00   0.00
  16   8     0.00  -0.00  -0.00     0.00   0.00  -0.00    -0.00  -0.00  -0.00
  17   7    -0.01   0.00   0.00     0.02  -0.01   0.00    -0.00   0.00  -0.00
  18   6    -0.04  -0.06   0.24     0.10   0.15   0.10    -0.01  -0.01   0.02
  19   6     0.03   0.05   0.11     0.01   0.02   0.04    -0.08  -0.14   0.19
  20   8     0.01   0.00   0.00     0.00  -0.00   0.00    -0.01  -0.00  -0.00
  21   1    -0.00  -0.00   0.00    -0.00  -0.00   0.00     0.00   0.00   0.00
  22   1     0.00   0.00   0.00    -0.00  -0.00  -0.00     0.00   0.00   0.00
  23   1    -0.00   0.00   0.00     0.00  -0.00  -0.00     0.00   0.00   0.00
  24   1     0.00  -0.00  -0.00    -0.00   0.00   0.00     0.00  -0.00  -0.00
  25   1    -0.00   0.00  -0.00     0.00  -0.00  -0.00     0.00  -0.00  -0.00
  26   1     0.00   0.00  -0.00    -0.00  -0.00  -0.00    -0.00  -0.00  -0.00
  27   1    -0.00   0.00   0.00     0.01  -0.00  -0.00     0.00   0.00   0.00
  28   1    -0.01  -0.01   0.01     0.01   0.02   0.00     0.00  -0.00   0.00
  29   1    -0.11  -0.15  -0.24    -0.27  -0.36  -0.73    -0.00  -0.00   0.00
  30   1     0.26   0.40  -0.61    -0.13  -0.20   0.37     0.02   0.03  -0.05
  31   1    -0.15  -0.21  -0.40    -0.04  -0.06  -0.10     0.02   0.02   0.10
  32   1    -0.00   0.00   0.03     0.01   0.02  -0.03     0.31   0.48  -0.77
  33   1     0.00  -0.00  -0.00    -0.00   0.00   0.00    -0.00  -0.01   0.01
                     85                     86                     87
                        a                      a                      a 
 Frequencies --  3088.8941              3090.3023              3095.0327
 Red. masses --     1.7751                 1.7999                 1.7796
 Frc consts  --     0.0000                 0.0000                 0.0000
 IR Inten    --     8.3415                 0.7106                13.6583
 Raman Activ --     0.0000                 0.0000                 0.0000
 Depolar     --     0.0000                 0.0000                 0.0000
 Atom AN      X      Y      Z        X      Y      Z        X      Y      Z
   1   6    -0.11  -0.01  -0.00     0.01   0.00   0.00     0.00   0.00   0.00
   2   6     0.03   0.07   0.00     0.05   0.10   0.01    -0.00  -0.00  -0.00
   3   6     0.05  -0.07  -0.00     0.13  -0.17  -0.01     0.00  -0.00  -0.00
   4   6     0.00   0.00   0.00     0.01  -0.00  -0.00     0.00  -0.00  -0.00
   5   6     0.00  -0.01  -0.00    -0.00   0.00   0.00    -0.00   0.00   0.00
   6   6     0.11  -0.18  -0.01    -0.07   0.10   0.01    -0.00   0.00   0.00
   7   6     0.00  -0.00  -0.00    -0.00   0.00   0.00    -0.00   0.00   0.00
   8   8    -0.00   0.00   0.00     0.00  -0.00  -0.00    -0.00  -0.00  -0.00
   9   6     0.00  -0.00  -0.00    -0.00   0.00   0.00    -0.01   0.00   0.00
  10   6    -0.00   0.00   0.00     0.00  -0.00  -0.00    -0.10   0.13   0.01
  11   6    -0.00  -0.00  -0.00     0.00   0.00   0.00    -0.08  -0.19  -0.01
  12   6     0.00  -0.00  -0.00    -0.00   0.00   0.00     0.03   0.00   0.00
  13   6    -0.00   0.00   0.00     0.00  -0.00  -0.00     0.00   0.00   0.00
  14   6     0.00  -0.00  -0.00    -0.00  -0.00  -0.00     0.00  -0.00  -0.00
  15   6     0.00  -0.00  -0.00     0.00  -0.00  -0.00    -0.00   0.00   0.00
  16   8     0.00   0.00   0.00    -0.00   0.00   0.00     0.00  -0.00  -0.00
  17   7     0.00   0.00   0.00     0.00   0.00   0.00     0.00   0.00   0.00
  18   6    -0.00  -0.00   0.00     0.00   0.00  -0.00     0.00  -0.00   0.00
  19   6     0.00   0.00   0.00     0.00   0.00   0.00    -0.00  -0.00   0.00
  20   8     0.00   0.00  -0.00    -0.00   0.00  -0.00     0.00   0.00  -0.00
  21   1     0.43   0.03   0.00    -0.05  -0.01  -0.00    -0.02  -0.00  -0.00
  22   1    -0.13  -0.27  -0.01    -0.17  -0.36  -0.02     0.00   0.01   0.00
  23   1    -0.18   0.25   0.01    -0.44   0.62   0.03    -0.01   0.01   0.00
  24   1    -0.42   0.62   0.03     0.24  -0.36  -0.02     0.00  -0.01  -0.00
  25   1     0.01  -0.01  -0.00    -0.01   0.01   0.00     0.37  -0.49  -0.03
  26   1     0.00   0.00   0.00    -0.00  -0.00  -0.00     0.29   0.67   0.04
  27   1    -0.00  -0.00  -0.00     0.00   0.00   0.00    -0.12  -0.01  -0.00
  28   1    -0.00  -0.00  -0.00    -0.00  -0.00  -0.00    -0.00  -0.00  -0.00
  29   1     0.00   0.00   0.00    -0.00  -0.00  -0.00    -0.00  -0.00  -0.00
  30   1     0.00   0.00  -0.00    -0.00  -0.00   0.00    -0.00  -0.00   0.00
  31   1    -0.00   0.00   0.00    -0.00  -0.00  -0.00     0.00   0.00   0.00
  32   1    -0.00   0.00  -0.00    -0.00   0.00   0.00     0.00   0.00  -0.00
  33   1    -0.00  -0.00   0.00    -0.00  -0.00   0.00    -0.00  -0.00   0.00
                     88                     89                     90
                        a                      a                      a 
 Frequencies --  3097.7590              3103.7813              3106.9796
 Red. masses --     1.8504                 1.8664                 1.9162
 Frc consts  --     0.0000                 0.0000                 0.0000
 IR Inten    --    46.0864                47.2824                82.2488
 Raman Activ --     0.0000                 0.0000                 0.0000
 Depolar     --     0.0000                 0.0000                 0.0000
 Atom AN      X      Y      Z        X      Y      Z        X      Y      Z
   1   6    -0.15  -0.01  -0.00    -0.01  -0.00  -0.00    -0.20  -0.02  -0.00
   2   6     0.07   0.14   0.01    -0.00  -0.01  -0.00    -0.08  -0.16  -0.01
   3   6    -0.08   0.11   0.01     0.00  -0.00  -0.00     0.04  -0.06  -0.00
   4   6    -0.00  -0.00  -0.00    -0.00   0.00   0.00     0.00   0.00   0.00
   5   6     0.00   0.00   0.00    -0.00  -0.00  -0.00     0.00   0.00   0.00
   6   6    -0.06   0.09   0.00     0.00  -0.00  -0.00    -0.04   0.06   0.00
   7   6    -0.00   0.00   0.00     0.00  -0.00  -0.00    -0.00   0.00   0.00
   8   8     0.00  -0.00  -0.00    -0.00   0.00   0.00     0.00  -0.00  -0.00
   9   6    -0.00  -0.00  -0.00     0.01   0.00   0.00    -0.00   0.00   0.00
  10   6     0.00  -0.00  -0.00     0.13  -0.17  -0.01    -0.00   0.01   0.00
  11   6    -0.00  -0.00  -0.00    -0.07  -0.16  -0.01     0.00   0.00   0.00
  12   6     0.00   0.00   0.00     0.04   0.01   0.00    -0.00  -0.00  -0.00
  13   6    -0.00   0.00   0.00     0.00   0.00   0.00     0.00  -0.00  -0.00
  14   6     0.00   0.00   0.00    -0.00   0.00   0.00    -0.00  -0.00  -0.00
  15   6    -0.00   0.00   0.00     0.00   0.00   0.00     0.00  -0.00  -0.00
  16   8     0.00  -0.00  -0.00    -0.00  -0.00  -0.00    -0.00   0.00   0.00
  17   7    -0.00  -0.00  -0.00     0.00   0.00   0.00    -0.00   0.00   0.00
  18   6    -0.00  -0.00   0.00     0.00   0.00   0.00     0.00   0.00  -0.00
  19   6    -0.00   0.00  -0.00    -0.00  -0.00   0.00     0.00   0.00  -0.00
  20   8     0.00  -0.00   0.00     0.00  -0.00  -0.00    -0.00  -0.00   0.00
  21   1     0.54   0.04   0.00     0.02   0.00   0.00     0.66   0.05   0.00
  22   1    -0.24  -0.50  -0.03     0.01   0.02   0.00     0.26   0.55   0.03
  23   1     0.26  -0.36  -0.02    -0.01   0.01   0.00    -0.13   0.19   0.01
  24   1     0.19  -0.29  -0.02    -0.00   0.01   0.00     0.13  -0.19  -0.01
  25   1    -0.00   0.00   0.00    -0.44   0.59   0.03     0.01  -0.02  -0.00
  26   1     0.01   0.02   0.00     0.24   0.54   0.03    -0.01  -0.01  -0.00
  27   1    -0.00  -0.00  -0.00    -0.17  -0.02  -0.00     0.01   0.00   0.00
  28   1     0.00   0.00   0.00    -0.00  -0.00  -0.00     0.00   0.00   0.00
  29   1     0.00   0.00   0.00    -0.00  -0.00  -0.00    -0.00  -0.00  -0.00
  30   1     0.00   0.00  -0.00    -0.00  -0.00   0.00    -0.00  -0.00   0.00
  31   1     0.00  -0.00  -0.00     0.00   0.00   0.00    -0.00  -0.00  -0.00
  32   1     0.00  -0.00   0.00     0.00   0.00  -0.00    -0.00  -0.00   0.00
  33   1     0.00   0.00  -0.00    -0.00  -0.00   0.00     0.00   0.00  -0.00
                     91                     92                     93
                        a                      a                      a 
 Frequencies --  3126.4238              3259.7460              3488.3792
 Red. masses --     1.8500                 1.8624                 1.8772
 Frc consts  --     0.0000                 0.0000                 0.0000
 IR Inten    --    25.4665               161.1183                75.8185
 Raman Activ --     0.0000                 0.0000                 0.0000
 Depolar     --     0.0000                 0.0000                 0.0000
 Atom AN      X      Y      Z        X      Y      Z        X      Y      Z
   1   6    -0.00  -0.00  -0.00    -0.00  -0.00  -0.00    -0.00  -0.00  -0.00
   2   6    -0.00  -0.00  -0.00    -0.00   0.00   0.00     0.00  -0.00   0.00
   3   6     0.00  -0.00  -0.00     0.00   0.00   0.00    -0.00   0.00   0.00
   4   6     0.00   0.00   0.00    -0.00   0.00   0.00     0.00  -0.00   0.00
   5   6     0.00   0.00   0.00    -0.00  -0.00  -0.00     0.00  -0.00  -0.00
   6   6    -0.00   0.00   0.00    -0.00   0.00   0.00    -0.00   0.00  -0.00
   7   6    -0.00   0.00   0.00    -0.00   0.00   0.00     0.00   0.00  -0.00
   8   8     0.00  -0.00  -0.00     0.00  -0.00  -0.00     0.00  -0.00   0.00
   9   6    -0.00   0.00   0.00     0.00  -0.00  -0.00    -0.00   0.00   0.00
  10   6    -0.01   0.01   0.00     0.00   0.00   0.00    -0.00  -0.00  -0.00
  11   6     0.03   0.06   0.00    -0.00   0.00   0.00     0.00  -0.00   0.00
  12   6     0.27   0.03   0.00     0.00  -0.01  -0.00     0.00   0.00  -0.00
  13   6     0.01  -0.01  -0.00    -0.01   0.02   0.00    -0.00  -0.00  -0.00
  14   6    -0.00   0.00   0.00     0.01   0.01   0.00    -0.00  -0.00  -0.00
  15   6     0.00  -0.00  -0.00     0.00  -0.02  -0.00    -0.00   0.00   0.00
  16   8    -0.00   0.00   0.00    -0.01   0.01   0.00     0.00  -0.00   0.00
  17   7    -0.00  -0.00  -0.00     0.12   0.23   0.01    -0.00  -0.00   0.00
  18   6     0.00  -0.00   0.00     0.00   0.00   0.00    -0.00  -0.00   0.00
  19   6    -0.00  -0.00   0.00     0.00   0.00  -0.00     0.01   0.00  -0.00
  20   8    -0.00   0.00  -0.00    -0.00   0.00  -0.00     0.09   0.10  -0.20
  21   1     0.00   0.00   0.00     0.00   0.00  -0.00     0.00  -0.00  -0.00
  22   1     0.00   0.00   0.00     0.00   0.00   0.00     0.00   0.00   0.00
  23   1    -0.00   0.00   0.00     0.00  -0.00  -0.00     0.00  -0.00  -0.00
  24   1     0.00  -0.00  -0.00     0.00  -0.00  -0.00     0.00  -0.00  -0.00
  25   1     0.03  -0.04  -0.00     0.00  -0.00  -0.00    -0.00  -0.00  -0.00
  26   1    -0.08  -0.18  -0.01    -0.00  -0.01  -0.00    -0.00  -0.00  -0.00
  27   1    -0.93  -0.10  -0.01    -0.01  -0.00  -0.00     0.00  -0.00   0.00
  28   1     0.00   0.01   0.00    -0.40  -0.88  -0.05     0.00   0.00  -0.00
  29   1    -0.00  -0.00  -0.00    -0.01  -0.01  -0.02     0.00   0.00  -0.00
  30   1    -0.00  -0.00   0.00    -0.01  -0.01   0.01     0.00  -0.00   0.00
  31   1     0.00   0.00   0.00    -0.00  -0.00  -0.00    -0.00  -0.00   0.00
  32   1     0.00   0.00  -0.00    -0.00  -0.00   0.00    -0.00  -0.01   0.01
  33   1    -0.00  -0.00   0.00    -0.00  -0.00   0.00    -0.39  -0.41   0.79
