33
 energy: -56.017411091922 gnorm: 0.032434208766 xtb: 6.7.1 (edcfbbe)
C           -4.66273969906647       -1.15184499782998       -0.05874281346535
C           -3.87277665064707       -2.30038861231699       -0.12666920132433
C           -2.48789045952004       -2.19851983419049       -0.12979662829077
C           -1.87306496406193       -0.94566868794898       -0.06493785526062
C           -2.66990672712220        0.20930998644058        0.00238633658781
C           -4.06313145210815        0.09759673403836        0.00506312679531
C           -2.04268222516275        1.54139419694584        0.06739736416776
O           -2.73200418342174        2.56515068020384        0.11647450159051
C           -0.56090987604071        1.61444224248969        0.07759646370857
C            0.01712181792975        2.87165396764685        0.15566954405010
C            1.40960625494853        2.99494929085633        0.16871064457233
C            2.21908266311720        1.88437948347613        0.10630775638127
C            1.66652996670844        0.57890876431015        0.02663590221676
C            0.23682518652251        0.44017818424250        0.01023101557633
C           -0.39115868240790       -0.86487483374895       -0.06812875334162
O            0.26667731963338       -1.92679817743831       -0.13460128596081
N            2.48141964732344       -0.49197430401761       -0.03192037828294
C            3.93367504872144       -0.42792058395705        0.00552520299432
C            4.49562295774351       -1.84242183261503       -0.05508043140834
O            5.92608036955810       -1.82386387818287       -0.00881018191659
H           -5.74446957908626       -1.23478389703029       -0.05585312062061
H           -4.34094111985126       -3.27801072977607       -0.17676269252297
H           -1.87153567926218       -3.08858921955543       -0.18208348465982
H           -4.66575822241483        0.99749841816233        0.05717407880411
H           -0.61611403781814        3.74894142068862        0.20581334956696
H            1.86190665198609        3.97964451547333        0.22875719316980
H            3.29524571908017        2.00594569045748        0.11707996559855
H            2.01869299262612       -1.39443986541897       -0.08768893185600
H            4.27906999566008        0.06021326192875        0.92654045785963
H            4.31948454611871        0.15076649221847       -0.84580086594292
H            4.13988408087810       -2.35244315184072       -0.96111160246265
H            4.16464839003522       -2.41797121885073        0.81542017390771
H            6.24029091552243       -1.44010708207977       -0.83813784560817
33
 energy: -56.018981216939 gnorm: 0.013480738423 xtb: 6.7.1 (edcfbbe)
C           -4.64640289589071       -1.14916552922065       -0.05900072075026
C           -3.86066228654550       -2.29245997610432       -0.12617690664945
C           -2.48019663270980       -2.18901951954695       -0.12914914653123
C           -1.86264325117920       -0.94116561735168       -0.06434824451284
C           -2.65709940270093        0.21090522325325        0.00224548895523
C           -4.04677577962370        0.09585015723051        0.00409731126465
C           -2.03815233054105        1.54230116310533        0.06943173186857
O           -2.72367907264527        2.56334500387021        0.11655035617141
C           -0.56258879115258        1.60670717177088        0.07741620471589
C            0.01413613299172        2.86231416449832        0.15462710380729
C            1.40135640296073        2.99375172325915        0.16847922322111
C            2.20603237272066        1.88701403753734        0.10702553169780
C            1.65921289923985        0.58240311197483        0.02813354183968
C            0.23563123275086        0.43813659300647        0.01140646075167
C           -0.38487908135637       -0.86722003866160       -0.06688099185225
O            0.26944125870396       -1.92483230376701       -0.13504680625095
N            2.47099946663605       -0.48379984439211       -0.03209183756875
C            3.91639502373370       -0.42961969599019        0.00215786754364
C            4.49194186459830       -1.84411878804058       -0.05703576020520
O            5.91060084897684       -1.83638388846578       -0.00954759998131
H           -5.72356160318084       -1.23126504241120       -0.05618975758217
H           -4.32718679247102       -3.26566586001432       -0.17620510041883
H           -1.86142765888462       -3.07328800654808       -0.18099357957957
H           -4.64218885850232        0.99636427363953        0.05653733870510
H           -0.62429206304849        3.73157077868107        0.20413771779846
H            1.84688305231137        3.97640834094725        0.22837096777435
H            3.27678120478174        2.00840988232430        0.11914721541369
H            2.01131429529692       -1.38830636474571       -0.08569667636825
H            4.26100773986874        0.05411392311422        0.92395550390997
H            4.29154350606920        0.15004816716711       -0.85115448640644
H            4.14350055331612       -2.35708029865989       -0.96119373214917
H            4.17134847938439       -2.41985041914936        0.81429442085249
H            6.24039113221283       -1.44605009952932       -0.83064563486097
33
 energy: -56.019278729193 gnorm: 0.003922252677 xtb: 6.7.1 (edcfbbe)
C           -4.63597387847153       -1.14872345369540       -0.05924897530118
C           -3.85106799630606       -2.29026934472972       -0.12597839215876
C           -2.47231722695795       -2.18465829263780       -0.12833414295698
C           -1.85379461937810       -0.93859142964988       -0.06365012632293
C           -2.64785286644520        0.21210956885855        0.00243941416758
C           -4.03604172097578        0.09461286775887        0.00404339970299
C           -2.03585957347677        1.54470344668403        0.06851379011227
O           -2.72065392487073        2.56414616590398        0.11686768541245
C           -0.56372473138438        1.60251790210804        0.07777221069328
C            0.01192020692526        2.85835621413482        0.15455936642528
C            1.39703745015662        2.99666452440798        0.16919773276725
C            2.20007528948313        1.89057580713186        0.10873397629267
C            1.65633835002426        0.58523178861374        0.02952212531353
C            0.23587728071668        0.43712184191068        0.01245717016201
C           -0.37827421783924       -0.87039430203736       -0.06711511228484
O            0.27389989663943       -1.92656621748221       -0.13540984949683
N            2.46537830150449       -0.47900169181036       -0.03174538629297
C            3.90655102939839       -0.43083755952621       -0.00174207258958
C            4.48378912571210       -1.84865044726209       -0.06035155132557
O            5.89353074277146       -1.84530666082194       -0.00963384161448
H           -5.71116143917098       -1.22952896535003       -0.05674661165497
H           -4.31538244442844       -3.26221921141774       -0.17581203090730
H           -1.84849757899058       -3.06409136653753       -0.17986902138205
H           -4.62497494476217        0.99795411628113        0.05571486858547
H           -0.63393034305370        3.72086737255184        0.20240119953493
H            1.83651016693096        3.97958284242385        0.22859674040747
H            3.26899289949775        2.01088723590070        0.12239412723480
H            2.00752067146831       -1.38540575804264       -0.08206929791318
H            4.25551724884997        0.04997060854749        0.91945819444381
H            4.27772980491877        0.14654183539802       -0.85747819857577
H            4.13243305536807       -2.36106775815616       -0.96327508634575
H            4.16331686316752       -2.41961441520813        0.81335300811957
H            6.23987008910001       -1.44656484146935       -0.82090830762887
33
 energy: -56.019324621905 gnorm: 0.001911604552 xtb: 6.7.1 (edcfbbe)
C           -4.63304435307946       -1.15044507974024       -0.05977429265655
C           -3.84709059326052       -2.29184297155506       -0.12594039394908
C           -2.46849094058439       -2.18462422155616       -0.12798094825141
C           -1.85050581386241       -0.93803231695154       -0.06339482082751
C           -2.64537054328269        0.21207859563988        0.00224797081970
C           -4.03357907628792        0.09313695473717        0.00316084594829
C           -2.03569283311484        1.54562691410526        0.06983803056606
O           -2.72159818194475        2.56445569602512        0.11703219059755
C           -0.56400890294018        1.60298756628282        0.07791381881677
C            0.01137482030771        2.85941524894411        0.15402825490221
C            1.39637293368629        3.00025811028555        0.16968571021097
C            2.19988992765035        1.89407118731916        0.10993092235341
C            1.65658680801876        0.58820248353643        0.03038349073198
C            0.23644338998223        0.43839056888760        0.01319571639688
C           -0.37534242440192       -0.87057388077480       -0.06606109960684
O            0.27689064605091       -1.92666963158411       -0.13486721914521
N            2.46455862198478       -0.47620383549849       -0.03109411377829
C            3.90507905306768       -0.43085447943066       -0.00418859424737
C            4.47834099129595       -1.85162417769724       -0.06218703736120
O            5.88550408277194       -1.85406094492457       -0.00973815522925
H           -5.70824148989142       -1.23110693043343       -0.05755350187771
H           -4.30999008907483       -3.26447084920716       -0.17592977924801
H           -1.84143104805874       -3.06206936640135       -0.17900659105212
H           -4.62040859403148        0.99801186518996        0.05495469646975
H           -0.63835430504106        3.71930034413996        0.20140098088507
H            1.83341796138487        3.98410474308671        0.22927656705428
H            3.26917345715637        2.01369837821182        0.12438817158330
H            2.00664428101522       -1.38301378092064       -0.07954834080964
H            4.25865741542190        0.04915769618153        0.91579193314527
H            4.27676013365277        0.14405733695061       -0.86140539188553
H            4.12187200952201       -2.36208355401741       -0.96484978382908
H            4.15282538882944       -2.41994954586492        0.81167821917841
H            6.23953823317899       -1.44897570018491       -0.81473045128176
33
 energy: -56.019356957610 gnorm: 0.002348325412 xtb: 6.7.1 (edcfbbe)
C           -4.62883186565598       -1.15526025136069       -0.06111998725318
C           -3.84022945303813       -2.29609482393670       -0.12633399861001
C           -2.46184096237036       -2.18585398482503       -0.12697509834027
C           -1.84577396171867       -0.93748179844793       -0.06230375842274
C           -2.64275821482137        0.21129742004158        0.00247984652394
C           -4.03135044549175        0.08932167433630        0.00246972202357
C           -2.03583661254183        1.54662779613237        0.06904735538911
O           -2.72448984874190        2.56404240047650        0.11768500653694
C           -0.56413975174329        1.60597973985912        0.07906874922992
C            0.01069978410415        2.86346330745080        0.15428575423676
C            1.39574062593786        3.00751261254734        0.17078140903733
C            2.20107354145626        1.90174857044092        0.11214992930348
C            1.65833175647296        0.59518801191038        0.03244843052791
C            0.23795115657513        0.44244332768724        0.01527363224852
C           -0.37080175966946       -0.86842897787716       -0.06442689097153
O            0.28268378162730       -1.92443214618715       -0.13213163129271
N            2.46524126145019       -0.46992243924954       -0.02931802173177
C            3.90564057010592       -0.43005568310409       -0.00883149376300
C            4.46708935198561       -1.85709940582731       -0.06581598327162
O            5.87145043772047       -1.87537694050017       -0.00923993760806
H           -5.70441274859251       -1.23687339637277       -0.05993849982853
H           -4.30061135258686       -3.27045078707907       -0.17628744540346
H           -1.82980021027026       -3.06045083355729       -0.17716718724811
H           -4.61671016591754        0.99576399951078        0.05315090340454
H           -0.64429616532142        3.72013982105549        0.19966951579258
H            1.82945718551769        3.99316609703844        0.23052609324291
H            3.27128359674814        2.02054555335662        0.12797058732650
H            2.00618425084844       -1.37668742620269       -0.07508786034747
H            4.26812094344351        0.04956769918878        0.90823985458937
H            4.27860265599036        0.13981488688180       -0.86917249102978
H            4.10219473795451       -2.36307122837542       -0.96913033755212
H            4.12952746341745       -2.42151585074270        0.80688796240573
H            6.23739138324696       -1.45721452148778       -0.80219712452142
33
 energy: -56.019367851493 gnorm: 0.001636870484 xtb: 6.7.1 (edcfbbe)
C           -4.62777667643261       -1.15667238138419       -0.06173824676539
C           -3.83854261553566       -2.29702294288202       -0.12646518947482
C           -2.46030063726637       -2.18618415806793       -0.12670892863480
C           -1.84511654016840       -0.93734239192424       -0.06194329345894
C           -2.64268294481224        0.21101379615300        0.00244008734008
C           -4.03128024265721        0.08831684976394        0.00166308138659
C           -2.03591397464135        1.54642182742665        0.07067055988726
O           -2.72504399036044        2.56358590208075        0.11804728977435
C           -0.56407391846363        1.60718664067833        0.07931976807470
C            0.01034488508953        2.86482645021434        0.15405422982883
C            1.39533849423237        3.00881280453061        0.17091095110013
C            2.20127256489480        1.90355817560506        0.11235573049671
C            1.65890292782671        0.59701072014053        0.03278237053377
C            0.23842823955905        0.44383875956202        0.01588494298978
C           -0.37015315170459       -0.86699469023061       -0.06298731444300
O            0.28393133666677       -1.92274387735937       -0.13046584258495
N            2.46600465062088       -0.46812575359193       -0.02891854263917
C            3.90661584059834       -0.42979160490712       -0.00974104418406
C            4.46422638499246       -1.85802979634104       -0.06660058746270
O            5.86884186362885       -1.88147077719342       -0.00843612266286
H           -5.70332275169761       -1.23923078740464       -0.06096492579076
H           -4.29854245546303       -3.27157982996534       -0.17672434516233
H           -1.82819707090473       -3.06067631236296       -0.17652651952373
H           -4.61779101513653        0.99396847578274        0.05253795943245
H           -0.64422148021982        3.72175600548016        0.19959781270022
H            1.82901641384816        3.99457432732769        0.23059636454817
H            3.27141306150395        2.02267090122863        0.12793788701434
H            2.00627122673035       -1.37447090636264       -0.07497672218817
H            4.27034544039697        0.04991626151291        0.90673047346951
H            4.27941968308971        0.13918399502943       -0.87075569630844
H            4.09957851898861       -2.36269747900380       -0.97076666207559
H            4.12393000909712       -2.42210117433851        0.80524609166205
H            6.23585888982118       -1.46115460641608       -0.79939861225585
33
 energy: -56.019381896666 gnorm: 0.001298696865 xtb: 6.7.1 (edcfbbe)
C           -4.62365022506189       -1.16100331151351       -0.06397191825848
C           -3.83249383868324       -2.29960343869856       -0.12747323227146
C           -2.45469957451751       -2.18681180660466       -0.12544327002329
C           -1.84263100941401       -0.93666395506821       -0.05978422136691
C           -2.64202349282077        0.21031127158059        0.00344660280134
C           -4.03038102772366        0.08527010990721        0.00074754682474
C           -2.03611736812354        1.54617990860465        0.07167321327812
O           -2.72644401505017        2.56234206886358        0.12017561175195
C           -0.56401113126649        1.61069458531925        0.08131608195463
C            0.00872247285115        2.86877909874723        0.15509965920862
C            1.39357010211365        3.01274795725905        0.17104828033287
C            2.20133949077937        1.90921586043848        0.11237753760581
C            1.66040497985672        0.60262657986883        0.03396579349767
C            0.23993118607571        0.44815581409483        0.01849740926111
C           -0.36786203030222       -0.86241640887043       -0.05901393226953
O            0.28796558719937       -1.91741196342081       -0.12390526688863
N            2.46798819496689       -0.46232786748318       -0.02777875040050
C            3.90915168418279       -0.42939757702751       -0.01324355158087
C            4.45460464971200       -1.86114781485844       -0.06961883245134
O            5.86011334587992       -1.90055247865487       -0.00407200713847
H           -5.69886911338978       -1.24684989187230       -0.06512288265508
H           -4.29130762663878       -3.27458591391241       -0.17833122301072
H           -1.82280798627698       -3.06110183240165       -0.17421368828986
H           -4.62122393073511        0.98791681437793        0.05040283866724
H           -0.64370406134093        3.72701273330007        0.20002879617233
H            1.82731287000402        3.99862242433552        0.23014852226692
H            3.27103364870832        2.02962666271191        0.12714068320797
H            2.00576677380472       -1.36721526080231       -0.07531917986038
H            4.27669815510511        0.05029829201859        0.90143482666664
H            4.28088230962449        0.13696189475018       -0.87637513114280
H            4.09304848995441       -2.36120474459500       -0.97731073979174
H            4.10502996561619       -2.42427069661680        0.79891659555505
H            6.23144349103181       -1.47384469099633       -0.78878516702961
33
 energy: -56.019385692779 gnorm: 0.000494498727 xtb: 6.7.1 (edcfbbe)
C           -4.62219528725201       -1.16182767754981       -0.06462647813377
C           -3.83055378574025       -2.30020109438329       -0.12757227406903
C           -2.45272891010688       -2.18656290836215       -0.12495503060145
C           -1.84127622193634       -0.93623212263619       -0.05921192952535
C           -2.64109439086167        0.21049335310966        0.00363111758137
C           -4.02928623194285        0.08475879837583        0.00007528984182
C           -2.03620001303684        1.54669320337128        0.07324274615739
O           -2.72682024744137        2.56266185453371        0.12108510707632
C           -0.56423426381273        1.61101722182733        0.08168442823219
C            0.00824129494078        2.86928478542502        0.15514341959732
C            1.39316428552218        3.01415964527469        0.17108634499739
C            2.20110301914776        1.91065551035296        0.11228151982492
C            1.66038659613728        0.60378530960313        0.03399130910564
C            0.24013585516501        0.44886302528875        0.01888937743126
C           -0.36670148503399       -0.86225146077506       -0.05805203009829
O            0.28909101019703       -1.91726746754428       -0.12252443835398
N            2.46738164046238       -0.46122077450558       -0.02786847300450
C            3.90831726591643       -0.42971800469803       -0.01454000122858
C            4.45212468387452       -1.86239162693098       -0.07065119835710
O            5.85695288374057       -1.90311395401016       -0.00214618337737
H           -5.69731972751016       -1.24794629283583       -0.06623369510839
H           -4.28873778229361       -3.27540235418646       -0.17875276101574
H           -1.81990313367134       -3.06028632886697       -0.17337422985929
H           -4.62015957197618        0.98737762612513        0.04977282817501
H           -0.64486620779876        3.72704218362578        0.20045918891013
H            1.82627952636401        4.00022585290009        0.23005687649560
H            3.27085356976903        2.03116161870568        0.12678835641459
H            2.00469454454894       -1.36606218838438       -0.07537492960467
H            4.27741410909234        0.04949657707525        0.89983250766409
H            4.28016943434762        0.13588592548475       -0.87807837333609
H            4.09102333344084       -2.36151971834384       -0.97902308019017
H            4.09985729264072       -2.42488665408263        0.79719969853821
H            6.23166788122912       -1.47631944020248       -0.78557800555614
33
 energy: -56.019387516663 gnorm: 0.000264098639 xtb: 6.7.1 (edcfbbe)
C           -4.62097079332815       -1.16293766227749       -0.06534653759923
C           -3.82875879364093       -2.30100500802269       -0.12775726507461
C           -2.45090360532553       -2.18639624249492       -0.12443845399071
C           -1.84016626580311       -0.93580039822960       -0.05850585378408
C           -2.64051658478033        0.21064222344393        0.00401091689597
C           -4.02855038435366        0.08402849091746       -0.00015547960604
C           -2.03643599799713        1.54725057090136        0.07334079068986
O           -2.72745896142669        2.56288287884614        0.12250364385006
C           -0.56449859147851        1.61166713864529        0.08240711030587
C            0.00782304518996        2.87003851507109        0.15599754631973
C            1.39286158517819        3.01569356424905        0.17121310064825
C            2.20104244171736        1.91230494264022        0.11188517034389
C            1.66044939832325        0.60519331193023        0.03375727378986
C            0.24029593015220        0.44988055147934        0.01930528707715
C           -0.36572878794747       -0.86171054828993       -0.05707685662865
O            0.29013953930859       -1.91676059896676       -0.12094124657921
N            2.46685250062074       -0.45998776495089       -0.02830668657121
C            3.90763139998239       -0.42987989755362       -0.01606277887240
C            4.44987814293138       -1.86338396954687       -0.07165894415504
O            5.85422143617019       -1.90557602932501        0.00082745016278
H           -5.69606321537621       -1.24938274778725       -0.06767901769538
H           -4.28617885524164       -3.27656935832090       -0.17890578894878
H           -1.81717416979403       -3.05959043090477       -0.17230314581265
H           -4.61977449133559        0.98650497373989        0.04888411865742
H           -0.64575864658688        3.72751114106881        0.20155528802283
H            1.82542996230213        4.00196409518928        0.23016444883172
H            3.27090144000124        2.03295095448108        0.12606993174809
H            2.00349709123137       -1.36467523217857       -0.07583391649327
H            4.27819244622225        0.04888531161254        0.89799486125955
H            4.27983402625290        0.13494728916417       -0.87993238558677
H            4.09012932786094       -2.36152904963986       -0.98108057550296
H            4.09413501708443       -2.42559715033225        0.79496922495310
H            6.23240438000793       -1.48121144177755       -0.78224422603178
33
 energy: -56.019388324387 gnorm: 0.000251750792 xtb: 6.7.1 (edcfbbe)
C           -4.62028784551809       -1.16376646578721       -0.06600044008184
C           -3.82768745249714       -2.30156946466303       -0.12778264250563
C           -2.44987538703162       -2.18639242117140       -0.12381557205513
C           -1.83964615884715       -0.93556822244047       -0.05792516616692
C           -2.64038040970407        0.21065649669383        0.00423659367832
C           -4.02834106311464        0.08345574495223       -0.00068261780309
C           -2.03662656982908        1.54741596559107        0.07435055936461
O           -2.72792644225162        2.56283918294000        0.12382554254909
C           -0.56466080160919        1.61226819195641        0.08292586623810
C            0.00752670988661        2.87068920603984        0.15654251854725
C            1.39258282386095        3.01661130115599        0.17136685154721
C            2.20102859452142        1.91344753621396        0.11148316924753
C            1.66059152399047        0.60625733173439        0.03353159720333
C            0.24041726324300        0.45068631667256        0.01950667789307
C           -0.36526541176338       -0.86103291246205       -0.05668556833861
O            0.29078699430233       -1.91606964496787       -0.11971963202563
N            2.46681977275720       -0.45899172172470       -0.02889040720977
C            3.90755830673553       -0.42971076270584       -0.01718027890405
C            4.44845457457164       -1.86382651588170       -0.07238135970297
O            5.85259024141479       -1.90760033308573        0.00368577451783
H           -5.69536243066002       -1.25052167127040       -0.06880280320956
H           -4.28461016751573       -3.27736690850836       -0.17902165163942
H           -1.81573706115743       -3.05930576847940       -0.17145726015409
H           -4.62005324917619        0.98564309098004        0.04813732409489
H           -0.64612579334088        3.72810732754396        0.20256580923173
H            1.82487693148271        4.00300570167316        0.23036295702336
H            3.27090490770785        2.03424259711432        0.12509923297402
H            2.00296090092728       -1.36349513359337       -0.07644058199765
H            4.27881029675984        0.04892840113621        0.89666676626235
H            4.27995997600709        0.13463338089154       -0.88127283422250
H            4.09039153190995       -2.36113004472345       -0.98291572463934
H            4.08980131864579       -2.42607492243239        0.79305655788476
H            6.23330454141333       -1.48611243661121       -0.77971225297790
33
 energy: -56.019388814299 gnorm: 0.000195720914 xtb: 6.7.1 (edcfbbe)
C           -4.61981615887201       -1.16441699024502       -0.06656028082440
C           -3.82691484838463       -2.30199211616058       -0.12780492348969
C           -2.44917855960812       -2.18641848439705       -0.12351728629037
C           -1.83933991099257       -0.93541123642717       -0.05748773204239
C           -2.64037215174662        0.21061378826785        0.00446429700783
C           -4.02829638832193        0.08297659893413       -0.00104158663848
C           -2.03681524112952        1.54745216392293        0.07523942287220
O           -2.72833587088559        2.56267730073445        0.12558310612854
C           -0.56483782198321        1.61275730677337        0.08355406689394
C            0.00718327932271        2.87122673077021        0.15740292076265
C            1.39220657719463        3.01730972828312        0.17156129596875
C            2.20091840229944        1.91441548455521        0.11079813749821
C            1.66068987244934        0.60719850726678        0.03281555826838
C            0.24047750675364        0.45134555572773        0.01964656806901
C           -0.36499075779433       -0.86044672815493       -0.05552834508782
O            0.29127476142894       -1.91536179197355       -0.11894459176713
N            2.46693080937409       -0.45803675735680       -0.03012792171277
C            3.90765884535461       -0.42931420059382       -0.01841299235984
C            4.44750464604201       -1.86391041095643       -0.07297804336507
O            5.85138820306858       -1.90923403704547        0.00737005992221
H           -5.69487345584682       -1.25141608429457       -0.07004067842155
H           -4.28346078426153       -3.27796853613055       -0.17894109277030
H           -1.81477292432134       -3.05914990489772       -0.17054311519302
H           -4.62042740923152        0.98490500009157        0.04737071719367
H           -0.64649791680900        3.72858200237822        0.20404336852935
H            1.82428584273373        4.00380890957625        0.23064259446840
H            3.27076916497172        2.03536009279659        0.12375959983309
H            2.00271031404206       -1.36238018293612       -0.07745547323493
H            4.27914771532366        0.04933593502484        0.89531784547106
H            4.28036058400025        0.13460331083470       -0.88263850249116
H            4.09177105792467       -2.36032977389890       -0.98485464811197
H            4.08557813467715       -2.42627510143751        0.79103894200483
H            6.23485544934910       -1.49215365625085       -0.77707428246788
33
 energy: -56.019388997950 gnorm: 0.000102730516 xtb: 6.7.1 (edcfbbe)
C           -4.62005729251528       -1.16422513316452       -0.06658538026450
C           -3.82723831503182       -2.30186921156735       -0.12770300541229
C           -2.44950890194057       -2.18648158099248       -0.12326658167275
C           -1.83954216894318       -0.93550162729136       -0.05739936282544
C           -2.64049140845056        0.21055707150221        0.00455319484236
C           -4.02845608408679        0.08309078674283       -0.00102682116800
C           -2.03682724639078        1.54732704257467        0.07541348405146
O           -2.72830397838003        2.56257036596628        0.12613295495610
C           -0.56485754898840        1.61262911456389        0.08365546818023
C            0.00714188286522        2.87110588591888        0.15765940335289