      -----------------------------------------------------------      
     |                   =====================                   |     
     |                           x T B                           |     
     |                   =====================                   |     
     |                         S. Grimme                         |     
     |          Mulliken Center for Theoretical Chemistry        |     
     |                    University of Bonn                     |     
      -----------------------------------------------------------      

   * xtb version 6.7.1 (edcfbbe) compiled by 'albert@albert-system' on 2024-07-22

   xtb is free software: you can redistribute it and/or modify it under
   the terms of the GNU Lesser General Public License as published by
   the Free Software Foundation, either version 3 of the License, or
   (at your option) any later version.
   
   xtb is distributed in the hope that it will be useful,
   but WITHOUT ANY WARRANTY; without even the implied warranty of
   MERCHANTABILITY or FITNESS FOR A PARTICULAR PURPOSE.  See the
   GNU Lesser General Public License for more details.
   
   Cite this work as:
   * C. Bannwarth, E. Caldeweyher, S. Ehlert, A. Hansen, P. Pracht,
     J. Seibert, S. Spicher, S. Grimme, WIREs Comput. Mol. Sci., 2020, 11,
     e01493. DOI: 10.1002/wcms.1493
   
   for GFN2-xTB:
   * C. Bannwarth, S. Ehlert and S. Grimme., J. Chem. Theory Comput., 2019,
     15, 1652-1671. DOI: 10.1021/acs.jctc.8b01176
   for GFN1-xTB:
   * S. Grimme, C. Bannwarth, P. Shushkov, J. Chem. Theory Comput., 2017,
     13, 1989-2009. DOI: 10.1021/acs.jctc.7b00118
   for GFN0-xTB:
   * P. Pracht, E. Caldeweyher, S. Ehlert, S. Grimme, ChemRxiv, 2019, preprint.
     DOI: 10.26434/chemrxiv.8326202.v1
   for GFN-FF:
   * S. Spicher and S. Grimme, Angew. Chem. Int. Ed., 2020, 59, 15665-15673.
     DOI: 10.1002/anie.202004239
   
   for ALPB and GBSA implicit solvation:
   * S. Ehlert, M. Stahn, S. Spicher, S. Grimme, J. Chem. Theory Comput.,
     2021, 17, 4250-4261. DOI: 10.1021/acs.jctc.1c00471
   
   for ddCOSMO and CPCM-X implicit solvation:
   * M. Stahn, S. Ehlert, S. Grimme, J. Phys. Chem. A,
     2023, XX, XXXX-XXXX. DOI: 10.1021/acs.jpca.3c04382
   
   for DFT-D4:
   * E. Caldeweyher, C. Bannwarth and S. Grimme, J. Chem. Phys., 2017,
     147, 034112. DOI: 10.1063/1.4993215
   * E. Caldeweyher, S. Ehlert, A. Hansen, H. Neugebauer, S. Spicher,
     C. Bannwarth and S. Grimme, J. Chem. Phys., 2019, 150, 154122.
     DOI: 10.1063/1.5090222
   * E. Caldeweyher, J.-M. Mewes, S. Ehlert and S. Grimme, Phys. Chem. Chem. Phys.
     2020, 22, 8499-8512. DOI: 10.1039/D0CP00502A
   
   for sTDA-xTB:
   * S. Grimme and C. Bannwarth, J. Chem. Phys., 2016, 145, 054103.
     DOI: 10.1063/1.4959605
   
   in the mass-spec context:
   * V. Asgeirsson, C. Bauer and S. Grimme, Chem. Sci., 2017, 8, 4879.
     DOI: 10.1039/c7sc00601b
   * J. Koopman and S. Grimme, ACS Omega 2019, 4, 12, 15120-15133.
     DOI: 10.1021/acsomega.9b02011
   
   for metadynamics refer to:
   * S. Grimme, J. Chem. Theory Comput., 2019, 155, 2847-2862
     DOI: 10.1021/acs.jctc.9b00143
   
   for SPH calculations refer to:
   * S. Spicher and S. Grimme, J. Chem. Theory Comput., 2021, 17, 1701-1714
     DOI: 10.1021/acs.jctc.0c01306
   
   for ONIOM refer to:
   * C. Plett, A. Katbashev, S. Ehlert, S. Grimme, M. Bursch,
     Phys. Chem. Chem. Phys., 2023, 25, 17860-17868. DOI: 10.1039/D3CP02178E
   
   for DIPRO refer to:
   * J. Kohn, N. Gildemeister, S. Grimme, D. Fazzi, A. Hansen,
     J. Chem. Phys., 2023, just accepted.
   
   for PTB refer to:
   * S. Grimme, M. Mueller, A. Hansen, J. Chem. Phys., 2023, 158, 124111.
     DOI: 10.1063/5.0137838
   
   with help from (in alphabetical order)
   P. Atkinson, C. Bannwarth, F. Bohle, G. Brandenburg, E. Caldeweyher
   M. Checinski, S. Dohm, S. Ehlert, S. Ehrlich, I. Gerasimov, C. Hölzer
   A. Katbashev, J. Kohn, J. Koopman, C. Lavigne, S. Lehtola, F. März, M. Müller,
   F. Musil, H. Neugebauer, J. Pisarek, C. Plett, P. Pracht, F. Pultar,
   J. Seibert, P. Shushkov, S. Spicher, M. Stahn, M. Steiner, T. Strunk,
   J. Stückrath, T. Rose, and J. Unsleber
   
 * started run on 2025/04/11 at 15:53:54.029     
   ID    Z sym.   atoms
    1    6 C      1-4, 7, 8
    2    8 O      5, 6
    3    1 H      9-20

           -------------------------------------------------
          |                Calculation Setup                |
           -------------------------------------------------

          program call               : /srv/scratch/z5358697/.xtb/bin/xtb solv.coord --gfn2 --sp --chrg 0 --norestart --parallel 1 --alpb water reference -I xtb_sp-xcontrol-inp
          hostname                   : k061
          coordinate file            : solv.coord
          omp threads                :                     1


           -------------------------------------------------
          |                 G F N 2 - x T B                 |
           -------------------------------------------------

        Reference                      10.1021/acs.jctc.8b01176
      * Hamiltonian:
        H0-scaling (s, p, d)           1.850000    2.230000    2.230000
        zeta-weighting                 0.500000
      * Dispersion:
        s8                             2.700000
        a1                             0.520000
        a2                             5.000000
        s9                             5.000000
      * Repulsion:
        kExp                           1.500000    1.000000
        rExp                           1.000000
      * Coulomb:
        alpha                          2.000000
        third order                    shell-resolved
        anisotropic                    true
        a3                             3.000000
        a5                             4.000000
        cn-shift                       1.200000
        cn-exp                         4.000000
        max-rad                        5.000000

      * Solvation model:               ALPB
        Solvent                        water
        Parameter file                 internal GFN2-xTB/ALPB
        Dielectric constant                8.0200E+01
        Reference state                gsolv=reference [X=1]
        Free energy shift                  2.8945E-03 Eh       1.8164E+00 kcal/mol
        Temperature                        2.9815E+02 K
        Density                            1.0000E+00 kg/L
        Solvent mass                       1.8000E+01 g/mol
        Interaction kernel             P16
        Born radius scaling (c1)           1.4744E+00
        Born radii integrator          GBOBC
        Born offset                        0.0000E+00 a0       0.0000E+00 AA
        H-bond correction              true
        Ion screening                  false
        Surface tension                    1.0000E-05 Eh       1.5569E+01 dyn/cm
        Grid points                               974 per atom

          ...................................................
          :                      SETUP                      :
          :.................................................:
          :  # basis functions                  44          :
          :  # atomic orbitals                  44          :
          :  # shells                           28          :
          :  # electrons                        48          :
          :  max. iterations                   250          :
          :  Hamiltonian                  GFN2-xTB          :
          :  restarted?                      false          :
          :  GBSA solvation                   true          :
          :  PC potential                    false          :
          :  electronic temp.          300.0000000     K    :
          :  accuracy                    1.0000000          :
          :  -> integral cutoff          0.2500000E+02      :
          :  -> integral neglect         0.1000000E-07      :
          :  -> SCF convergence          0.1000000E-05 Eh   :
          :  -> wf. convergence          0.1000000E-03 e    :
          :  Broyden damping             0.4000000          :
          :  net charge                          0          :
          :  unpaired electrons                  0          :
          ...................................................

 iter      E             dE          RMSdq      gap      omega  full diag
   1    -27.3725073 -0.273725E+02  0.390E+00    5.70       0.0  T
   2    -27.4337683 -0.612610E-01  0.196E+00    4.76       1.0  T
   3    -27.4355956 -0.182726E-02  0.101E+00    5.07       1.0  T
   4    -27.4369947 -0.139908E-02  0.155E-01    4.84       1.0  T
   5    -27.4371875 -0.192849E-03  0.671E-02    4.89       1.0  T
   6    -27.4371895 -0.193969E-05  0.234E-02    4.89       1.0  T
   7    -27.4371905 -0.103250E-05  0.426E-03    4.89       5.2  T
   8    -27.4371905 -0.313207E-07  0.245E-03    4.89       9.1  T
   9    -27.4371905 -0.117978E-07  0.425E-04    4.89      52.6  T
  10    -27.4371905 -0.418410E-09  0.233E-04    4.89      96.0  T

   *** convergence criteria satisfied after 10 iterations ***

         #    Occupation            Energy/Eh            Energy/eV
      -------------------------------------------------------------
         1        2.0000           -0.7492391             -20.3878
       ...           ...                  ...                  ...
        18        2.0000           -0.4675486             -12.7226
        19        2.0000           -0.4538066             -12.3487
        20        2.0000           -0.4505536             -12.2602
        21        2.0000           -0.4459710             -12.1355
        22        2.0000           -0.4451871             -12.1142
        23        2.0000           -0.4364836             -11.8773
        24        2.0000           -0.4181955             -11.3797 (HOMO)
        25                         -0.2385178              -6.4904 (LUMO)
        26                         -0.0032387              -0.0881
        27                          0.0957052               2.6043
        28                          0.1114414               3.0325
        29                          0.1171526               3.1879
       ...                                ...                  ...
        44                          0.6130317              16.6814
      -------------------------------------------------------------
                  HL-Gap            0.1796777 Eh            4.8893 eV
             Fermi-level           -0.3283567 Eh           -8.9350 eV

 SCC (total)                   0 d,  0 h,  0 min,  0.042 sec
 SCC setup                      ...        0 min,  0.003 sec (  7.557%)
 Dispersion                     ...        0 min,  0.000 sec (  0.605%)
 classical contributions        ...        0 min,  0.000 sec (  0.129%)
 integral evaluation            ...        0 min,  0.003 sec (  7.662%)
 iterations                     ...        0 min,  0.030 sec ( 71.155%)
 molecular gradient             ...        0 min,  0.005 sec ( 12.483%)
 printout                       ...        0 min,  0.000 sec (  0.360%)

         :::::::::::::::::::::::::::::::::::::::::::::::::::::
         ::                     SUMMARY                     ::
         :::::::::::::::::::::::::::::::::::::::::::::::::::::
         :: total energy             -27.120977700649 Eh    ::
         :: total w/o Gsasa/hb       -27.122681219542 Eh    ::
         :: gradient norm              0.000037471364 Eh/a0 ::
         :: HOMO-LUMO gap              4.889278717177 eV    ::
         ::.................................................::
         :: SCC energy               -27.437159213664 Eh    ::
         :: -> isotropic ES            0.058925512092 Eh    ::
         :: -> anisotropic ES          0.000975381058 Eh    ::
         :: -> anisotropic XC          0.008171108242 Eh    ::
         :: -> dispersion             -0.011932862548 Eh    ::
         :: -> Gsolv                  -0.007305473102 Eh    ::
         ::    -> Gelec               -0.009008991995 Eh    ::
         ::    -> Gsasa                0.001012199019 Eh    ::
         ::    -> Ghb                 -0.002203229286 Eh    ::
         ::    -> Gshift               0.002894549160 Eh    ::
         :: repulsion energy           0.316181513014 Eh    ::
         :: add. restraining           0.000000000000 Eh    ::
         :: total charge               0.000000000000 e     ::
         :::::::::::::::::::::::::::::::::::::::::::::::::::::

           -------------------------------------------------
          |                Property Printout                |
           -------------------------------------------------

    * Orbital Energies and Occupations

         #    Occupation            Energy/Eh            Energy/eV
      -------------------------------------------------------------
         1        2.0000           -0.7492391             -20.3878
       ...           ...                  ...                  ...
        12        2.0000           -0.5186887             -14.1142
        13        2.0000           -0.5128059             -13.9542
        14        2.0000           -0.5069196             -13.7940
        15        2.0000           -0.4968209             -13.5192
        16        2.0000           -0.4905775             -13.3493
        17        2.0000           -0.4780021             -13.0071
        18        2.0000           -0.4675486             -12.7226
        19        2.0000           -0.4538066             -12.3487
        20        2.0000           -0.4505536             -12.2602
        21        2.0000           -0.4459710             -12.1355
        22        2.0000           -0.4451871             -12.1142
        23        2.0000           -0.4364836             -11.8773
        24        2.0000           -0.4181955             -11.3797 (HOMO)
        25                         -0.2385178              -6.4904 (LUMO)
        26                         -0.0032387              -0.0881
        27                          0.0957052               2.6043
        28                          0.1114414               3.0325
        29                          0.1171526               3.1879
        30                          0.1274447               3.4679
        31                          0.1383713               3.7653
        32                          0.1567887               4.2664
        33                          0.1577744               4.2933
        34                          0.1731130               4.7106
        35                          0.1819144               4.9501
       ...                                ...                  ...
        44                          0.6130317              16.6814
      -------------------------------------------------------------
                  HL-Gap            0.1796777 Eh            4.8893 eV
             Fermi-level           -0.3283567 Eh           -8.9350 eV

     #   Z          covCN         q      C6AA      α(0)
     1   6 C        3.752    -0.112    22.697     6.794
     2   6 C        3.802    -0.059    21.632     6.622
     3   6 C        3.804    -0.101    22.418     6.741
     4   6 C        2.712     0.368    20.759     7.458
     5   8 O        0.856    -0.489    23.542     6.505
     6   8 O        1.703    -0.269    18.457     5.800
     7   6 C        3.694     0.069    19.598     6.334
     8   6 C        3.750    -0.127    23.003     6.840
     9   1 H        0.925     0.026     2.637     2.540
    10   1 H        0.925     0.050     2.317     2.380
    11   1 H        0.925     0.045     2.384     2.415
    12   1 H        0.924     0.053     2.285     2.364
    13   1 H        0.924     0.059     2.206     2.323
    14   1 H        0.924     0.086     1.919     2.167
    15   1 H        0.925     0.073     2.053     2.241
    16   1 H        0.924     0.081     1.968     2.194
    17   1 H        0.924     0.057     2.240     2.340
    18   1 H        0.925     0.066     2.127     2.281
    19   1 H        0.925     0.071     2.079     2.255
    20   1 H        0.925     0.052     2.293     2.368

 Mol. C6AA /au·bohr⁶  :       2998.479355
 Mol. C8AA /au·bohr⁸  :      63845.141698
 Mol. α(0) /au        :         80.960325


Wiberg/Mayer (AO) data.
largest (>0.10) Wiberg bond orders for each atom

 ---------------------------------------------------------------------------
     #   Z sym  total        # sym  WBO       # sym  WBO       # sym  WBO
 ---------------------------------------------------------------------------
     1   6 C    3.996 --     2 C    1.022     9 H    0.987    11 H    0.987
                            10 H    0.986
     2   6 C    3.991 --     1 C    1.022     3 C    0.985    12 H    0.977
                            13 H    0.975
     3   6 C    3.989 --     2 C    0.985     4 C    0.978    15 H    0.973
                            14 H    0.952
     4   6 C    3.903 --     5 O    1.694     6 O    1.168     3 C    0.978
     5   8 O    1.972 --     4 C    1.694     6 O    0.170
     6   8 O    2.319 --     4 C    1.168     7 C    0.922     5 O    0.170
     7   6 C    3.913 --     8 C    1.013    17 H    0.970    16 H    0.969
                             6 O    0.922
     8   6 C    3.989 --     7 C    1.013    20 H    0.986    18 H    0.984
                            19 H    0.980
     9   1 H    0.999 --     1 C    0.987
    10   1 H    0.997 --     1 C    0.986
    11   1 H    0.998 --     1 C    0.987
    12   1 H    0.997 --     2 C    0.977
    13   1 H    0.996 --     2 C    0.975
    14   1 H    0.993 --     3 C    0.952
    15   1 H    0.995 --     3 C    0.973
    16   1 H    0.993 --     7 C    0.969
    17   1 H    0.997 --     7 C    0.970
    18   1 H    0.996 --     8 C    0.984
    19   1 H    0.994 --     8 C    0.980
    20   1 H    0.997 --     8 C    0.986
 ---------------------------------------------------------------------------

Topologies differ in total number of bonds
Writing topology from bond orders to xtbtopo.mol

molecular dipole:
                 x           y           z       tot (Debye)
 q only:        0.057      -0.463       1.126
   full:        0.058      -0.460       1.107       3.050
molecular quadrupole (traceless):
                xx          xy          yy          xz          yz          zz
 q only:        8.747      -2.732      -1.668       0.111       3.132      -7.079
  q+dip:        7.204      -3.171      -0.633       0.477       3.440      -6.571
   full:        7.550      -2.627      -0.337       0.521       3.950      -7.213


           -------------------------------------------------
          | TOTAL ENERGY              -27.120977700649 Eh   |
          | GRADIENT NORM               0.000037471364 Eh/α |
          | HOMO-LUMO GAP               4.889278717177 eV   |
           -------------------------------------------------

------------------------------------------------------------------------
 * finished run on 2025/04/11 at 15:53:54.111     
------------------------------------------------------------------------
 total:
 * wall-time:     0 d,  0 h,  0 min,  0.082 sec
 *  cpu-time:     0 d,  0 h,  0 min,  0.036 sec
 * ratio c/w:     0.444 speedup
 SCF:
 * wall-time:     0 d,  0 h,  0 min,  0.042 sec
 *  cpu-time:     0 d,  0 h,  0 min,  0.024 sec
 * ratio c/w:     0.563 speedup

