      -----------------------------------------------------------      
     |                   =====================                   |     
     |                           x T B                           |     
     |                   =====================                   |     
     |                         S. Grimme                         |     
     |          Mulliken Center for Theoretical Chemistry        |     
     |                    University of Bonn                     |     
      -----------------------------------------------------------      

   * xtb version 6.7.1 (edcfbbe) compiled by 'albert@albert-system' on 2024-07-22

   xtb is free software: you can redistribute it and/or modify it under
   the terms of the GNU Lesser General Public License as published by
   the Free Software Foundation, either version 3 of the License, or
   (at your option) any later version.
   
   xtb is distributed in the hope that it will be useful,
   but WITHOUT ANY WARRANTY; without even the implied warranty of
   MERCHANTABILITY or FITNESS FOR A PARTICULAR PURPOSE.  See the
   GNU Lesser General Public License for more details.
   
   Cite this work as:
   * C. Bannwarth, E. Caldeweyher, S. Ehlert, A. Hansen, P. Pracht,
     J. Seibert, S. Spicher, S. Grimme, WIREs Comput. Mol. Sci., 2020, 11,
     e01493. DOI: 10.1002/wcms.1493
   
   for GFN2-xTB:
   * C. Bannwarth, S. Ehlert and S. Grimme., J. Chem. Theory Comput., 2019,
     15, 1652-1671. DOI: 10.1021/acs.jctc.8b01176
   for GFN1-xTB:
   * S. Grimme, C. Bannwarth, P. Shushkov, J. Chem. Theory Comput., 2017,
     13, 1989-2009. DOI: 10.1021/acs.jctc.7b00118
   for GFN0-xTB:
   * P. Pracht, E. Caldeweyher, S. Ehlert, S. Grimme, ChemRxiv, 2019, preprint.
     DOI: 10.26434/chemrxiv.8326202.v1
   for GFN-FF:
   * S. Spicher and S. Grimme, Angew. Chem. Int. Ed., 2020, 59, 15665-15673.
     DOI: 10.1002/anie.202004239
   
   for ALPB and GBSA implicit solvation:
   * S. Ehlert, M. Stahn, S. Spicher, S. Grimme, J. Chem. Theory Comput.,
     2021, 17, 4250-4261. DOI: 10.1021/acs.jctc.1c00471
   
   for ddCOSMO and CPCM-X implicit solvation:
   * M. Stahn, S. Ehlert, S. Grimme, J. Phys. Chem. A,
     2023, XX, XXXX-XXXX. DOI: 10.1021/acs.jpca.3c04382
   
   for DFT-D4:
   * E. Caldeweyher, C. Bannwarth and S. Grimme, J. Chem. Phys., 2017,
     147, 034112. DOI: 10.1063/1.4993215
   * E. Caldeweyher, S. Ehlert, A. Hansen, H. Neugebauer, S. Spicher,
     C. Bannwarth and S. Grimme, J. Chem. Phys., 2019, 150, 154122.
     DOI: 10.1063/1.5090222
   * E. Caldeweyher, J.-M. Mewes, S. Ehlert and S. Grimme, Phys. Chem. Chem. Phys.
     2020, 22, 8499-8512. DOI: 10.1039/D0CP00502A
   
   for sTDA-xTB:
   * S. Grimme and C. Bannwarth, J. Chem. Phys., 2016, 145, 054103.
     DOI: 10.1063/1.4959605
   
   in the mass-spec context:
   * V. Asgeirsson, C. Bauer and S. Grimme, Chem. Sci., 2017, 8, 4879.
     DOI: 10.1039/c7sc00601b
   * J. Koopman and S. Grimme, ACS Omega 2019, 4, 12, 15120-15133.
     DOI: 10.1021/acsomega.9b02011
   
   for metadynamics refer to:
   * S. Grimme, J. Chem. Theory Comput., 2019, 155, 2847-2862
     DOI: 10.1021/acs.jctc.9b00143
   
   for SPH calculations refer to:
   * S. Spicher and S. Grimme, J. Chem. Theory Comput., 2021, 17, 1701-1714
     DOI: 10.1021/acs.jctc.0c01306
   
   for ONIOM refer to:
   * C. Plett, A. Katbashev, S. Ehlert, S. Grimme, M. Bursch,
     Phys. Chem. Chem. Phys., 2023, 25, 17860-17868. DOI: 10.1039/D3CP02178E
   
   for DIPRO refer to:
   * J. Kohn, N. Gildemeister, S. Grimme, D. Fazzi, A. Hansen,
     J. Chem. Phys., 2023, just accepted.
   
   for PTB refer to:
   * S. Grimme, M. Mueller, A. Hansen, J. Chem. Phys., 2023, 158, 124111.
     DOI: 10.1063/5.0137838
   
   with help from (in alphabetical order)
   P. Atkinson, C. Bannwarth, F. Bohle, G. Brandenburg, E. Caldeweyher
   M. Checinski, S. Dohm, S. Ehlert, S. Ehrlich, I. Gerasimov, C. Hölzer
   A. Katbashev, J. Kohn, J. Koopman, C. Lavigne, S. Lehtola, F. März, M. Müller,
   F. Musil, H. Neugebauer, J. Pisarek, C. Plett, P. Pracht, F. Pultar,
   J. Seibert, P. Shushkov, S. Spicher, M. Stahn, M. Steiner, T. Strunk,
   J. Stückrath, T. Rose, and J. Unsleber
   
 * started run on 2025/04/11 at 16:57:00.503     
   ID    Z sym.   atoms
    1    6 C      1-4, 7, 8
    2    8 O      5, 6
    3    1 H      9-20

           -------------------------------------------------
          |                Calculation Setup                |
           -------------------------------------------------

          program call               : /srv/scratch/z5358697/.xtb/bin/xtb xtb_opt.coord --opt normal --orca -I xtb_opt-xcontrol-inp
          hostname                   : k061
          coordinate file            : xtb_opt.coord
          omp threads                :                    16

           -------------------------------------------------
          |                   Orca driver                   |
           -------------------------------------------------
orca executable           : /apps/z_install_tree/linux-rocky8-ivybridge/gcc-12.2.0/orca-6.0.0-srtngmq3qlimg2qxbl6avaaiffipurdx/bin/orca
orca input file           : xtb_opt.inp
orca input line           : 
orca parallel             : true
orca number of threads    : 16
                         * ORCA takes the control...
  ------------------------------------------------------------------------

                                 *****************
                                 * O   R   C   A *
                                 *****************

                                            #,                                       
                                            ###                                      
                                            ####                                     
                                            #####                                    
                                            ######                                   
                                           ########,                                 
                                     ,,################,,,,,                         
                               ,,#################################,,                 
                          ,,##########################################,,             
                       ,#########################################, ''#####,          
                    ,#############################################,,   '####,        
                  ,##################################################,,,,####,       
                ,###########''''           ''''###############################       
              ,#####''   ,,,,##########,,,,          '''####'''          '####       
            ,##' ,,,,###########################,,,                        '##       
           ' ,,###''''                  '''############,,,                           
         ,,##''                                '''############,,,,        ,,,,,,###''
      ,#''                                            '''#######################'''  
     '                                                          ''''####''''         
             ,#######,   #######,   ,#######,      ##                                
            ,#'     '#,  ##    ##  ,#'     '#,    #''#        ,####,   ,####,        
            ##       ##  ##   ,#'  ##            #'  '#       #'       #'  '#        
            ##       ##  #######   ##           ,######,      #####,   #    #        
            '#,     ,#'  ##    ##  '#,     ,#' ,#      #,     #,   #   #,  ,#        
             '#######'   ##     ##  '#######'  #'      '#     '####' # '####'        



                #########################################################
                #                        -***-                          #
                #          Department of theory and spectroscopy        #
                #                                                       #
                #                      Frank Neese                      #
                #                                                       #
                #     Directorship, Architecture, Infrastructure        #
                #                    SHARK, DRIVERS                     #
                #        Core code/Algorithms in most modules           #
                #                                                       #
                #        Max Planck Institute fuer Kohlenforschung      #
                #                Kaiser Wilhelm Platz 1                 #
                #                 D-45470 Muelheim/Ruhr                 #
                #                      Germany                          #
                #                                                       #
                #                  All rights reserved                  #
                #                        -***-                          #
                #########################################################


                         Program Version 6.0.0  -   RELEASE  -


 With contributions from (in alphabetic order):
   Daniel Aravena         : Magnetic Suceptibility
   Michael Atanasov       : Ab Initio Ligand Field Theory (pilot matlab implementation)
   Alexander A. Auer      : GIAO ZORA, VPT2 properties, NMR spectrum
   Ute Becker             : All parallelization in ORCA, NUMFREQ, NUMCALC
   Giovanni Bistoni       : ED, misc. LED, open-shell LED, HFLD
   Martin Brehm           : Molecular dynamics
   Dmytro Bykov           : pre 5.0 version of the SCF Hessian
   Marcos Casanova-Páez   : Triplet and SCS-CIS(D). UHF-(DLPNO)-IP/EA/STEOM-CCSD. UHF-CVS-IP/STEOM-CCSD
   Vijay G. Chilkuri      : MRCI spin determinant printing, contributions to CSF-ICE
   Pauline Colinet        : FMM embedding
   Dipayan Datta          : RHF DLPNO-CCSD density
   Achintya Kumar Dutta   : EOM-CC, STEOM-CC
   Nicolas Foglia         : Exact transition moments, OPA infrastructure, MCD improvements
   Dmitry Ganyushin       : Spin-Orbit,Spin-Spin,Magnetic field MRCI
   Miquel Garcia          : C-PCM and meta-GGA Hessian, CCSD/C-PCM, Gaussian charge scheme
   Tiago L. C. Gouveia    : GS-ROHF, GS-ROCIS
   Yang Guo               : DLPNO-NEVPT2, F12-NEVPT2, CIM, IAO-localization
   Andreas Hansen         : Spin unrestricted coupled pair/coupled cluster methods
   Ingolf Harden          : AUTO-CI MPn and infrastructure 
   Benjamin Helmich-Paris : MC-RPA, TRAH-(SCF,CASSCF), AVAS, COSX integrals, SCF dyn. polar.
   Lee Huntington         : MR-EOM, pCC
   Robert Izsak           : Overlap fitted RIJCOSX, COSX-SCS-MP3, EOM
   Riya Kayal             : Wick's Theorem for AUTO-CI, AUTO-CI UHF-CCSDT
   Emily Kempfer          : AUTO-CI, RHF CISDT and CCSDT
   Christian Kollmar      : KDIIS, OOCD, Brueckner-CCSD(T), CCSD density, CASPT2, CASPT2-K, improved NEVPT2
   Axel Koslowski         : Symmetry handling
   Simone Kossmann        : Meta GGA functionals, TD-DFT gradient, OOMP2, (MP2 Hessian; deprecated post 5.0)
   Lucas Lang             : DCDCAS
   Marvin Lechner         : AUTO-CI (C++ implementation), FIC-MRCC
   Spencer Leger          : CASSCF response
   Dagmar Lenk            : GEPOL surface, SMD, ORCA-2-JSON
   Dimitrios Liakos       : Extrapolation schemes; Compound Job, initial MDCI parallelization
   Dimitrios Manganas     : Further ROCIS development; embedding schemes. LFT, Crystal Embedding
   Dimitrios Pantazis     : SARC Basis sets
   Anastasios Papadopoulos: AUTO-CI, single reference methods and gradients
   Taras Petrenko         : pre 6.0 DFT Hessian and TD-DFT gradient, (ASA, deprecated), ECA, 1-Electron XAS/XES, NRVS
   Peter Pinski           : DLPNO-MP2, DLPNO-MP2 Gradient
   Christoph Reimann      : Effective Core Potentials
   Marius Retegan         : Local ZFS, SOC
   Christoph Riplinger    : Optimizer, TS searches, QM/MM, DLPNO-CCSD(T), (RO)-DLPNO pert. Triples
   Michael Roemelt        : Original ROCIS implementation
   Masaaki Saitow         : Open-shell DLPNO-CCSD energy and density
   Barbara Sandhoefer     : DKH picture change effects
   Kantharuban Sivalingam : CASSCF convergence/infrastructure, NEVPT2 and variants, FIC-MRCI
   Bernardo de Souza      : ESD, SOC TD-DFT
   Georgi Stoychev        : AutoAux, RI-MP2 NMR, DLPNO-MP2 response, X2C
   Van Anh Tran           : RI-MP2 g-tensors
   Willem Van den Heuvel  : Paramagnetic NMR
   Zikuan Wang            : NOTCH, Electric field optimization 
   Frank Wennmohs         : Technical directorship and infrastructure
   Hang Xu                : AUTO-CI-Response properties 


 We gratefully acknowledge several colleagues who have allowed us to
 interface, adapt or use parts of their codes:
   Stefan Grimme, W. Hujo, H. Kruse, P. Pracht,  : VdW corrections, initial TS optimization,
                  C. Bannwarth, S. Ehlert,         DFT functionals, gCP, sTDA/sTD-DF
                  L. Wittmann, M. Mueller
   Ed Valeev, F. Pavosevic, A. Kumar             : LibInt (2-el integral package), F12 methods
   Garnet Chan, S. Sharma, J. Yang, R. Olivares  : DMRG
   Ulf Ekstrom                                   : XCFun DFT Library
   Mihaly Kallay                                 : mrcc  (arbitrary order and MRCC methods)
   Frank Weinhold                                : gennbo (NPA and NBO analysis)
   Simon Mueller                                 : openCOSMO-RS
   Christopher J. Cramer and Donald G. Truhlar   : smd solvation model
   Lars Goerigk                                  : TD-DFT with DH, B97 family of functionals
   V. Asgeirsson, H. Jonsson                     : NEB implementation
   FAccTs GmbH                                   : IRC, NEB, NEB-TS, DLPNO-Multilevel, CI-OPT
                                                   MM, QMMM, 2- and 3-layer-ONIOM, Crystal-QMMM,
                                                   LR-CPCM, SF, NACMEs, symmetry and pop. for TD-DFT,
                                                   nearIR, NL-DFT gradient (VV10), updates on ESD,
                                                   ML-optimized integration grids, MBIS, APM,
                                                   GOAT, DOCKER, SOLVATOR, interface openCOSMO-RS
   S Lehtola, MJT Oliveira, MAL Marques          : LibXC Library
   Liviu Ungur et al                             : ANISO software


 Your calculation uses the libint2 library for the computation of 2-el integrals
 For citations please refer to: http://libint.valeyev.net

 Your ORCA version has been built with support for libXC version: 6.2.2
 For citations please refer to: https://libxc.gitlab.io

 This ORCA versions uses:
   CBLAS   interface :  Fast vector & matrix operations
   LAPACKE interface :  Fast linear algebra routines
   SCALAPACK package :  Parallel linear algebra routines
   Shared memory     :  Shared parallel matrices
   BLAS/LAPACK       :  OpenBLAS 0.3.27  USE64BITINT DYNAMIC_ARCH NO_AFFINITY SkylakeX SINGLE_THREADED
        Core in use  :  SkylakeX
   Copyright (c) 2011-2014, The OpenBLAS Project




***************************************
The coordinates will be read from file: xtb_opt.xyz
***************************************


Your calculation utilizes the geometrical counterpoise correction gCP
Please cite in your paper:
H.Kruse, S. Grimme J.Chem.Phys., 136, (2012), 154101 
   

Your calculation utilizes the atom-pairwise dispersion correction
based on EEQ partial charges (D4)


Your calculation utilizes the SMD solvation module
Please cite in your paper:
A.V. Marenich, C.J. Cramer, D.G. Truhlar J. Phys. Chem. B, 113, (2009), 6378 

================================================================================

----- Orbital basis set information -----
Your calculation utilizes the basis: def2-mTZVPP
   Stefan Grimme, Andreas Hansen, Sebastian Ehlert, and Jan-Michael Mewes 
   J. Chem. Phys. 154, 064103 (2021). DOI: 10.1063/5.0040021

----- AuxJ basis set information -----
Your calculation utilizes the auxiliary basis: def2/J
   F. Weigend, Phys. Chem. Chem. Phys. 8, 1057 (2006).

================================================================================
                                        WARNINGS
                       Please study these warnings very carefully!
================================================================================

WARNING: Old DensityContainer found on disk!
         Will remove this file - 
         If you want to keep old densities, please start your calculation with a different basename. 

Using LibXC functional ID 497 : Re-regularized SCAN exchange by Furness et al
[ 1]  J. W. Furness, A. D. Kaplan, J. Ning, J. P. Perdew, and J. Sun.,  J. Phys. Chem. Lett. 11, 8208-8215 (2020)
[ 2]  J. W. Furness, A. D. Kaplan, J. Ning, J. P. Perdew, and J. Sun.,  J. Phys. Chem. Lett. 11, 9248-9248 (2020)
Using LibXC functional ID 498 : Re-regularized SCAN correlation by Furness et al
[ 1]  J. W. Furness, A. D. Kaplan, J. Ning, J. P. Perdew, and J. Sun.,  J. Phys. Chem. Lett. 11, 8208-8215 (2020)
[ 2]  J. W. Furness, A. D. Kaplan, J. Ning, J. P. Perdew, and J. Sun.,  J. Phys. Chem. Lett. 11, 9248-9248 (2020)
Using LibXC functional ID 497 : Re-regularized SCAN exchange by Furness et al
[ 1]  J. W. Furness, A. D. Kaplan, J. Ning, J. P. Perdew, and J. Sun.,  J. Phys. Chem. Lett. 11, 8208-8215 (2020)
[ 2]  J. W. Furness, A. D. Kaplan, J. Ning, J. P. Perdew, and J. Sun.,  J. Phys. Chem. Lett. 11, 9248-9248 (2020)
Using LibXC functional ID 498 : Re-regularized SCAN correlation by Furness et al
[ 1]  J. W. Furness, A. D. Kaplan, J. Ning, J. P. Perdew, and J. Sun.,  J. Phys. Chem. Lett. 11, 8208-8215 (2020)
[ 2]  J. W. Furness, A. D. Kaplan, J. Ning, J. P. Perdew, and J. Sun.,  J. Phys. Chem. Lett. 11, 9248-9248 (2020)

================================================================================
                                       INPUT FILE
================================================================================
NAME = xtb_opt.inp
|  1> ! r2scan-3c def2/J RI DEFGRID2 scfconv7 ENGRAD tightSCF miniprint
|  2> %cpcm
|  3>     smd true
|  4>     smdsolvent "water"
|  5> end
|  6> * xyzfile 0 1 xtb_opt.xyz
|  7> 
|  8>                          ****END OF INPUT****
================================================================================

                     *******************************
                     * Energy+Gradient Calculation *
                     *******************************

---------------------------------
CARTESIAN COORDINATES (ANGSTROEM)
---------------------------------
  C     -2.260604   -1.409800    0.945696
  C     -2.136242   -0.581913   -0.330544
  C     -1.497916    0.805129   -0.141412
  C      0.005807    0.846317   -0.164566
  O      0.655894    1.707268   -0.739254
  O      0.565331   -0.155206    0.534409
  C      2.026958   -0.232394    0.544839
  C      2.531794   -0.939054   -0.692028
  H     -1.285725   -1.652069    1.376180
  H     -2.837633   -0.865927    1.701922
  H     -2.780023   -2.351819    0.742124
  H     -3.138442   -0.419584   -0.741499
  H     -1.576952   -1.138221   -1.092394
  H     -1.815366    1.231599    0.820612
  H     -1.829812    1.494829   -0.920659
  H      2.433734    0.777255    0.640333
  H      2.253349   -0.798873    1.450168
  H      3.620244   -1.036720   -0.629559
  H      2.100922   -1.941778   -0.767507
  H      2.288766   -0.377906   -1.598402

----------------------------
CARTESIAN COORDINATES (A.U.)
----------------------------
  NO LB      ZA    FRAG     MASS         X           Y           Z
   0 C     6.0000    0    12.011   -4.271922   -2.664136    1.787106
   1 C     6.0000    0    12.011   -4.036913   -1.099656   -0.624637
   2 C     6.0000    0    12.011   -2.830651    1.521474   -0.267230
   3 C     6.0000    0    12.011    0.010973    1.599307   -0.310984
   4 O     8.0000    0    15.999    1.239460    3.226269   -1.396988
   5 O     8.0000    0    15.999    1.068321   -0.293297    1.009886
   6 C     6.0000    0    12.011    3.830395   -0.439161    1.029597
   7 C     6.0000    0    12.011    4.784397   -1.774555   -1.307744
   8 H     1.0000    0     1.008   -2.429668   -3.121957    2.600603
   9 H     1.0000    0     1.008   -5.362349   -1.636365    3.216167
  10 H     1.0000    0     1.008   -5.253483   -4.444295    1.402412
  11 H     1.0000    0     1.008   -5.930795   -0.792899   -1.401229
  12 H     1.0000    0     1.008   -2.980007   -2.150925   -2.064326
  13 H     1.0000    0     1.008   -3.430545    2.327384    1.550732
  14 H     1.0000    0     1.008   -3.457843    2.824817   -1.739793
  15 H     1.0000    0     1.008    4.599091    1.468799    1.210055
  16 H     1.0000    0     1.008    4.258212   -1.509652    2.740421
  17 H     1.0000    0     1.008    6.841269   -1.959117   -1.189695
  18 H     1.0000    0     1.008    3.970167   -3.669429   -1.450378
  19 H     1.0000    0     1.008    4.325142   -0.714138   -3.020543

------------------------------------------------------------------------------
                   ___                                                        
                  /   \      - P O W E R E D   B Y -                         
                 /     \                                                     
                 |  |  |   _    _      __       _____    __    __             
                 |  |  |  | |  | |    /  \     |  _  \  |  |  /  |          
                  \  \/   | |  | |   /    \    | | | |  |  | /  /          
                 / \  \   | |__| |  /  /\  \   | |_| |  |  |/  /          
                |  |  |   |  __  | /  /__\  \  |    /   |      \           
                |  |  |   | |  | | |   __   |  |    \   |  |\   \          
                \     /   | |  | | |  |  |  |  | |\  \  |  | \   \       
                 \___/    |_|  |_| |__|  |__|  |_| \__\ |__|  \__/        
                                                                              
                      - O R C A' S   B I G   F R I E N D -                    
                                      &                                       
                       - I N T E G R A L  F E E D E R -                       
                                                                              
 v1 FN, 2020, v2 2021, v3 2022-2024                                           
------------------------------------------------------------------------------


----------------------
SHARK INTEGRAL PACKAGE
----------------------

Number of atoms                             ...     20
Number of basis functions                   ...    222
Number of shells                            ...    110
Maximum angular momentum                    ...      2
Integral batch strategy                     ... SHARK/LIBINT Hybrid
RI-J (if used) integral strategy            ... SPLIT-RIJ (Revised 2003 algorithm where possible)
Printlevel                                  ...      1
Contraction scheme used                     ... SEGMENTED contraction
Prescreening option                         ... SCHWARTZ
   Thresh                                   ... 3.000e-11
   Tcut                                     ... 1.000e-12
   Tpresel                                  ... 1.000e-12 
Coulomb Range Separation                    ... NOT USED
Exchange Range Separation                   ... NOT USED
Multipole approximations                    ... NOT USED
Finite Nucleus Model                        ... NOT USED
CABS basis                                  ... NOT available
Auxiliary Coulomb fitting basis             ... AVAILABLE
   # of basis functions in Aux-J            ...    524
   # of shells in Aux-J                     ...    180
   Maximum angular momentum in Aux-J        ...      4
Auxiliary J/K fitting basis                 ... NOT available
Auxiliary Correlation fitting basis         ... NOT available
Auxiliary 'external' fitting basis          ... NOT available

Checking pre-screening integrals            ... done (  0.0 sec) Dimension = 110
Check shell pair data                       ... done (  0.0 sec)
Shell pair information
Shell pair cut-off parameter TPreSel        ...   1.0e-12
Total number of shell pairs                 ...      6105
Shell pairs after pre-screening             ...      5451
Total number of primitive shell pairs       ...     21533
Primitive shell pairs kept                  ...     13661
          la=0 lb=0:   1822 shell pairs
          la=1 lb=0:   2058 shell pairs
          la=1 lb=1:    601 shell pairs
          la=2 lb=0:    584 shell pairs
          la=2 lb=1:    333 shell pairs
          la=2 lb=2:     53 shell pairs

Calculating one electron integrals          ... done (  0.0 sec)
Calculating RI/J V-Matrix + Cholesky decomp.... done (  0.1 sec)
Calculating Nuclear repulsion               ... done (  0.0 sec) ENN=    395.934594198664 Eh

Diagonalization of the overlap matrix:
Smallest eigenvalue                        ... 1.397e-04
Time for diagonalization                   ...    0.009 sec
Threshold for overlap eigenvalues          ... 1.000e-07
Number of eigenvalues below threshold      ... 0
Time for construction of square roots      ...    0.019 sec
Total time needed                          ...    0.037 sec

-------------------
DFT GRID GENERATION
-------------------

General Integration Accuracy     IntAcc      ... 4.388
Radial Grid Type                 RadialGrid  ... OptM3 with GC (2021)
Angular Grid (max. ang.)         AngularGrid ... 4 (Lebedev-302)
Angular grid pruning method      GridPruning ... 4 (adaptive)
Weight generation scheme         WeightScheme... mBecke (2022)
Basis function cutoff            BFCut       ... 1.0000e-11
Integration weight cutoff        WCut        ... 1.0000e-14
Partially contracted basis set               ... off
Rotationally invariant grid construction     ... off
Angular grids for H and He will be reduced by one unit
Diffuse basis detected: some atoms will have their outermost
                        angular grid increased by 1.

Total number of grid points                  ...    87319
Total number of batches                      ...     1374
Average number of points per batch           ...       63
Average number of grid points per atom       ...     4366
Initializing property integral containers    ... done (  0.0 sec)

SHARK setup successfully completed in   1.3 seconds

Maximum memory used throughout the entire STARTUP-calculation: 39.7 MB
Occupation numbers will be reassigned to an Aufbau configuration
             **** ENERGY FILE WAS UPDATED (xtb_opt.en.tmp) ****
Finished Guess after   0.3 sec
Maximum memory used throughout the entire GUESS-calculation: 15.3 MB
--------------------
CPCM SOLVATION MODEL
--------------------
CPCM parameters:
  Epsilon                                         ...      78.3550
  Refrac                                          ...       1.3328
  Rsolv                                           ...       1.3000
  Surface type                                    ... GAUSSIAN VDW
  Discretization scheme                           ... Constant charge density
    Threshold for H atoms                         ...       5.0000 (charges/Ang^2)
    Threshold for non-H atoms                     ...       5.0000 (charges/Ang^2)
  Epsilon function type                           ...         CPCM
Solvent:                                          ... WATER
SMD-CDS solvent descriptors:
  Soln                                            ...       1.3328
  Soln25                                          ...       1.3323
  Sola                                            ...       0.0000
  Solb                                            ...       0.0000
  Solg                                            ...       0.0000
  Solc                                            ...       0.0000
  Solh                                            ...       0.0000
Radii:
  Scheme                                          ... Element-dependent radii
  Radius for C  used is    3.4960 Bohr (=   1.8500 Ang.)
  Radius for O  used is    2.8724 Bohr (=   1.5200 Ang.)
  Radius for H  used is    2.2677 Bohr (=   1.2000 Ang.)
Calculating surface                               ...        done! (  0.0s)
Cavity surface points                             ...         1517
Cavity Volume                                     ...     885.0926
Cavity Surface-area                               ...     588.1276
Calculating surface distance matrix               ...        done! (  0.0s)
Performing Cholesky decomposition & store         ...        done! (  0.1s)
Overall time for CPCM initialization              ...                 0.1s

----------------------------------------D-I-I-S--------------------------------------------
Iteration    Energy (Eh)           Delta-E    RMSDP     MaxDP     DIISErr   Damp  Time(sec)
-------------------------------------------------------------------------------------------
               ***  Starting incremental Fock matrix formation  ***
                              *** Initializing SOSCF ***
---------------------------------------S-O-S-C-F--------------------------------------
Iteration    Energy (Eh)           Delta-E    RMSDP     MaxDP     MaxGrad    Time(sec)
--------------------------------------------------------------------------------------
    1    -386.2537394408273030     0.00e+00  1.32e-06  4.09e-05  8.05e-06     3.8
               *** Restarting incremental Fock matrix formation ***
    2    -386.2537394398246988     1.00e-09  2.00e-06  7.04e-05  1.67e-05     3.7
                  *** Gradient check signals convergence ***

               *****************************************************
               *                     SUCCESS                       *
               *           SCF CONVERGED AFTER   2 CYCLES          *
               *****************************************************


SMD CDS free energy correction energy :                 4.96488     Kcal/mol
Total Energy after SMD CDS correction =              -386.245827407 Eh
             **** ENERGY FILE WAS UPDATED (xtb_opt.en.tmp) ****

----------------
TOTAL SCF ENERGY
----------------

Total Energy       :       -386.24582740708951 Eh          -10510.28330 eV

Components:
Nuclear Repulsion  :        395.93459419866394 Eh           10773.92804 eV
Electronic Energy  :       -782.17240565077020 Eh          -21283.99322 eV
One Electron Energy:      -1309.30672057961579 Eh          -35628.04716 eV
Two Electron Energy:        527.13431492884558 Eh           14344.05395 eV
CPCM Dielectric    :         -0.01592798771843 Eh              -0.43342 eV
SMD CDS (Gcds)     :          0.00791203273521 Eh               0.21530 eV

Virial components:
Potential Energy   :       -770.69022816318034 Eh          -20971.54728 eV
Kinetic Energy     :        384.44440075609083 Eh           10461.26398 eV
Virial Ratio       :          2.00468579239925

DFT components:
N(Alpha)           :       31.999982825525 electrons
N(Beta)            :       31.999982825525 electrons
N(Total)           :       63.999965651049 electrons
E(X)               :      -52.035432736461 Eh       
E(C)               :       -2.035645098000 Eh       
E(XC)              :      -54.071077834461 Eh       

CPCM Solvation Model Properties:
Surface-charge          :         -0.04727416239070
Corrected charge        :          0.00000000000000
Outlying charge corr.   :          0.00016984879017 Eh               0.00462 eV
Free-energy (cav+disp)  :          0.00791203273521 Eh               0.21530 eV

---------------
SCF CONVERGENCE
---------------

  Last Energy change         ...   -1.0026e-09  Tolerance :   1.0000e-07
  Last MAX-Density change    ...    7.0382e-05  Tolerance :   1.0000e-07
  Last RMS-Density change    ...    2.0004e-06  Tolerance :   5.0000e-09
  Last DIIS Error            ...    5.5202e-05  Tolerance :   1.0000e-07
  Last Orbital Gradient      ...    1.6731e-05  Tolerance :   1.0000e-04
  Last Orbital Rotation      ...    6.6139e-05  Tolerance :   1.0000e-04


----------------
ORBITAL ENERGIES
----------------

  NO   OCC          E(Eh)            E(eV) 
   0   2.0000     -18.999890      -517.0133 
   1   2.0000     -18.943560      -515.4805 
   2   2.0000     -10.164159      -276.5808 
   3   2.0000     -10.084521      -274.4138 
   4   2.0000     -10.038026      -273.1486 
   5   2.0000     -10.030117      -272.9334 
   6   2.0000     -10.020447      -272.6702 
   7   2.0000     -10.012030      -272.4412 
   8   2.0000      -1.068159       -29.0661 
   9   2.0000      -0.982242       -26.7282 
  10   2.0000      -0.765777       -20.8379 
  11   2.0000      -0.728437       -19.8218 
  12   2.0000      -0.672713       -18.3055 
  13   2.0000      -0.614028       -16.7085 
  14   2.0000      -0.564475       -15.3602 
  15   2.0000      -0.517556       -14.0834 
  16   2.0000      -0.468833       -12.7576 
  17   2.0000      -0.457764       -12.4564 
  18   2.0000      -0.436405       -11.8752 
  19   2.0000      -0.410984       -11.1834 
  20   2.0000      -0.403158       -10.9705 
  21   2.0000      -0.385653       -10.4942 
  22   2.0000      -0.377162       -10.2631 
  23   2.0000      -0.359313        -9.7774 
  24   2.0000      -0.346200        -9.4206 
  25   2.0000      -0.337302        -9.1784 
  26   2.0000      -0.318011        -8.6535 
  27   2.0000      -0.304058        -8.2739 
  28   2.0000      -0.303410        -8.2562 
  29   2.0000      -0.295132        -8.0310 
  30   2.0000      -0.278371        -7.5749 
  31   2.0000      -0.248354        -6.7581 
  32   0.0000      -0.025443        -0.6923 
  33   0.0000       0.074035         2.0146 
  34   0.0000       0.090554         2.4641 
  35   0.0000       0.117777         3.2049 
  36   0.0000       0.121618         3.3094 
  37   0.0000       0.128620         3.4999 
  38   0.0000       0.138210         3.7609 
  39   0.0000       0.140270         3.8169 
  40   0.0000       0.156996         4.2721 
  41   0.0000       0.161860         4.4044 
  42   0.0000       0.162200         4.4137 
*Only the first 10 virtual orbitals were printed.
Total SCF time: 0 days 0 hours 0 min 8 sec 
Finished LeanSCF after   8.5 sec

Maximum memory used throughout the entire LEANSCF-calculation: 31.1 MB


-------------------------------------------------------------------------------
                          DFT DISPERSION CORRECTION                            
                                                                               
                                DFTD4 V3.4.0                                   
-------------------------------------------------------------------------------
-------------------------   ----------------
Dispersion correction           -0.005185737
-------------------------   ----------------

------------------   -----------------
gCP correction             0.011589420
------------------   -----------------

-------------------------   --------------------
FINAL SINGLE POINT ENERGY      -386.239423724411
-------------------------   --------------------

------------------------------------------------------------------------------
                         ORCA SCF GRADIENT CALCULATION
------------------------------------------------------------------------------

Nuc. rep. gradient        (SHARK) ... done (  0.0 sec)
HCore & Overlap gradient  (SHARK) ... done (  0.4 sec)
Split-RIJ-J gradient      (SHARK) ... done (  2.0 sec)
XC gradient                       ... done (  6.6 sec)
CPCM gradient                     ... done (  1.1 sec)
SMD gradient                      ... done (  0.0 sec)
Dispersion correction             ... done (  0.0 sec)

-------------------
DISPERSION GRADIENT
-------------------

   1   C   :   -0.000076834   -0.000056014    0.000038719
   2   C   :   -0.000084085   -0.000018567   -0.000017233
   3   C   :   -0.000067190    0.000049154   -0.000010028
   4   C   :    0.000009174    0.000062168   -0.000009663
   5   O   :    0.000023665    0.000091166   -0.000029273
   6   O   :    0.000047284    0.000010224    0.000023405
   7   C   :    0.000090234    0.000000476    0.000021290
   8   C   :    0.000091534   -0.000036170   -0.000024783
   9   H   :   -0.000034311   -0.000029503    0.000023107
  10   H   :   -0.000028293   -0.000017931    0.000019613
  11   H   :   -0.000024093   -0.000027768    0.000009728
  12   H   :   -0.000029872   -0.000007307   -0.000009161
  13   H   :   -0.000038326   -0.000015631   -0.000014768
  14   H   :   -0.000021916    0.000022547    0.000005541
  15   H   :   -0.000018032    0.000027951   -0.000016642
  16   H   :    0.000025292    0.000004181    0.000007323
  17   H   :    0.000034509   -0.000009036    0.000018701
  18   H   :    0.000026824   -0.000014092   -0.000007084
  19   H   :    0.000039646   -0.000026690   -0.000012150
  20   H   :    0.000034791   -0.000009159   -0.000016643

Difference to translation invariance:
           :    0.0000000000    0.0000000000   -0.0000000000

Difference to rotation invariance:
           :    0.0000000000    0.0000000000    0.0000000000

Norm of the Dispersion gradient    ...    0.0002811425
RMS gradient                       ...    0.0000362953
MAX gradient                       ...    0.0000915338
gCP correction                   ... done

------------------
CARTESIAN GRADIENT
------------------

   1   C   :   -0.000044993   -0.000068378   -0.000048127
   2   C   :   -0.000016998    0.000055504   -0.000015611
   3   C   :   -0.000073499    0.000093763   -0.000024276
   4   C   :    0.000083542   -0.000335702    0.000193874
   5   O   :    0.000013195    0.000103938   -0.000112316
   6   O   :    0.000136503    0.000130707   -0.000076530
   7   C   :   -0.000259054    0.000046080    0.000071553
   8   C   :    0.000062456   -0.000038187   -0.000048877
   9   H   :   -0.000006476   -0.000014238    0.000014978
  10   H   :   -0.000016561    0.000010177    0.000020795
  11   H   :   -0.000000222   -0.000009876    0.000005094
  12   H   :    0.000025810   -0.000001646   -0.000040316
  13   H   :    0.000018766   -0.000019913   -0.000054293
  14   H   :   -0.000044853   -0.000036148    0.000060519
  15   H   :    0.000080868    0.000030415    0.000033166
  16   H   :    0.000057896    0.000062481   -0.000015168
  17   H   :    0.000077686    0.000036237    0.000052861
  18   H   :    0.000011489   -0.000000764   -0.000024040
  19   H   :   -0.000055920   -0.000057494    0.000008311
  20   H   :   -0.000049637    0.000013044   -0.000001597

Difference to translation invariance:
           :    0.0000000000   -0.0000000000    0.0000000000

Difference to rotation invariance:
           :    0.0001866719   -0.0002399715   -0.0000175815

Norm of the Cartesian gradient     ...    0.0006183501
RMS gradient                       ...    0.0000798287
MAX gradient                       ...    0.0003357016

-------
TIMINGS
-------

Total SCF gradient time     ....       11.084 sec

Densities                   ....       0.001 sec  (  0.0%)
One electron gradient       ....       0.389 sec  (  3.5%)
RI-J Coulomb gradient       ....       2.043 sec  ( 18.4%)
XC gradient                 ....       6.575 sec  ( 59.3%)
CPCM gradient               ....       1.090 sec  (  9.8%)
   A-Matrix (El+Nuc)        ....       0.086 sec  (  0.8%)
   Potential                ....       1.004 sec  (  9.1%)
SMD gradient                ....       0.014 sec  (  0.1%)

Maximum memory used throughout the entire SCFGRAD-calculation: 35.5 MB

------------------------------------------------------------------------------
                              ORCA PROPERTY CALCULATIONS
------------------------------------------------------------------------------

GBWName                                 ... xtb_opt.gbw
Number of atoms                         ...     20
Number of basis functions               ...    222
Max core memory                         ...   1024 MB

Electric properties:
Dipole moment                           ... YES
Quadrupole moment                       ...  NO
Static polarizability (Dipole/Dipole)   ...  NO
Static polarizability (Dipole/Quad.)    ...  NO
Static polarizability (Quad./Quad.)     ...  NO
Static polarizability (Velocity)        ...  NO

Atomic electric properties:
Dipole moment                           ...  NO
Quadrupole moment                       ...  NO
Static polarizability                   ...  NO

Choice of electric origin               ... Center of mass
Position of electric origin             ...     0.015843    -0.007510    -0.005573

General magnetic properties:
Magnetizability                         ...  NO

EPR properties:
g-Tensor (aka g-matrix)                 ...  NO
Zero-Field splitting spin-orbit         ...  NO
Zero-field splitting spin-spin          ...  NO
Hyperfine couplings                     ...  NO (   0 nuclei)
Quadrupole couplings                    ...  NO (   0 nuclei)
Contact density                         ...  NO (   0 nuclei)

NMR properties:
Chemical shifts                         ...  NO (   0 nuclei)
Spin-rotation constants                 ...  NO (   0 nuclei)
Spin-spin couplings                     ...  NO (   0 nuclei,    0 pairs)

Choice of magnetic origin               ... GIAO
Position of magnetic origin             ...     0.000000     0.000000     0.000000

Properties with geometric perturbations:
SCF Hessian                             ...  NO
IR spectrum                             ...  NO
VCD spectrum                            ...  NO
X-ray spectroscopy properties:
SCF XES/XAS/RIXS spectra                ...  NO


-------------
DIPOLE MOMENT
-------------

Method             : SCF
Type of density    : Electron Density
Multiplicity       :   1
Irrep              :   0
Energy             :  -386.2458274070895072 Eh
Relativity type    : 
Basis              : AO
                                X                 Y                 Z
Electronic contribution:      2.278602290       5.565917541      -0.423783204
Nuclear contribution   :     -2.484810795      -6.573740418       0.950907893
                        -----------------------------------------
Total Dipole Moment    :     -0.206208505      -1.007822877       0.527124689
                        -----------------------------------------
Magnitude (a.u.)       :      1.155893307
Magnitude (Debye)      :      2.938047295



--------------------
Rotational spectrum 
--------------------
 
Rotational constants in cm-1:             0.100931             0.042860             0.034365 
Rotational constants in MHz :          3025.847132          1284.902954          1030.251237 

Dipole components along the rotational axes: 
x,y,z [a.u.] :    -0.373902     1.085883     0.130936 
x,y,z [Debye]:    -0.950382     2.760096     0.332813 

 

Dipole moment calculation done in   0.0 sec 

Maximum memory used throughout the entire PROP-calculation: 14.1 MB

--------------------------------
SUGGESTED CITATIONS FOR THIS RUN
--------------------------------

Below you find a list of papers that are relevant to this ORCA run
We neither can nor want to force you to cite these papers, but we appreciate if you do
You receive ORCA, which is the product of decades of hard work by many enthusiastic individuals, for free
The only thing we kindly ask in return is that you cite our papers,
We deeply appreciate it, if you show your appreciation for ORCA by not just citing the generic ORCA reference.

Please note that relegating all ORCA citations to the supporting information does *not* help us.
SI sections are not indexed - citations you put there will not count into any citation statistics
But we need these citations in order to attract the funding resources that allow us to do what we are doing

Therefore, if you are a happy ORCA user, please consider citing a few of the papers listed below in the main body of your paper

In addition to the list printed below, the program has created the file xtb_opt.bibtex that contains the list in bibtex format
You can import this file easily into all common literature databanks and citation aid programs


List of essential papers. We consider these as the minimum necessary citations

  1. Neese,F.
     Software update: the ORCA program system, version 5.0
     WIRES Comput. Molec. Sci., 2022 12(1)e1606
     doi.org/10.1002/wcms.1606
  2. Grimme,S.; Hansen,A.; Ehlert,S.; Mewes,J.
     r2SCAN-3c: A 'Swiss army knife' composite electronic-structure method
     J. Chem. Phys., 2021 154 064103
     doi.org/10.1063/5.0040021

List of papers to cite with high priority. The work reported in these papers was absolutely
necessary for this run to complete.
Our perspective: the developers of density functionals and basis sets usually get cited in chemistry papers
Good! But without the algorithms to do something with them, the functionals or basis sets would not do anything.
Hence, in our opinion, the algorithm design and method developments papers are equally worthy of getting cited

  1. Neese,F.
     An improvement of the resolution of the identity approximation for the formation of the Coulomb matrix
     J. Comp. Chem., 2003 24(14)1740-1747
     doi.org/10.1002/jcc.10318
  2. Garcia-Rates,M.; Neese,F.
     Effect of the Solute Cavity on the Solvation Energy and its Derivatives within the Framework of the Gaussian Charge Scheme
     J. Comput. Chem., 2020 41 922-939
     doi.org/10.1002/jcc.26139
  3. Neese,F.
     The SHARK Integral Generation and Digestion System
     J. Comp. Chem., 2022  1-16
     doi.org/10.1002/jcc.26942
  4. Lehtola,S.; Steigemann,C.; Oliveira,M.; Marques,M.
     Recent developments in Libxc - A comprehensive library of functionals for density functional theory
     Software X, 2018 7 
     doi.org/10.1016/j.softx.2017.11.002
  5. Caldeweyher,E.; Bannwarth,C.; Grimme,S.
     Extension of the D3 dispersion coefficient model
     J. Chem. Phys., 2017 147 034112-XXXX
     doi.org/10.1063/1.4993215
  6. Caldeweyher,E.; Ehlert,S.; Hansen,A.; Neugebauer,H.; Spicher,S.; Bannwarth,C.; Grimme,S.
     A generally applicable atomic-charge dependent London dispersion correction
     J. Chem. Phys., 2019 150 154122-XXXX
     doi.org/10.1063/1.5090222
  7. Caldeweyher,E.; Mewes,J.; Ehlert,S.; Grimme,S.
     Extension and evaluation of the D4 London-dispersion model for periodic systems
     Phys. Chem. Chem. Phys., 2020 22(16)8499-8512
     doi.org/10.1039/D0CP00502A

List of suggested additional citations. These are papers that are important in the 'surrounding' of 
of this run, or papers that preceded the highly important papers. If you like your results we are grateful for a citation.

  1. Neese,F.
     The ORCA program system
     WIRES Comput. Molec. Sci., 2012 2(1)73-78
     doi.org/10.1002/wcms.81
  2. Neese,F.
     Software update: the ORCA program system, version 4.0
     WIRES Comput. Molec. Sci., 2018 8(1)1-6
     doi.org/10.1002/wcms.1327
  3. Neese,F.; Wennmohs,F.; Becker,U.; Riplinger,C.
     The ORCA quantum chemistry program package
     J. Chem. Phys., 2020 152 Art. No. L224108
     doi.org/10.1063/5.0004608

List of optional additional citations

  1. Neese,F.
     Approximate second-order SCF convergence for spin unrestricted wavefunctions
     Chem. Phys. Lett., 2000 325(1-3)93-98
     doi.org/10.1016/s0009-2614(00)00662-x

Timings for individual modules:

Sum of individual times          ...       21.633 sec (=   0.361 min)
Startup calculation              ...        1.340 sec (=   0.022 min)   6.2 %
SCF iterations                   ...        8.914 sec (=   0.149 min)  41.2 %
Property calculations            ...        0.161 sec (=   0.003 min)   0.7 %
SCF Gradient evaluation          ...       11.218 sec (=   0.187 min)  51.9 %
                             ****ORCA TERMINATED NORMALLY****
TOTAL RUN TIME: 0 days 0 hours 0 minutes 22 seconds 657 msec
  ------------------------------------------------------------------------
          * successful ORCA run, taking over control again...

         :::::::::::::::::::::::::::::::::::::::::::::::::::::
         ::                  ORCA SUMMARY                   ::
         :::::::::::::::::::::::::::::::::::::::::::::::::::::
         :: total energy            -386.239423724411 Eh    ::
         :: gradient norm              0.000618350094 Eh/a0 ::
         :: HOMO-LUMO gap              0.000000000000 eV    ::
         :::::::::::::::::::::::::::::::::::::::::::::::::::::

      ----------------------------------------------------------- 
     |                       L-ANC optimizer                     |
      ----------------------------------------------------------- 
          low memory version by Sebastian Ehlert

          ...................................................
          :                      SETUP                      :
          :.................................................:
          :   energy convergence        0.5000000E-05 Eh    :
          :   grad. convergence         0.1000000E-02 Eh/a0 :
          :   optimization log               true           :
          :   writing optlog all                1     steps :
          :   Hessian reset                     8     steps :
          :   maximium step len.        1.0000000     a0    :
          :   LBFGS images                      8           :
          ...................................................
 * calculating model hessian...
Using Lindh-Hessian (1995)
 Shifting diagonal of input Hessian by   1.000000000000000E-002
 Lowest  eigenvalues of input Hessian
    0.000000    0.000000    0.000000    0.000000    0.000000    0.000000
    0.011309    0.012236    0.012827    0.016663    0.018745    0.019890
    0.024586    0.026374    0.035306    0.038295    0.051999    0.054946
 Highest eigenvalues
    1.188441    1.221144    1.270188    1.287033    1.734362    2.265619
 

........................................................................
.............................. CYCLE    1 ..............................
........................................................................
                         * ORCA takes the control...
  ------------------------------------------------------------------------

                                 *****************
                                 * O   R   C   A *
                                 *****************

                                            #,                                       
                                            ###                                      
                                            ####                                     
                                            #####                                    
                                            ######                                   
                                           ########,                                 
                                     ,,################,,,,,                         
                               ,,#################################,,                 
                          ,,##########################################,,             
                       ,#########################################, ''#####,          
                    ,#############################################,,   '####,        
                  ,##################################################,,,,####,       
                ,###########''''           ''''###############################       
              ,#####''   ,,,,##########,,,,          '''####'''          '####       
            ,##' ,,,,###########################,,,                        '##       
           ' ,,###''''                  '''############,,,                           
         ,,##''                                '''############,,,,        ,,,,,,###''
      ,#''                                            '''#######################'''  
     '                                                          ''''####''''         
             ,#######,   #######,   ,#######,      ##                                
            ,#'     '#,  ##    ##  ,#'     '#,    #''#        ,####,   ,####,        
            ##       ##  ##   ,#'  ##            #'  '#       #'       #'  '#        
            ##       ##  #######   ##           ,######,      #####,   #    #        
            '#,     ,#'  ##    ##  '#,     ,#' ,#      #,     #,   #   #,  ,#        
             '#######'   ##     ##  '#######'  #'      '#     '####' # '####'        



                #########################################################
                #                        -***-                          #
                #          Department of theory and spectroscopy        #
                #                                                       #
                #                      Frank Neese                      #
                #                                                       #
                #     Directorship, Architecture, Infrastructure        #
                #                    SHARK, DRIVERS                     #
                #        Core code/Algorithms in most modules           #
                #                                                       #
                #        Max Planck Institute fuer Kohlenforschung      #
                #                Kaiser Wilhelm Platz 1                 #
                #                 D-45470 Muelheim/Ruhr                 #
                #                      Germany                          #
                #                                                       #
                #                  All rights reserved                  #
                #                        -***-                          #
                #########################################################


                         Program Version 6.0.0  -   RELEASE  -


 With contributions from (in alphabetic order):
   Daniel Aravena         : Magnetic Suceptibility
   Michael Atanasov       : Ab Initio Ligand Field Theory (pilot matlab implementation)
   Alexander A. Auer      : GIAO ZORA, VPT2 properties, NMR spectrum
   Ute Becker             : All parallelization in ORCA, NUMFREQ, NUMCALC
   Giovanni Bistoni       : ED, misc. LED, open-shell LED, HFLD
   Martin Brehm           : Molecular dynamics
   Dmytro Bykov           : pre 5.0 version of the SCF Hessian
   Marcos Casanova-Páez   : Triplet and SCS-CIS(D). UHF-(DLPNO)-IP/EA/STEOM-CCSD. UHF-CVS-IP/STEOM-CCSD
   Vijay G. Chilkuri      : MRCI spin determinant printing, contributions to CSF-ICE
   Pauline Colinet        : FMM embedding
   Dipayan Datta          : RHF DLPNO-CCSD density
   Achintya Kumar Dutta   : EOM-CC, STEOM-CC
   Nicolas Foglia         : Exact transition moments, OPA infrastructure, MCD improvements
   Dmitry Ganyushin       : Spin-Orbit,Spin-Spin,Magnetic field MRCI
   Miquel Garcia          : C-PCM and meta-GGA Hessian, CCSD/C-PCM, Gaussian charge scheme
   Tiago L. C. Gouveia    : GS-ROHF, GS-ROCIS
   Yang Guo               : DLPNO-NEVPT2, F12-NEVPT2, CIM, IAO-localization
   Andreas Hansen         : Spin unrestricted coupled pair/coupled cluster methods
   Ingolf Harden          : AUTO-CI MPn and infrastructure 
   Benjamin Helmich-Paris : MC-RPA, TRAH-(SCF,CASSCF), AVAS, COSX integrals, SCF dyn. polar.
   Lee Huntington         : MR-EOM, pCC
   Robert Izsak           : Overlap fitted RIJCOSX, COSX-SCS-MP3, EOM
   Riya Kayal             : Wick's Theorem for AUTO-CI, AUTO-CI UHF-CCSDT
   Emily Kempfer          : AUTO-CI, RHF CISDT and CCSDT
   Christian Kollmar      : KDIIS, OOCD, Brueckner-CCSD(T), CCSD density, CASPT2, CASPT2-K, improved NEVPT2
   Axel Koslowski         : Symmetry handling
   Simone Kossmann        : Meta GGA functionals, TD-DFT gradient, OOMP2, (MP2 Hessian; deprecated post 5.0)
   Lucas Lang             : DCDCAS
   Marvin Lechner         : AUTO-CI (C++ implementation), FIC-MRCC
   Spencer Leger          : CASSCF response
   Dagmar Lenk            : GEPOL surface, SMD, ORCA-2-JSON
   Dimitrios Liakos       : Extrapolation schemes; Compound Job, initial MDCI parallelization
   Dimitrios Manganas     : Further ROCIS development; embedding schemes. LFT, Crystal Embedding
   Dimitrios Pantazis     : SARC Basis sets
   Anastasios Papadopoulos: AUTO-CI, single reference methods and gradients
   Taras Petrenko         : pre 6.0 DFT Hessian and TD-DFT gradient, (ASA, deprecated), ECA, 1-Electron XAS/XES, NRVS
   Peter Pinski           : DLPNO-MP2, DLPNO-MP2 Gradient
   Christoph Reimann      : Effective Core Potentials
   Marius Retegan         : Local ZFS, SOC
   Christoph Riplinger    : Optimizer, TS searches, QM/MM, DLPNO-CCSD(T), (RO)-DLPNO pert. Triples
   Michael Roemelt        : Original ROCIS implementation
   Masaaki Saitow         : Open-shell DLPNO-CCSD energy and density
   Barbara Sandhoefer     : DKH picture change effects
   Kantharuban Sivalingam : CASSCF convergence/infrastructure, NEVPT2 and variants, FIC-MRCI
   Bernardo de Souza      : ESD, SOC TD-DFT
   Georgi Stoychev        : AutoAux, RI-MP2 NMR, DLPNO-MP2 response, X2C
   Van Anh Tran           : RI-MP2 g-tensors
   Willem Van den Heuvel  : Paramagnetic NMR
   Zikuan Wang            : NOTCH, Electric field optimization 
   Frank Wennmohs         : Technical directorship and infrastructure
   Hang Xu                : AUTO-CI-Response properties 


 We gratefully acknowledge several colleagues who have allowed us to
 interface, adapt or use parts of their codes:
   Stefan Grimme, W. Hujo, H. Kruse, P. Pracht,  : VdW corrections, initial TS optimization,
                  C. Bannwarth, S. Ehlert,         DFT functionals, gCP, sTDA/sTD-DF
                  L. Wittmann, M. Mueller
   Ed Valeev, F. Pavosevic, A. Kumar             : LibInt (2-el integral package), F12 methods
   Garnet Chan, S. Sharma, J. Yang, R. Olivares  : DMRG
   Ulf Ekstrom                                   : XCFun DFT Library
   Mihaly Kallay                                 : mrcc  (arbitrary order and MRCC methods)
   Frank Weinhold                                : gennbo (NPA and NBO analysis)
   Simon Mueller                                 : openCOSMO-RS
   Christopher J. Cramer and Donald G. Truhlar   : smd solvation model
   Lars Goerigk                                  : TD-DFT with DH, B97 family of functionals
   V. Asgeirsson, H. Jonsson                     : NEB implementation
   FAccTs GmbH                                   : IRC, NEB, NEB-TS, DLPNO-Multilevel, CI-OPT
                                                   MM, QMMM, 2- and 3-layer-ONIOM, Crystal-QMMM,
                                                   LR-CPCM, SF, NACMEs, symmetry and pop. for TD-DFT,
                                                   nearIR, NL-DFT gradient (VV10), updates on ESD,
                                                   ML-optimized integration grids, MBIS, APM,
                                                   GOAT, DOCKER, SOLVATOR, interface openCOSMO-RS
   S Lehtola, MJT Oliveira, MAL Marques          : LibXC Library
   Liviu Ungur et al                             : ANISO software


 Your calculation uses the libint2 library for the computation of 2-el integrals
 For citations please refer to: http://libint.valeyev.net

 Your ORCA version has been built with support for libXC version: 6.2.2
 For citations please refer to: https://libxc.gitlab.io

 This ORCA versions uses:
   CBLAS   interface :  Fast vector & matrix operations
   LAPACKE interface :  Fast linear algebra routines
   SCALAPACK package :  Parallel linear algebra routines
   Shared memory     :  Shared parallel matrices
   BLAS/LAPACK       :  OpenBLAS 0.3.27  USE64BITINT DYNAMIC_ARCH NO_AFFINITY SkylakeX SINGLE_THREADED
        Core in use  :  SkylakeX
   Copyright (c) 2011-2014, The OpenBLAS Project




***************************************
The coordinates will be read from file: xtb_opt.xyz
***************************************


Your calculation utilizes the geometrical counterpoise correction gCP
Please cite in your paper:
H.Kruse, S. Grimme J.Chem.Phys., 136, (2012), 154101 
   

Your calculation utilizes the atom-pairwise dispersion correction
based on EEQ partial charges (D4)


Your calculation utilizes the SMD solvation module
Please cite in your paper:
A.V. Marenich, C.J. Cramer, D.G. Truhlar J. Phys. Chem. B, 113, (2009), 6378 

================================================================================

----- Orbital basis set information -----
Your calculation utilizes the basis: def2-mTZVPP
   Stefan Grimme, Andreas Hansen, Sebastian Ehlert, and Jan-Michael Mewes 
   J. Chem. Phys. 154, 064103 (2021). DOI: 10.1063/5.0040021

----- AuxJ basis set information -----
Your calculation utilizes the auxiliary basis: def2/J
   F. Weigend, Phys. Chem. Chem. Phys. 8, 1057 (2006).

================================================================================
                                        WARNINGS
                       Please study these warnings very carefully!
================================================================================

WARNING: Old DensityContainer found on disk!
         Will remove this file - 
         If you want to keep old densities, please start your calculation with a different basename. 

Using LibXC functional ID 497 : Re-regularized SCAN exchange by Furness et al
[ 1]  J. W. Furness, A. D. Kaplan, J. Ning, J. P. Perdew, and J. Sun.,  J. Phys. Chem. Lett. 11, 8208-8215 (2020)
[ 2]  J. W. Furness, A. D. Kaplan, J. Ning, J. P. Perdew, and J. Sun.,  J. Phys. Chem. Lett. 11, 9248-9248 (2020)
Using LibXC functional ID 498 : Re-regularized SCAN correlation by Furness et al
[ 1]  J. W. Furness, A. D. Kaplan, J. Ning, J. P. Perdew, and J. Sun.,  J. Phys. Chem. Lett. 11, 8208-8215 (2020)
[ 2]  J. W. Furness, A. D. Kaplan, J. Ning, J. P. Perdew, and J. Sun.,  J. Phys. Chem. Lett. 11, 9248-9248 (2020)
Using LibXC functional ID 497 : Re-regularized SCAN exchange by Furness et al
[ 1]  J. W. Furness, A. D. Kaplan, J. Ning, J. P. Perdew, and J. Sun.,  J. Phys. Chem. Lett. 11, 8208-8215 (2020)
[ 2]  J. W. Furness, A. D. Kaplan, J. Ning, J. P. Perdew, and J. Sun.,  J. Phys. Chem. Lett. 11, 9248-9248 (2020)
Using LibXC functional ID 498 : Re-regularized SCAN correlation by Furness et al
[ 1]  J. W. Furness, A. D. Kaplan, J. Ning, J. P. Perdew, and J. Sun.,  J. Phys. Chem. Lett. 11, 8208-8215 (2020)
[ 2]  J. W. Furness, A. D. Kaplan, J. Ning, J. P. Perdew, and J. Sun.,  J. Phys. Chem. Lett. 11, 9248-9248 (2020)

================================================================================
                                       INPUT FILE
================================================================================
NAME = xtb_opt.inp
|  1> ! r2scan-3c def2/J RI DEFGRID2 scfconv7 ENGRAD tightSCF miniprint
|  2> %cpcm
|  3>     smd true
|  4>     smdsolvent "water"
|  5> end
|  6> * xyzfile 0 1 xtb_opt.xyz
|  7> 
|  8>                          ****END OF INPUT****
================================================================================

                     *******************************
                     * Energy+Gradient Calculation *
                     *******************************

---------------------------------
CARTESIAN COORDINATES (ANGSTROEM)
---------------------------------
  C     -2.259822   -1.409243    0.946456
  C     -2.136406   -0.581964   -0.330126
  C     -1.498189    0.805253   -0.142332
  C      0.005430    0.846758   -0.165220
  O      0.656102    1.707919   -0.738665
  O      0.564272   -0.155917    0.533017
  C      2.026108   -0.233538    0.544665
  C      2.532488   -0.938549   -0.692262
  H     -1.284680   -1.651318    1.376374
  H     -2.836733   -0.865354    1.702665
  H     -2.779258   -2.351311    0.743066
  H     -3.138992   -0.419956   -0.740322
  H     -1.577454   -1.138522   -1.091908
  H     -1.815211    1.232495    0.819406
  H     -1.830973    1.494196   -0.921910
  H      2.432709    0.775862    0.642209
  H      2.250918   -0.801526    1.449360
  H      3.620809   -1.036301   -0.628227
  H      2.102034   -1.941200   -0.769272
  H      2.290933   -0.376654   -1.598513

----------------------------
CARTESIAN COORDINATES (A.U.)
----------------------------
  NO LB      ZA    FRAG     MASS         X           Y           Z
   0 C     6.0000    0    12.011   -4.270445   -2.663083    1.788543
   1 C     6.0000    0    12.011   -4.037223   -1.099753   -0.623848
   2 C     6.0000    0    12.011   -2.831167    1.521708   -0.268969
   3 C     6.0000    0    12.011    0.010261    1.600140   -0.312221
   4 O     8.0000    0    15.999    1.239853    3.227500   -1.395874
   5 O     8.0000    0    15.999    1.066320   -0.294640    1.007257
   6 C     6.0000    0    12.011    3.828790   -0.441323    1.029267
   7 C     6.0000    0    12.011    4.785709   -1.773601   -1.308186
   8 H     1.0000    0     1.008   -2.427694   -3.120539    2.600970
   9 H     1.0000    0     1.008   -5.360649   -1.635282    3.217570
  10 H     1.0000    0     1.008   -5.252037   -4.443333    1.404191
  11 H     1.0000    0     1.008   -5.931835   -0.793602   -1.399006
  12 H     1.0000    0     1.008   -2.980956   -2.151495   -2.063407
  13 H     1.0000    0     1.008   -3.430251    2.329078    1.548453
  14 H     1.0000    0     1.008   -3.460037    2.823621   -1.742158
  15 H     1.0000    0     1.008    4.597153    1.466167    1.213598
  16 H     1.0000    0     1.008    4.253618   -1.514664    2.738894
  17 H     1.0000    0     1.008    6.842337   -1.958324   -1.187178
  18 H     1.0000    0     1.008    3.972269   -3.668336   -1.453714
  19 H     1.0000    0     1.008    4.329236   -0.711773   -3.020752

------------------------------------------------------------------------------
                   ___                                                        
                  /   \      - P O W E R E D   B Y -                         
                 /     \                                                     
                 |  |  |   _    _      __       _____    __    __             
                 |  |  |  | |  | |    /  \     |  _  \  |  |  /  |          
                  \  \/   | |  | |   /    \    | | | |  |  | /  /          
                 / \  \   | |__| |  /  /\  \   | |_| |  |  |/  /          
                |  |  |   |  __  | /  /__\  \  |    /   |      \           
                |  |  |   | |  | | |   __   |  |    \   |  |\   \          
                \     /   | |  | | |  |  |  |  | |\  \  |  | \   \       
                 \___/    |_|  |_| |__|  |__|  |_| \__\ |__|  \__/        
                                                                              
                      - O R C A' S   B I G   F R I E N D -                    
                                      &                                       
                       - I N T E G R A L  F E E D E R -                       
                                                                              
 v1 FN, 2020, v2 2021, v3 2022-2024                                           
------------------------------------------------------------------------------


----------------------
SHARK INTEGRAL PACKAGE
----------------------

Number of atoms                             ...     20
Number of basis functions                   ...    222
Number of shells                            ...    110
Maximum angular momentum                    ...      2
Integral batch strategy                     ... SHARK/LIBINT Hybrid
RI-J (if used) integral strategy            ... SPLIT-RIJ (Revised 2003 algorithm where possible)
Printlevel                                  ...      1
Contraction scheme used                     ... SEGMENTED contraction
Prescreening option                         ... SCHWARTZ
   Thresh                                   ... 3.000e-11
   Tcut                                     ... 1.000e-12
   Tpresel                                  ... 1.000e-12 
Coulomb Range Separation                    ... NOT USED
Exchange Range Separation                   ... NOT USED
Multipole approximations                    ... NOT USED
Finite Nucleus Model                        ... NOT USED
CABS basis                                  ... NOT available
Auxiliary Coulomb fitting basis             ... AVAILABLE
   # of basis functions in Aux-J            ...    524
   # of shells in Aux-J                     ...    180
   Maximum angular momentum in Aux-J        ...      4
Auxiliary J/K fitting basis                 ... NOT available
Auxiliary Correlation fitting basis         ... NOT available
Auxiliary 'external' fitting basis          ... NOT available

Checking pre-screening integrals            ... done (  0.0 sec) Dimension = 110
Check shell pair data                       ... done (  0.0 sec)
Shell pair information
Shell pair cut-off parameter TPreSel        ...   1.0e-12
Total number of shell pairs                 ...      6105
Shell pairs after pre-screening             ...      5451
Total number of primitive shell pairs       ...     21533
Primitive shell pairs kept                  ...     13661
          la=0 lb=0:   1822 shell pairs
          la=1 lb=0:   2058 shell pairs
          la=1 lb=1:    601 shell pairs
          la=2 lb=0:    584 shell pairs
          la=2 lb=1:    333 shell pairs
          la=2 lb=2:     53 shell pairs

Calculating one electron integrals          ... done (  0.0 sec)
Calculating RI/J V-Matrix + Cholesky decomp.... done (  0.1 sec)
Calculating Nuclear repulsion               ... done (  0.0 sec) ENN=    395.943111559738 Eh

Diagonalization of the overlap matrix:
Smallest eigenvalue                        ... 1.397e-04
Time for diagonalization                   ...    0.006 sec
Threshold for overlap eigenvalues          ... 1.000e-07
Number of eigenvalues below threshold      ... 0
Time for construction of square roots      ...    0.015 sec
Total time needed                          ...    0.031 sec

-------------------
DFT GRID GENERATION
-------------------

General Integration Accuracy     IntAcc      ... 4.388
Radial Grid Type                 RadialGrid  ... OptM3 with GC (2021)
Angular Grid (max. ang.)         AngularGrid ... 4 (Lebedev-302)
Angular grid pruning method      GridPruning ... 4 (adaptive)
Weight generation scheme         WeightScheme... mBecke (2022)
Basis function cutoff            BFCut       ... 1.0000e-11
Integration weight cutoff        WCut        ... 1.0000e-14
Partially contracted basis set               ... off
Rotationally invariant grid construction     ... off
Angular grids for H and He will be reduced by one unit
Diffuse basis detected: some atoms will have their outermost
                        angular grid increased by 1.

Total number of grid points                  ...    87321
Total number of batches                      ...     1374
Average number of points per batch           ...       63
Average number of grid points per atom       ...     4366
Initializing property integral containers    ... done (  0.0 sec)

SHARK setup successfully completed in   1.3 seconds

Maximum memory used throughout the entire STARTUP-calculation: 39.7 MB
Occupation numbers will be reassigned to an Aufbau configuration
             **** ENERGY FILE WAS UPDATED (xtb_opt.en.tmp) ****
Finished Guess after   0.4 sec
Maximum memory used throughout the entire GUESS-calculation: 15.3 MB
--------------------
CPCM SOLVATION MODEL
--------------------
CPCM parameters:
  Epsilon                                         ...      78.3550
  Refrac                                          ...       1.3328
  Rsolv                                           ...       1.3000
  Surface type                                    ... GAUSSIAN VDW
  Discretization scheme                           ... Constant charge density
    Threshold for H atoms                         ...       5.0000 (charges/Ang^2)
    Threshold for non-H atoms                     ...       5.0000 (charges/Ang^2)
  Epsilon function type                           ...         CPCM
Solvent:                                          ... WATER
SMD-CDS solvent descriptors:
  Soln                                            ...       1.3328
  Soln25                                          ...       1.3323
  Sola                                            ...       0.0000
  Solb                                            ...       0.0000
  Solg                                            ...       0.0000
  Solc                                            ...       0.0000
  Solh                                            ...       0.0000
Radii:
  Scheme                                          ... Element-dependent radii
  Radius for C  used is    3.4960 Bohr (=   1.8500 Ang.)
  Radius for O  used is    2.8724 Bohr (=   1.5200 Ang.)
  Radius for H  used is    2.2677 Bohr (=   1.2000 Ang.)
Calculating surface                               ...        done! (  0.0s)
Cavity surface points                             ...         1517
Cavity Volume                                     ...     885.0375
Cavity Surface-area                               ...     588.0568
Calculating surface distance matrix               ...        done! (  0.0s)
Performing Cholesky decomposition & store         ...        done! (  0.1s)
Overall time for CPCM initialization              ...                 0.1s

----------------------------------------D-I-I-S--------------------------------------------
Iteration    Energy (Eh)           Delta-E    RMSDP     MaxDP     DIISErr   Damp  Time(sec)
-------------------------------------------------------------------------------------------
               ***  Starting incremental Fock matrix formation  ***
                              *** Initializing SOSCF ***
---------------------------------------S-O-S-C-F--------------------------------------
Iteration    Energy (Eh)           Delta-E    RMSDP     MaxDP     MaxGrad    Time(sec)
--------------------------------------------------------------------------------------
    1    -386.2537384081287541     0.00e+00  1.74e-05  3.07e-04  4.33e-05     3.9
               *** Restarting incremental Fock matrix formation ***
    2    -386.2537421459797429    -3.74e-06  8.37e-06  2.05e-04  5.79e-05     3.9
    3    -386.2537423325755412    -1.87e-07  4.07e-06  1.15e-04  5.50e-05     3.2
    4    -386.2537423498180829    -1.72e-08  2.59e-06  5.00e-05  4.21e-05     2.9
                 **** Energy Check signals convergence ****

               *****************************************************
               *                     SUCCESS                       *
               *           SCF CONVERGED AFTER   4 CYCLES          *
               *****************************************************


SMD CDS free energy correction energy :                 4.96458     Kcal/mol
Total Energy after SMD CDS correction =              -386.245830790 Eh
             **** ENERGY FILE WAS UPDATED (xtb_opt.en.tmp) ****

----------------
TOTAL SCF ENERGY
----------------

Total Energy       :       -386.24583079033027 Eh          -10510.28339 eV

Components:
Nuclear Repulsion  :        395.94311155973759 Eh           10774.15981 eV
Electronic Energy  :       -782.18092699799854 Eh          -21284.22509 eV
One Electron Energy:      -1309.32490617325448 Eh          -35628.54202 eV
Two Electron Energy:        527.14397917525594 Eh           14344.31692 eV
CPCM Dielectric    :         -0.01592691155715 Eh              -0.43339 eV
SMD CDS (Gcds)     :          0.00791155948780 Eh               0.21528 eV

Virial components:
Potential Energy   :       -770.69223672327098 Eh          -20971.60194 eV
Kinetic Energy     :        384.44640593294065 Eh           10461.31855 eV
Virial Ratio       :          2.00468056100830

DFT components:
N(Alpha)           :       31.999982802278 electrons
N(Beta)            :       31.999982802278 electrons
N(Total)           :       63.999965604556 electrons
E(X)               :      -52.035817531983 Eh       
E(C)               :       -2.035656064588 Eh       
E(XC)              :      -54.071473596570 Eh       

CPCM Solvation Model Properties:
Surface-charge          :         -0.04727305465623
Corrected charge        :          0.00000000000000
Outlying charge corr.   :          0.00016984269968 Eh               0.00462 eV
Free-energy (cav+disp)  :          0.00791155948780 Eh               0.21528 eV

---------------
SCF CONVERGENCE
---------------

  Last Energy change         ...    1.7243e-08  Tolerance :   1.0000e-07
  Last MAX-Density change    ...    4.9956e-05  Tolerance :   1.0000e-07
  Last RMS-Density change    ...    2.5946e-06  Tolerance :   5.0000e-09
  Last DIIS Error            ...    6.9999e-04  Tolerance :   1.0000e-07
  Last Orbital Gradient      ...    4.2098e-05  Tolerance :   1.0000e-04
  Last Orbital Rotation      ...    6.6491e-05  Tolerance :   1.0000e-04


----------------
ORBITAL ENERGIES
----------------

  NO   OCC          E(Eh)            E(eV) 
   0   2.0000     -18.999652      -517.0068 
   1   2.0000     -18.943582      -515.4811 
   2   2.0000     -10.164197      -276.5819 
   3   2.0000     -10.084512      -274.4135 
   4   2.0000     -10.038014      -273.1482 
   5   2.0000     -10.030056      -272.9317 
   6   2.0000     -10.020406      -272.6691 
   7   2.0000     -10.011993      -272.4402 
   8   2.0000      -1.068038       -29.0628 
   9   2.0000      -0.982231       -26.7279 
  10   2.0000      -0.765797       -20.8384 
  11   2.0000      -0.728446       -19.8220 
  12   2.0000      -0.672745       -18.3063 
  13   2.0000      -0.613978       -16.7072 
  14   2.0000      -0.564466       -15.3599 
  15   2.0000      -0.517499       -14.0819 
  16   2.0000      -0.468819       -12.7572 
  17   2.0000      -0.457727       -12.4554 
  18   2.0000      -0.436378       -11.8745 
  19   2.0000      -0.410997       -11.1838 
  20   2.0000      -0.403144       -10.9701 
  21   2.0000      -0.385701       -10.4955 
  22   2.0000      -0.377180       -10.2636 
  23   2.0000      -0.359324        -9.7777 
  24   2.0000      -0.346218        -9.4211 
  25   2.0000      -0.337260        -9.1773 
  26   2.0000      -0.317995        -8.6531 
  27   2.0000      -0.304040        -8.2734 
  28   2.0000      -0.303386        -8.2556 
  29   2.0000      -0.295125        -8.0308 
  30   2.0000      -0.278329        -7.5737 
  31   2.0000      -0.248377        -6.7587 
  32   0.0000      -0.025410        -0.6914 
  33   0.0000       0.074005         2.0138 
  34   0.0000       0.090556         2.4642 
  35   0.0000       0.117817         3.2060 
  36   0.0000       0.121594         3.3088 
  37   0.0000       0.128657         3.5009 
  38   0.0000       0.138226         3.7613 
  39   0.0000       0.140281         3.8173 
  40   0.0000       0.157025         4.2729 
  41   0.0000       0.161888         4.4052 
  42   0.0000       0.162226         4.4144 
*Only the first 10 virtual orbitals were printed.
Total SCF time: 0 days 0 hours 0 min 14 sec 
Finished LeanSCF after  14.7 sec

Maximum memory used throughout the entire LEANSCF-calculation: 31.1 MB


-------------------------------------------------------------------------------
                          DFT DISPERSION CORRECTION                            
                                                                               
                                DFTD4 V3.4.0                                   
-------------------------------------------------------------------------------
-------------------------   ----------------
Dispersion correction           -0.005185886
-------------------------   ----------------

------------------   -----------------
gCP correction             0.011590793
------------------   -----------------

-------------------------   --------------------
FINAL SINGLE POINT ENERGY      -386.239425883188
-------------------------   --------------------

[...]
  Last RMS-Density change    ...    1.3939e-06  Tolerance :   5.0000e-09
  Last DIIS Error            ...    3.4775e-05  Tolerance :   1.0000e-07
  Last Orbital Gradient      ...    1.4277e-05  Tolerance :   1.0000e-04
  Last Orbital Rotation      ...    5.6437e-05  Tolerance :   1.0000e-04


----------------
ORBITAL ENERGIES
----------------

  NO   OCC          E(Eh)            E(eV) 
   0   2.0000     -18.999900      -517.0136 
   1   2.0000     -18.943664      -515.4833 
   2   2.0000     -10.164104      -276.5793 
   3   2.0000     -10.084531      -274.4140 
   4   2.0000     -10.037950      -273.1465 
   5   2.0000     -10.030021      -272.9307 
   6   2.0000     -10.020408      -272.6692 
   7   2.0000     -10.012010      -272.4406 
   8   2.0000      -1.068090       -29.0642 
   9   2.0000      -0.982269       -26.7289 
  10   2.0000      -0.765784       -20.8380 
  11   2.0000      -0.728455       -19.8223 
  12   2.0000      -0.672735       -18.3061 
  13   2.0000      -0.613998       -16.7077 
  14   2.0000      -0.564457       -15.3596 
  15   2.0000      -0.517527       -14.0826 
  16   2.0000      -0.468817       -12.7572 
  17   2.0000      -0.457756       -12.4562 
  18   2.0000      -0.436396       -11.8749 
  19   2.0000      -0.411002       -11.1839 
  20   2.0000      -0.403140       -10.9700 
  21   2.0000      -0.385697       -10.4954 
  22   2.0000      -0.377184       -10.2637 
  23   2.0000      -0.359332        -9.7779 
  24   2.0000      -0.346221        -9.4212 
  25   2.0000      -0.337280        -9.1779 
  26   2.0000      -0.317991        -8.6530 
  27   2.0000      -0.304050        -8.2736 
  28   2.0000      -0.303378        -8.2553 
  29   2.0000      -0.295137        -8.0311 
  30   2.0000      -0.278386        -7.5753 
  31   2.0000      -0.248398        -6.7593 
  32   0.0000      -0.025410        -0.6914 
  33   0.0000       0.073993         2.0135 
  34   0.0000       0.090545         2.4639 
  35   0.0000       0.117817         3.2060 
  36   0.0000       0.121597         3.3088 
  37   0.0000       0.128655         3.5009 
  38   0.0000       0.138222         3.7612 
  39   0.0000       0.140286         3.8174 
  40   0.0000       0.157030         4.2730 
  41   0.0000       0.161886         4.4052 
  42   0.0000       0.162229         4.4145 
*Only the first 10 virtual orbitals were printed.
Total SCF time: 0 days 0 hours 0 min 9 sec 
Finished LeanSCF after   9.8 sec

Maximum memory used throughout the entire LEANSCF-calculation: 31.1 MB


-------------------------------------------------------------------------------
                          DFT DISPERSION CORRECTION                            
                                                                               
                                DFTD4 V3.4.0                                   
-------------------------------------------------------------------------------
-------------------------   ----------------
Dispersion correction           -0.005185886
-------------------------   ----------------

------------------   -----------------
gCP correction             0.011590793
------------------   -----------------

-------------------------   --------------------
FINAL SINGLE POINT ENERGY      -386.239425934903
-------------------------   --------------------

------------------------------------------------------------------------------
                         ORCA SCF GRADIENT CALCULATION
------------------------------------------------------------------------------

Nuc. rep. gradient        (SHARK) ... done (  0.0 sec)
HCore & Overlap gradient  (SHARK) ... done (  0.4 sec)
Split-RIJ-J gradient      (SHARK) ... done (  1.9 sec)
XC gradient                       ... done (  7.1 sec)
CPCM gradient                     ... done (  1.1 sec)
SMD gradient                      ... done (  0.0 sec)
Dispersion correction             ... done (  0.0 sec)

-------------------
DISPERSION GRADIENT
-------------------

   1   C   :   -0.000076826   -0.000056006    0.000038746
   2   C   :   -0.000084080   -0.000018574   -0.000017219
   3   C   :   -0.000067183    0.000049150   -0.000010074
   4   C   :    0.000009123    0.000062194   -0.000009698
   5   O   :    0.000023672    0.000091201   -0.000029242
   6   O   :    0.000047245    0.000010181    0.000023362
   7   C   :    0.000090236    0.000000428    0.000021308
   8   C   :    0.000091547   -0.000036153   -0.000024778
   9   H   :   -0.000034296   -0.000029487    0.000023113
  10   H   :   -0.000028295   -0.000017926    0.000019635
  11   H   :   -0.000024101   -0.000027772    0.000009744
  12   H   :   -0.000029867   -0.000007311   -0.000009148
  13   H   :   -0.000038314   -0.000015633   -0.000014755
  14   H   :   -0.000021909    0.000022562    0.000005517
  15   H   :   -0.000018041    0.000027935   -0.000016661
  16   H   :    0.000025315    0.000004180    0.000007331
  17   H   :    0.000034546   -0.000009067    0.000018697
  18   H   :    0.000026825   -0.000014079   -0.000007072
  19   H   :    0.000039629   -0.000026675   -0.000012166
  20   H   :    0.000034774   -0.000009150   -0.000016640

Difference to translation invariance:
           :    0.0000000000   -0.0000000000   -0.0000000000

Difference to rotation invariance:
           :    0.0000000000   -0.0000000000    0.0000000000

Norm of the Dispersion gradient    ...    0.0002811448
RMS gradient                       ...    0.0000362956
MAX gradient                       ...    0.0000915467
gCP correction                   ... done

------------------
CARTESIAN GRADIENT
------------------

   1   C   :   -0.000008700    0.000003180   -0.000011999
   2   C   :   -0.000013442   -0.000012317   -0.000029804
   3   C   :   -0.000025155    0.000035138    0.000003608
   4   C   :    0.000084369   -0.000062497    0.000125240
   5   O   :   -0.000016565   -0.000005076   -0.000067049
   6   O   :    0.000034730    0.000065240    0.000015637
   7   C   :   -0.000082896    0.000017875    0.000006166
   8   C   :    0.000029914   -0.000025019   -0.000005780
   9   H   :    0.000004180   -0.000012542   -0.000005820
  10   H   :   -0.000015117   -0.000005821   -0.000018781
  11   H   :   -0.000009036   -0.000001756   -0.000035023
  12   H   :    0.000006726    0.000007449   -0.000020304
  13   H   :    0.000013705    0.000011697    0.000002290
  14   H   :    0.000008112   -0.000053688    0.000011423
  15   H   :    0.000007551    0.000012767    0.000032099
  16   H   :    0.000009819    0.000003303   -0.000028068
  17   H   :    0.000027909    0.000030922    0.000010443
  18   H   :   -0.000019120   -0.000008423   -0.000024378
  19   H   :   -0.000009292    0.000016148    0.000032749
  20   H   :   -0.000027694   -0.000016578    0.000007350

Difference to translation invariance:
           :    0.0000000000   -0.0000000000    0.0000000000

Difference to rotation invariance:
           :    0.0001765526   -0.0002383649   -0.0000138257

Norm of the Cartesian gradient     ...    0.0002508360
RMS gradient                       ...    0.0000323828
MAX gradient                       ...    0.0001252401

-------
TIMINGS
-------

Total SCF gradient time     ....       11.510 sec

Densities                   ....       0.001 sec  (  0.0%)
One electron gradient       ....       0.365 sec  (  3.2%)
RI-J Coulomb gradient       ....       1.931 sec  ( 16.8%)
XC gradient                 ....       7.130 sec  ( 61.9%)
CPCM gradient               ....       1.089 sec  (  9.5%)
   A-Matrix (El+Nuc)        ....       0.086 sec  (  0.7%)
   Potential                ....       1.004 sec  (  8.7%)
SMD gradient                ....       0.014 sec  (  0.1%)

Maximum memory used throughout the entire SCFGRAD-calculation: 35.5 MB

------------------------------------------------------------------------------
                              ORCA PROPERTY CALCULATIONS
------------------------------------------------------------------------------

GBWName                                 ... xtb_opt.gbw
Number of atoms                         ...     20
Number of basis functions               ...    222
Max core memory                         ...   1024 MB

Electric properties:
Dipole moment                           ... YES
Quadrupole moment                       ...  NO
Static polarizability (Dipole/Dipole)   ...  NO
Static polarizability (Dipole/Quad.)    ...  NO
Static polarizability (Quad./Quad.)     ...  NO
Static polarizability (Velocity)        ...  NO

Atomic electric properties:
Dipole moment                           ...  NO
Quadrupole moment                       ...  NO
Static polarizability                   ...  NO

Choice of electric origin               ... Center of mass
Position of electric origin             ...     0.015602    -0.007447    -0.005912

General magnetic properties:
Magnetizability                         ...  NO

EPR properties:
g-Tensor (aka g-matrix)                 ...  NO
Zero-Field splitting spin-orbit         ...  NO
Zero-field splitting spin-spin          ...  NO
Hyperfine couplings                     ...  NO (   0 nuclei)
Quadrupole couplings                    ...  NO (   0 nuclei)
Contact density                         ...  NO (   0 nuclei)

NMR properties:
Chemical shifts                         ...  NO (   0 nuclei)
Spin-rotation constants                 ...  NO (   0 nuclei)
Spin-spin couplings                     ...  NO (   0 nuclei,    0 pairs)

Choice of magnetic origin               ... GIAO
Position of magnetic origin             ...     0.000000     0.000000     0.000000

Properties with geometric perturbations:
SCF Hessian                             ...  NO
IR spectrum                             ...  NO
VCD spectrum                            ...  NO
X-ray spectroscopy properties:
SCF XES/XAS/RIXS spectra                ...  NO


-------------
DIPOLE MOMENT
-------------

Method             : SCF
Type of density    : Electron Density
Multiplicity       :   1
Irrep              :   0
Energy             :  -386.2458308420456206 Eh
Relativity type    : 
Basis              : AO
                                X                 Y                 Z
Electronic contribution:      2.275918960       5.566469909      -0.428173695
Nuclear contribution   :     -2.482409071      -6.574467006       0.954433286
                        -----------------------------------------
Total Dipole Moment    :     -0.206490111      -1.007997097       0.526259590
                        -----------------------------------------
Magnitude (a.u.)       :      1.155701290
Magnitude (Debye)      :      2.937559227



--------------------
Rotational spectrum 
--------------------
 
Rotational constants in cm-1:             0.100927             0.042868             0.034365 
Rotational constants in MHz :          3025.721390          1285.161562          1030.228469 

Dipole components along the rotational axes: 
x,y,z [a.u.] :    -0.374004     1.085772     0.129866 
x,y,z [Debye]:    -0.950643     2.759813     0.330094 

 

Dipole moment calculation done in   0.0 sec 

Maximum memory used throughout the entire PROP-calculation: 14.1 MB

--------------------------------
SUGGESTED CITATIONS FOR THIS RUN
--------------------------------

Below you find a list of papers that are relevant to this ORCA run
We neither can nor want to force you to cite these papers, but we appreciate if you do
You receive ORCA, which is the product of decades of hard work by many enthusiastic individuals, for free
The only thing we kindly ask in return is that you cite our papers,
We deeply appreciate it, if you show your appreciation for ORCA by not just citing the generic ORCA reference.

Please note that relegating all ORCA citations to the supporting information does *not* help us.
SI sections are not indexed - citations you put there will not count into any citation statistics
But we need these citations in order to attract the funding resources that allow us to do what we are doing

Therefore, if you are a happy ORCA user, please consider citing a few of the papers listed below in the main body of your paper

In addition to the list printed below, the program has created the file xtb_opt.bibtex that contains the list in bibtex format
You can import this file easily into all common literature databanks and citation aid programs


List of essential papers. We consider these as the minimum necessary citations

  1. Neese,F.
     Software update: the ORCA program system, version 5.0
     WIRES Comput. Molec. Sci., 2022 12(1)e1606
     doi.org/10.1002/wcms.1606
  2. Grimme,S.; Hansen,A.; Ehlert,S.; Mewes,J.
     r2SCAN-3c: A 'Swiss army knife' composite electronic-structure method
     J. Chem. Phys., 2021 154 064103
     doi.org/10.1063/5.0040021

List of papers to cite with high priority. The work reported in these papers was absolutely
necessary for this run to complete.
Our perspective: the developers of density functionals and basis sets usually get cited in chemistry papers
Good! But without the algorithms to do something with them, the functionals or basis sets would not do anything.
Hence, in our opinion, the algorithm design and method developments papers are equally worthy of getting cited

  1. Neese,F.
     An improvement of the resolution of the identity approximation for the formation of the Coulomb matrix
     J. Comp. Chem., 2003 24(14)1740-1747
     doi.org/10.1002/jcc.10318
  2. Garcia-Rates,M.; Neese,F.
     Effect of the Solute Cavity on the Solvation Energy and its Derivatives within the Framework of the Gaussian Charge Scheme
     J. Comput. Chem., 2020 41 922-939
     doi.org/10.1002/jcc.26139
  3. Neese,F.
     The SHARK Integral Generation and Digestion System
     J. Comp. Chem., 2022  1-16
     doi.org/10.1002/jcc.26942
  4. Lehtola,S.; Steigemann,C.; Oliveira,M.; Marques,M.
     Recent developments in Libxc - A comprehensive library of functionals for density functional theory
     Software X, 2018 7 
     doi.org/10.1016/j.softx.2017.11.002
  5. Caldeweyher,E.; Bannwarth,C.; Grimme,S.
     Extension of the D3 dispersion coefficient model
     J. Chem. Phys., 2017 147 034112-XXXX
     doi.org/10.1063/1.4993215
  6. Caldeweyher,E.; Ehlert,S.; Hansen,A.; Neugebauer,H.; Spicher,S.; Bannwarth,C.; Grimme,S.
     A generally applicable atomic-charge dependent London dispersion correction
     J. Chem. Phys., 2019 150 154122-XXXX
     doi.org/10.1063/1.5090222
  7. Caldeweyher,E.; Mewes,J.; Ehlert,S.; Grimme,S.
     Extension and evaluation of the D4 London-dispersion model for periodic systems
     Phys. Chem. Chem. Phys., 2020 22(16)8499-8512
     doi.org/10.1039/D0CP00502A

List of suggested additional citations. These are papers that are important in the 'surrounding' of 
of this run, or papers that preceded the highly important papers. If you like your results we are grateful for a citation.

  1. Neese,F.
     The ORCA program system
     WIRES Comput. Molec. Sci., 2012 2(1)73-78
     doi.org/10.1002/wcms.81
  2. Neese,F.
     Software update: the ORCA program system, version 4.0
     WIRES Comput. Molec. Sci., 2018 8(1)1-6
     doi.org/10.1002/wcms.1327
  3. Neese,F.; Wennmohs,F.; Becker,U.; Riplinger,C.
     The ORCA quantum chemistry program package
     J. Chem. Phys., 2020 152 Art. No. L224108
     doi.org/10.1063/5.0004608

List of optional additional citations

  1. Neese,F.
     Approximate second-order SCF convergence for spin unrestricted wavefunctions
     Chem. Phys. Lett., 2000 325(1-3)93-98
     doi.org/10.1016/s0009-2614(00)00662-x

Timings for individual modules:

Sum of individual times          ...       23.571 sec (=   0.393 min)
Startup calculation              ...        1.590 sec (=   0.026 min)   6.7 %
SCF iterations                   ...       10.223 sec (=   0.170 min)  43.4 %
Property calculations            ...        0.125 sec (=   0.002 min)   0.5 %
SCF Gradient evaluation          ...       11.633 sec (=   0.194 min)  49.4 %
                             ****ORCA TERMINATED NORMALLY****
TOTAL RUN TIME: 0 days 0 hours 0 minutes 24 seconds 592 msec
  ------------------------------------------------------------------------
          * successful ORCA run, taking over control again...

         :::::::::::::::::::::::::::::::::::::::::::::::::::::
         ::                  ORCA SUMMARY                   ::
         :::::::::::::::::::::::::::::::::::::::::::::::::::::
         :: total energy            -386.239425934903 Eh    ::
         :: gradient norm              0.000250835988 Eh/a0 ::
         :: HOMO-LUMO gap              0.000000000000 eV    ::
         :::::::::::::::::::::::::::::::::::::::::::::::::::::

           -------------------------------------------------
          |                Property Printout                |
           -------------------------------------------------
           -------------------------------------------------
          |                Geometry Summary                 |
           -------------------------------------------------

      molecular mass/u    :      116.1585142
   center of mass at/Å    :        0.0082647      -0.0039284      -0.0031304
  moments of inertia/u·Å² :        0.1670255E+03   0.3932313E+03   0.4905400E+03
rotational constants/cm⁻¹ :        0.1009285E+00   0.4286951E-01   0.3436546E-01

 * 17 selected distances

     #   Z          #   Z                                           value/Å
     1   6 C        2   6 C                                       1.5261993
     2   6 C        3   6 C                                       1.5384931 (max)
     4   6 C        5   8 O                                       1.2222164
     4   6 C        6   8 O                                       1.3435764
     7   6 C        8   6 C                                       1.5111091
     1   6 C        9   1 H                                       1.0928545
     1   6 C       10   1 H                                       1.0956703
     1   6 C       11   1 H                                       1.0948395
     2   6 C       12   1 H                                       1.0953018
     2   6 C       13   1 H                                       1.0965837
     3   6 C       14   1 H                                       1.0990809
     3   6 C       15   1 H                                       1.0923045
     7   6 C       16   1 H                                       1.0925782
     7   6 C       17   1 H                                       1.0916154 (min)
     8   6 C       18   1 H                                       1.0945763
     8   6 C       19   1 H                                       1.0938598
     8   6 C       20   1 H                                       1.0933279

 * 3 distinct bonds (by element types)

   Z      Z             #   av. dist./Å        max./Å        min./Å
   1 H    6 C          12     1.0943827     1.0990809     1.0916154
   6 C    6 C           3     1.5252672     1.5384931     1.5111091
   6 C    8 O           2     1.2828964     1.3435764     1.2222164


optimized geometry written to: xtbopt.coord


           -------------------------------------------------
          | TOTAL ENERGY             -386.239425934903 Eh   |
          | GRADIENT NORM               0.000250835988 Eh/α |
           -------------------------------------------------

------------------------------------------------------------------------
 * finished run on 2025/04/11 at 16:58:17.900     
------------------------------------------------------------------------
 total:
 * wall-time:     0 d,  0 h,  1 min, 17.396 sec
 *  cpu-time:     0 d,  0 h,  0 min,  2.743 sec
 * ratio c/w:     0.035 speedup
 SCF:
 * wall-time:     0 d,  0 h,  0 min, 22.725 sec
 *  cpu-time:     0 d,  0 h,  0 min,  1.106 sec
 * ratio c/w:     0.049 speedup
 ANC optimizer:
 * wall-time:     0 d,  0 h,  0 min, 54.590 sec
 *  cpu-time:     0 d,  0 h,  0 min,  1.430 sec
 * ratio c/w:     0.026 speedup

