      -----------------------------------------------------------      
     |                   =====================                   |     
     |                           x T B                           |     
     |                   =====================                   |     
     |                         S. Grimme                         |     
     |          Mulliken Center for Theoretical Chemistry        |     
     |                    University of Bonn                     |     
      -----------------------------------------------------------      

   * xtb version 6.7.1 (edcfbbe) compiled by 'albert@albert-system' on 2024-07-22

   xtb is free software: you can redistribute it and/or modify it under
   the terms of the GNU Lesser General Public License as published by
   the Free Software Foundation, either version 3 of the License, or
   (at your option) any later version.
   
   xtb is distributed in the hope that it will be useful,
   but WITHOUT ANY WARRANTY; without even the implied warranty of
   MERCHANTABILITY or FITNESS FOR A PARTICULAR PURPOSE.  See the
   GNU Lesser General Public License for more details.
   
   Cite this work as:
   * C. Bannwarth, E. Caldeweyher, S. Ehlert, A. Hansen, P. Pracht,
     J. Seibert, S. Spicher, S. Grimme, WIREs Comput. Mol. Sci., 2020, 11,
     e01493. DOI: 10.1002/wcms.1493
   
   for GFN2-xTB:
   * C. Bannwarth, S. Ehlert and S. Grimme., J. Chem. Theory Comput., 2019,
     15, 1652-1671. DOI: 10.1021/acs.jctc.8b01176
   for GFN1-xTB:
   * S. Grimme, C. Bannwarth, P. Shushkov, J. Chem. Theory Comput., 2017,
     13, 1989-2009. DOI: 10.1021/acs.jctc.7b00118
   for GFN0-xTB:
   * P. Pracht, E. Caldeweyher, S. Ehlert, S. Grimme, ChemRxiv, 2019, preprint.
     DOI: 10.26434/chemrxiv.8326202.v1
   for GFN-FF:
   * S. Spicher and S. Grimme, Angew. Chem. Int. Ed., 2020, 59, 15665-15673.
     DOI: 10.1002/anie.202004239
   
   for ALPB and GBSA implicit solvation:
   * S. Ehlert, M. Stahn, S. Spicher, S. Grimme, J. Chem. Theory Comput.,
     2021, 17, 4250-4261. DOI: 10.1021/acs.jctc.1c00471
   
   for ddCOSMO and CPCM-X implicit solvation:
   * M. Stahn, S. Ehlert, S. Grimme, J. Phys. Chem. A,
     2023, XX, XXXX-XXXX. DOI: 10.1021/acs.jpca.3c04382
   
   for DFT-D4:
   * E. Caldeweyher, C. Bannwarth and S. Grimme, J. Chem. Phys., 2017,
     147, 034112. DOI: 10.1063/1.4993215
   * E. Caldeweyher, S. Ehlert, A. Hansen, H. Neugebauer, S. Spicher,
     C. Bannwarth and S. Grimme, J. Chem. Phys., 2019, 150, 154122.
     DOI: 10.1063/1.5090222
   * E. Caldeweyher, J.-M. Mewes, S. Ehlert and S. Grimme, Phys. Chem. Chem. Phys.
     2020, 22, 8499-8512. DOI: 10.1039/D0CP00502A
   
   for sTDA-xTB:
   * S. Grimme and C. Bannwarth, J. Chem. Phys., 2016, 145, 054103.
     DOI: 10.1063/1.4959605
   
   in the mass-spec context:
   * V. Asgeirsson, C. Bauer and S. Grimme, Chem. Sci., 2017, 8, 4879.
     DOI: 10.1039/c7sc00601b
   * J. Koopman and S. Grimme, ACS Omega 2019, 4, 12, 15120-15133.
     DOI: 10.1021/acsomega.9b02011
   
   for metadynamics refer to:
   * S. Grimme, J. Chem. Theory Comput., 2019, 155, 2847-2862
     DOI: 10.1021/acs.jctc.9b00143
   
   for SPH calculations refer to:
   * S. Spicher and S. Grimme, J. Chem. Theory Comput., 2021, 17, 1701-1714
     DOI: 10.1021/acs.jctc.0c01306
   
   for ONIOM refer to:
   * C. Plett, A. Katbashev, S. Ehlert, S. Grimme, M. Bursch,
     Phys. Chem. Chem. Phys., 2023, 25, 17860-17868. DOI: 10.1039/D3CP02178E
   
   for DIPRO refer to:
   * J. Kohn, N. Gildemeister, S. Grimme, D. Fazzi, A. Hansen,
     J. Chem. Phys., 2023, just accepted.
   
   for PTB refer to:
   * S. Grimme, M. Mueller, A. Hansen, J. Chem. Phys., 2023, 158, 124111.
     DOI: 10.1063/5.0137838
   
   with help from (in alphabetical order)
   P. Atkinson, C. Bannwarth, F. Bohle, G. Brandenburg, E. Caldeweyher
   M. Checinski, S. Dohm, S. Ehlert, S. Ehrlich, I. Gerasimov, C. Hölzer
   A. Katbashev, J. Kohn, J. Koopman, C. Lavigne, S. Lehtola, F. März, M. Müller,
   F. Musil, H. Neugebauer, J. Pisarek, C. Plett, P. Pracht, F. Pultar,
   J. Seibert, P. Shushkov, S. Spicher, M. Stahn, M. Steiner, T. Strunk,
   J. Stückrath, T. Rose, and J. Unsleber
   
 * started run on 2025/04/11 at 12:26:59.860     
   ID    Z sym.   atoms
    1    6 C      1, 2, 4
    2   17 Cl     3, 5
    3    1 H      6-11

           -------------------------------------------------
          |                Calculation Setup                |
           -------------------------------------------------

          program call               : /srv/scratch/z5358697/.xtb/bin/xtb gas.coord --gfn2 --sp --chrg 0 --norestart --parallel 1
          hostname                   : k112
          coordinate file            : gas.coord
          omp threads                :                     1


           -------------------------------------------------
          |                 G F N 2 - x T B                 |
           -------------------------------------------------

        Reference                      10.1021/acs.jctc.8b01176
      * Hamiltonian:
        H0-scaling (s, p, d)           1.850000    2.230000    2.230000
        zeta-weighting                 0.500000
      * Dispersion:
        s8                             2.700000
        a1                             0.520000
        a2                             5.000000
        s9                             5.000000
      * Repulsion:
        kExp                           1.500000    1.000000
        rExp                           1.000000
      * Coulomb:
        alpha                          2.000000
        third order                    shell-resolved
        anisotropic                    true
        a3                             3.000000
        a5                             4.000000
        cn-shift                       1.200000
        cn-exp                         4.000000
        max-rad                        5.000000


          ...................................................
          :                      SETUP                      :
          :.................................................:
          :  # basis functions                  38          :
          :  # atomic orbitals                  36          :
          :  # shells                           18          :
          :  # electrons                        32          :
          :  max. iterations                   250          :
          :  Hamiltonian                  GFN2-xTB          :
          :  restarted?                      false          :
          :  GBSA solvation                  false          :
          :  PC potential                    false          :
          :  electronic temp.          300.0000000     K    :
          :  accuracy                    1.0000000          :
          :  -> integral cutoff          0.2500000E+02      :
          :  -> integral neglect         0.1000000E-07      :
          :  -> SCF convergence          0.1000000E-05 Eh   :
          :  -> wf. convergence          0.1000000E-03 e    :
          :  Broyden damping             0.4000000          :
          :  net charge                          0          :
          :  unpaired electrons                  0          :
          ...................................................

 iter      E             dE          RMSdq      gap      omega  full diag
   1    -18.6613327 -0.186613E+02  0.426E+00    7.23       0.0  T
   2    -18.7115194 -0.501867E-01  0.253E+00    6.54       1.0  T
   3    -18.7132798 -0.176035E-02  0.126E+00    6.70       1.0  T
   4    -18.7136793 -0.399503E-03  0.141E-01    6.62       1.0  T
   5    -18.7137352 -0.559125E-04  0.864E-02    6.62       1.0  T
   6    -18.7137481 -0.129286E-04  0.393E-02    6.61       1.0  T
   7    -18.7137545 -0.632577E-05  0.246E-02    6.60       1.2  T
   8    -18.7137576 -0.316871E-05  0.800E-03    6.60       3.8  T
   9    -18.7137578 -0.202230E-06  0.171E-03    6.60      17.7  T
  10    -18.7137578 -0.662540E-08  0.120E-03    6.60      25.1  T
  11    -18.7137578 -0.472515E-08  0.693E-04    6.60      43.5  T
  12    -18.7137578 -0.201550E-08  0.326E-04    6.60      92.6  T

   *** convergence criteria satisfied after 12 iterations ***

         #    Occupation            Energy/Eh            Energy/eV
      -------------------------------------------------------------
         1        2.0000           -1.0541667             -28.6853
       ...           ...                  ...                  ...
        10        2.0000           -0.4940330             -13.4433
        11        2.0000           -0.4863947             -13.2355
        12        2.0000           -0.4668471             -12.7036
        13        2.0000           -0.4205732             -11.4444
        14        2.0000           -0.4178094             -11.3692
        15        2.0000           -0.4142850             -11.2733
        16        2.0000           -0.4121783             -11.2159 (HOMO)
        17                         -0.1696437              -4.6162 (LUMO)
        18                         -0.1675800              -4.5601
        19                          0.0080823               0.2199
        20                          0.0136803               0.3723
        21                          0.0183679               0.4998
       ...                                ...                  ...
        36                          0.2699941               7.3469
      -------------------------------------------------------------
                  HL-Gap            0.2425346 Eh            6.5997 eV
             Fermi-level           -0.2909110 Eh           -7.9161 eV

 SCC (total)                   0 d,  0 h,  0 min,  0.010 sec
 SCC setup                      ...        0 min,  0.000 sec (  1.825%)
 Dispersion                     ...        0 min,  0.000 sec (  0.415%)
 classical contributions        ...        0 min,  0.000 sec (  0.147%)
 integral evaluation            ...        0 min,  0.002 sec ( 21.888%)
 iterations                     ...        0 min,  0.004 sec ( 45.996%)
 molecular gradient             ...        0 min,  0.003 sec ( 28.039%)
 printout                       ...        0 min,  0.000 sec (  1.462%)

         :::::::::::::::::::::::::::::::::::::::::::::::::::::
         ::                     SUMMARY                     ::
         :::::::::::::::::::::::::::::::::::::::::::::::::::::
         :: total energy             -18.577641904929 Eh    ::
         :: gradient norm              0.011103740089 Eh/a0 ::
         :: HOMO-LUMO gap              6.599702332255 eV    ::
         ::.................................................::
         :: SCC energy               -18.713751168083 Eh    ::
         :: -> isotropic ES            0.012400903405 Eh    ::
         :: -> anisotropic ES          0.000012869091 Eh    ::
         :: -> anisotropic XC          0.008057186521 Eh    ::
         :: -> dispersion             -0.006957235547 Eh    ::
         :: repulsion energy           0.136109263154 Eh    ::
         :: add. restraining           0.000000000000 Eh    ::
         :: total charge               0.000000000000 e     ::
         :::::::::::::::::::::::::::::::::::::::::::::::::::::

           -------------------------------------------------
          |                Property Printout                |
           -------------------------------------------------

    * Orbital Energies and Occupations

         #    Occupation            Energy/Eh            Energy/eV
      -------------------------------------------------------------
         1        2.0000           -1.0541667             -28.6853
       ...           ...                  ...                  ...
         4        2.0000           -0.6282077             -17.0944
         5        2.0000           -0.5965694             -16.2335
         6        2.0000           -0.5518616             -15.0169
         7        2.0000           -0.5451982             -14.8356
         8        2.0000           -0.5291297             -14.3984
         9        2.0000           -0.5080708             -13.8253
        10        2.0000           -0.4940330             -13.4433
        11        2.0000           -0.4863947             -13.2355
        12        2.0000           -0.4668471             -12.7036
        13        2.0000           -0.4205732             -11.4444
        14        2.0000           -0.4178094             -11.3692
        15        2.0000           -0.4142850             -11.2733
        16        2.0000           -0.4121783             -11.2159 (HOMO)
        17                         -0.1696437              -4.6162 (LUMO)
        18                         -0.1675800              -4.5601
        19                          0.0080823               0.2199
        20                          0.0136803               0.3723
        21                          0.0183679               0.4998
        22                          0.0214962               0.5849
        23                          0.0236105               0.6425
        24                          0.0239598               0.6520
        25                          0.0266114               0.7241
        26                          0.0272698               0.7420
        27                          0.0629000               1.7116
       ...                                ...                  ...
        36                          0.2699941               7.3469
      -------------------------------------------------------------
                  HL-Gap            0.2425346 Eh            6.5997 eV
             Fermi-level           -0.2909110 Eh           -7.9161 eV

     #   Z          covCN         q      C6AA      α(0)
     1   6 C        3.842    -0.069    21.794     6.641
     2   6 C        3.712     0.025    20.287     6.436
     3  17 Cl       0.906    -0.204   105.570    15.719
     4   6 C        3.713     0.021    20.341     6.444
     5  17 Cl       0.908    -0.204   105.571    15.719
     6   1 H        0.925     0.061     2.191     2.315
     7   1 H        0.925     0.084     1.935     2.175
     8   1 H        0.925     0.067     2.120     2.277
     9   1 H        0.925     0.079     1.987     2.204
    10   1 H        0.925     0.073     2.055     2.242
    11   1 H        0.925     0.068     2.109     2.271

 Mol. C6AA /au·bohr⁶  :       1833.249740
 Mol. C8AA /au·bohr⁸  :      55750.061415
 Mol. α(0) /au        :         64.444293


Wiberg/Mayer (AO) data.
largest (>0.10) Wiberg bond orders for each atom

 ---------------------------------------------------------------------------
     #   Z sym  total        # sym  WBO       # sym  WBO       # sym  WBO
 ---------------------------------------------------------------------------
     1   6 C    3.991 --     4 C    1.019     2 C    1.011     7 H    0.969
                             6 H    0.967
     2   6 C    3.940 --     1 C    1.011     8 H    0.982     9 H    0.977
                             3 Cl   0.953
     3  17 Cl   0.992 --     2 C    0.953
     4   6 C    3.943 --     1 C    1.019    11 H    0.979    10 H    0.978
                             5 Cl   0.948
     5  17 Cl   0.993 --     4 C    0.948
     6   1 H    0.996 --     1 C    0.967
     7   1 H    0.993 --     1 C    0.969
     8   1 H    0.996 --     2 C    0.982
     9   1 H    0.994 --     2 C    0.977
    10   1 H    0.995 --     4 C    0.978
    11   1 H    0.995 --     4 C    0.979
 ---------------------------------------------------------------------------

Topologies differ in total number of bonds
Writing topology from bond orders to xtbtopo.mol

molecular dipole:
                 x           y           z       tot (Debye)
 q only:        0.269       1.388      -0.124
   full:        0.301       1.265      -0.143       3.326
molecular quadrupole (traceless):
                xx          xy          yy          xz          yz          zz
 q only:       -5.133       1.196       2.738       0.485       0.148       2.395
  q+dip:       -5.359       0.652       2.189       0.825       0.018       3.170
   full:       -5.333       1.048       3.103       0.637      -0.114       2.229


           -------------------------------------------------
          | TOTAL ENERGY              -18.577641904929 Eh   |
          | GRADIENT NORM               0.011103740089 Eh/α |
          | HOMO-LUMO GAP               6.599702332255 eV   |
           -------------------------------------------------

------------------------------------------------------------------------
 * finished run on 2025/04/11 at 12:26:59.905     
------------------------------------------------------------------------
 total:
 * wall-time:     0 d,  0 h,  0 min,  0.045 sec
 *  cpu-time:     0 d,  0 h,  0 min,  0.017 sec
 * ratio c/w:     0.389 speedup
 SCF:
 * wall-time:     0 d,  0 h,  0 min,  0.010 sec
 *  cpu-time:     0 d,  0 h,  0 min,  0.010 sec
 * ratio c/w:     0.990 speedup

