      -----------------------------------------------------------      
     |                   =====================                   |     
     |                           x T B                           |     
     |                   =====================                   |     
     |                         S. Grimme                         |     
     |          Mulliken Center for Theoretical Chemistry        |     
     |                    University of Bonn                     |     
      -----------------------------------------------------------      

   * xtb version 6.7.1 (edcfbbe) compiled by 'albert@albert-system' on 2024-07-22

   xtb is free software: you can redistribute it and/or modify it under
   the terms of the GNU Lesser General Public License as published by
   the Free Software Foundation, either version 3 of the License, or
   (at your option) any later version.
   
   xtb is distributed in the hope that it will be useful,
   but WITHOUT ANY WARRANTY; without even the implied warranty of
   MERCHANTABILITY or FITNESS FOR A PARTICULAR PURPOSE.  See the
   GNU Lesser General Public License for more details.
   
   Cite this work as:
   * C. Bannwarth, E. Caldeweyher, S. Ehlert, A. Hansen, P. Pracht,
     J. Seibert, S. Spicher, S. Grimme, WIREs Comput. Mol. Sci., 2020, 11,
     e01493. DOI: 10.1002/wcms.1493
   
   for GFN2-xTB:
   * C. Bannwarth, S. Ehlert and S. Grimme., J. Chem. Theory Comput., 2019,
     15, 1652-1671. DOI: 10.1021/acs.jctc.8b01176
   for GFN1-xTB:
   * S. Grimme, C. Bannwarth, P. Shushkov, J. Chem. Theory Comput., 2017,
     13, 1989-2009. DOI: 10.1021/acs.jctc.7b00118
   for GFN0-xTB:
   * P. Pracht, E. Caldeweyher, S. Ehlert, S. Grimme, ChemRxiv, 2019, preprint.
     DOI: 10.26434/chemrxiv.8326202.v1
   for GFN-FF:
   * S. Spicher and S. Grimme, Angew. Chem. Int. Ed., 2020, 59, 15665-15673.
     DOI: 10.1002/anie.202004239
   
   for ALPB and GBSA implicit solvation:
   * S. Ehlert, M. Stahn, S. Spicher, S. Grimme, J. Chem. Theory Comput.,
     2021, 17, 4250-4261. DOI: 10.1021/acs.jctc.1c00471
   
   for ddCOSMO and CPCM-X implicit solvation:
   * M. Stahn, S. Ehlert, S. Grimme, J. Phys. Chem. A,
     2023, XX, XXXX-XXXX. DOI: 10.1021/acs.jpca.3c04382
   
   for DFT-D4:
   * E. Caldeweyher, C. Bannwarth and S. Grimme, J. Chem. Phys., 2017,
     147, 034112. DOI: 10.1063/1.4993215
   * E. Caldeweyher, S. Ehlert, A. Hansen, H. Neugebauer, S. Spicher,
     C. Bannwarth and S. Grimme, J. Chem. Phys., 2019, 150, 154122.
     DOI: 10.1063/1.5090222
   * E. Caldeweyher, J.-M. Mewes, S. Ehlert and S. Grimme, Phys. Chem. Chem. Phys.
     2020, 22, 8499-8512. DOI: 10.1039/D0CP00502A
   
   for sTDA-xTB:
   * S. Grimme and C. Bannwarth, J. Chem. Phys., 2016, 145, 054103.
     DOI: 10.1063/1.4959605
   
   in the mass-spec context:
   * V. Asgeirsson, C. Bauer and S. Grimme, Chem. Sci., 2017, 8, 4879.
     DOI: 10.1039/c7sc00601b
   * J. Koopman and S. Grimme, ACS Omega 2019, 4, 12, 15120-15133.
     DOI: 10.1021/acsomega.9b02011
   
   for metadynamics refer to:
   * S. Grimme, J. Chem. Theory Comput., 2019, 155, 2847-2862
     DOI: 10.1021/acs.jctc.9b00143
   
   for SPH calculations refer to:
   * S. Spicher and S. Grimme, J. Chem. Theory Comput., 2021, 17, 1701-1714
     DOI: 10.1021/acs.jctc.0c01306
   
   for ONIOM refer to:
   * C. Plett, A. Katbashev, S. Ehlert, S. Grimme, M. Bursch,
     Phys. Chem. Chem. Phys., 2023, 25, 17860-17868. DOI: 10.1039/D3CP02178E
   
   for DIPRO refer to:
   * J. Kohn, N. Gildemeister, S. Grimme, D. Fazzi, A. Hansen,
     J. Chem. Phys., 2023, just accepted.
   
   for PTB refer to:
   * S. Grimme, M. Mueller, A. Hansen, J. Chem. Phys., 2023, 158, 124111.
     DOI: 10.1063/5.0137838
   
   with help from (in alphabetical order)
   P. Atkinson, C. Bannwarth, F. Bohle, G. Brandenburg, E. Caldeweyher
   M. Checinski, S. Dohm, S. Ehlert, S. Ehrlich, I. Gerasimov, C. Hölzer
   A. Katbashev, J. Kohn, J. Koopman, C. Lavigne, S. Lehtola, F. März, M. Müller,
   F. Musil, H. Neugebauer, J. Pisarek, C. Plett, P. Pracht, F. Pultar,
   J. Seibert, P. Shushkov, S. Spicher, M. Stahn, M. Steiner, T. Strunk,
   J. Stückrath, T. Rose, and J. Unsleber
   
 * started run on 2025/04/11 at 15:53:54.457     
   ID    Z sym.   atoms
    1    6 C      1-4, 7, 8
    2    8 O      5, 6
    3    1 H      9-20

           -------------------------------------------------
          |                Calculation Setup                |
           -------------------------------------------------

          program call               : /srv/scratch/z5358697/.xtb/bin/xtb solv.coord --gfn2 --sp --chrg 0 --norestart --parallel 1 --alpb water reference -I xtb_sp-xcontrol-inp
          hostname                   : k061
          coordinate file            : solv.coord
          omp threads                :                     1


           -------------------------------------------------
          |                 G F N 2 - x T B                 |
           -------------------------------------------------

        Reference                      10.1021/acs.jctc.8b01176
      * Hamiltonian:
        H0-scaling (s, p, d)           1.850000    2.230000    2.230000
        zeta-weighting                 0.500000
      * Dispersion:
        s8                             2.700000
        a1                             0.520000
        a2                             5.000000
        s9                             5.000000
      * Repulsion:
        kExp                           1.500000    1.000000
        rExp                           1.000000
      * Coulomb:
        alpha                          2.000000
        third order                    shell-resolved
        anisotropic                    true
        a3                             3.000000
        a5                             4.000000
        cn-shift                       1.200000
        cn-exp                         4.000000
        max-rad                        5.000000

      * Solvation model:               ALPB
        Solvent                        water
        Parameter file                 internal GFN2-xTB/ALPB
        Dielectric constant                8.0200E+01
        Reference state                gsolv=reference [X=1]
        Free energy shift                  2.8945E-03 Eh       1.8164E+00 kcal/mol
        Temperature                        2.9815E+02 K
        Density                            1.0000E+00 kg/L
        Solvent mass                       1.8000E+01 g/mol
        Interaction kernel             P16
        Born radius scaling (c1)           1.4744E+00
        Born radii integrator          GBOBC
        Born offset                        0.0000E+00 a0       0.0000E+00 AA
        H-bond correction              true
        Ion screening                  false
        Surface tension                    1.0000E-05 Eh       1.5569E+01 dyn/cm
        Grid points                               974 per atom

          ...................................................
          :                      SETUP                      :
          :.................................................:
          :  # basis functions                  44          :
          :  # atomic orbitals                  44          :
          :  # shells                           28          :
          :  # electrons                        48          :
          :  max. iterations                   250          :
          :  Hamiltonian                  GFN2-xTB          :
          :  restarted?                      false          :
          :  GBSA solvation                   true          :
          :  PC potential                    false          :
          :  electronic temp.          300.0000000     K    :
          :  accuracy                    1.0000000          :
          :  -> integral cutoff          0.2500000E+02      :
          :  -> integral neglect         0.1000000E-07      :
          :  -> SCF convergence          0.1000000E-05 Eh   :
          :  -> wf. convergence          0.1000000E-03 e    :
          :  Broyden damping             0.4000000          :
          :  net charge                          0          :
          :  unpaired electrons                  0          :
          ...................................................

 iter      E             dE          RMSdq      gap      omega  full diag
   1    -27.3735097 -0.273735E+02  0.401E+00    5.79       0.0  T
   2    -27.4340468 -0.605371E-01  0.201E+00    4.85       1.0  T
   3    -27.4357451 -0.169826E-02  0.101E+00    5.16       1.0  T
   4    -27.4371386 -0.139353E-02  0.160E-01    4.93       1.0  T
   5    -27.4373366 -0.198019E-03  0.669E-02    4.99       1.0  T
   6    -27.4373385 -0.184826E-05  0.218E-02    4.98       1.0  T
   7    -27.4373394 -0.951004E-06  0.389E-03    4.98       5.7  T
   8    -27.4373395 -0.222823E-07  0.214E-03    4.99      10.4  T
   9    -27.4373395 -0.736495E-08  0.354E-04    4.98      63.2  T
  10    -27.4373395 -0.312252E-09  0.192E-04    4.98     116.7  T

   *** convergence criteria satisfied after 10 iterations ***

         #    Occupation            Energy/Eh            Energy/eV
      -------------------------------------------------------------
         1        2.0000           -0.7503034             -20.4168
       ...           ...                  ...                  ...
        18        2.0000           -0.4670534             -12.7092
        19        2.0000           -0.4616149             -12.5612
        20        2.0000           -0.4508718             -12.2688
        21        2.0000           -0.4464090             -12.1474
        22        2.0000           -0.4431230             -12.0580
        23        2.0000           -0.4310071             -11.7283
        24        2.0000           -0.4216800             -11.4745 (HOMO)
        25                         -0.2384865              -6.4895 (LUMO)
        26                         -0.0060530              -0.1647
        27                          0.1008068               2.7431
        28                          0.1113775               3.0307
        29                          0.1139905               3.1018
       ...                                ...                  ...
        44                          0.6172093              16.7951
      -------------------------------------------------------------
                  HL-Gap            0.1831934 Eh            4.9849 eV
             Fermi-level           -0.3300832 Eh           -8.9820 eV

 SCC (total)                   0 d,  0 h,  0 min,  0.024 sec
 SCC setup                      ...        0 min,  0.001 sec (  6.094%)
 Dispersion                     ...        0 min,  0.000 sec (  0.573%)
 classical contributions        ...        0 min,  0.000 sec (  0.123%)
 integral evaluation            ...        0 min,  0.002 sec (  9.011%)
 iterations                     ...        0 min,  0.015 sec ( 62.395%)
 molecular gradient             ...        0 min,  0.005 sec ( 21.096%)
 printout                       ...        0 min,  0.000 sec (  0.642%)

         :::::::::::::::::::::::::::::::::::::::::::::::::::::
         ::                     SUMMARY                     ::
         :::::::::::::::::::::::::::::::::::::::::::::::::::::
         :: total energy             -27.120821727236 Eh    ::
         :: total w/o Gsasa/hb       -27.122723222254 Eh    ::
         :: gradient norm              0.000168740249 Eh/a0 ::
         :: HOMO-LUMO gap              4.984947381136 eV    ::
         ::.................................................::
         :: SCC energy               -27.437340311109 Eh    ::
         :: -> isotropic ES            0.058535192186 Eh    ::
         :: -> anisotropic ES          0.000842744986 Eh    ::
         :: -> anisotropic XC          0.008267800545 Eh    ::
         :: -> dispersion             -0.011320720576 Eh    ::
         :: -> Gsolv                  -0.006856941182 Eh    ::
         ::    -> Gelec               -0.008758436199 Eh    ::
         ::    -> Gsasa                0.001202573099 Eh    ::
         ::    -> Ghb                 -0.002195627242 Eh    ::
         ::    -> Gshift               0.002894549160 Eh    ::
         :: repulsion energy           0.316518583873 Eh    ::
         :: add. restraining           0.000000000000 Eh    ::
         :: total charge               0.000000000000 e     ::
         :::::::::::::::::::::::::::::::::::::::::::::::::::::

           -------------------------------------------------
          |                Property Printout                |
           -------------------------------------------------

    * Orbital Energies and Occupations

         #    Occupation            Energy/Eh            Energy/eV
      -------------------------------------------------------------
         1        2.0000           -0.7503034             -20.4168
       ...           ...                  ...                  ...
        12        2.0000           -0.5188608             -14.1189
        13        2.0000           -0.5134721             -13.9723
        14        2.0000           -0.5107475             -13.8981
        15        2.0000           -0.4954908             -13.4830
        16        2.0000           -0.4860557             -13.2262
        17        2.0000           -0.4703309             -12.7984
        18        2.0000           -0.4670534             -12.7092
        19        2.0000           -0.4616149             -12.5612
        20        2.0000           -0.4508718             -12.2688
        21        2.0000           -0.4464090             -12.1474
        22        2.0000           -0.4431230             -12.0580
        23        2.0000           -0.4310071             -11.7283
        24        2.0000           -0.4216800             -11.4745 (HOMO)
        25                         -0.2384865              -6.4895 (LUMO)
        26                         -0.0060530              -0.1647
        27                          0.1008068               2.7431
        28                          0.1113775               3.0307
        29                          0.1139905               3.1018
        30                          0.1335066               3.6329
        31                          0.1440047               3.9186
        32                          0.1553319               4.2268
        33                          0.1603733               4.3640
        34                          0.1633769               4.4457
        35                          0.1798080               4.8928
       ...                                ...                  ...
        44                          0.6172093              16.7951
      -------------------------------------------------------------
                  HL-Gap            0.1831934 Eh            4.9849 eV
             Fermi-level           -0.3300832 Eh           -8.9820 eV

     #   Z          covCN         q      C6AA      α(0)
     1   6 C        3.753    -0.119    22.832     6.814
     2   6 C        3.802    -0.050    21.477     6.598
     3   6 C        3.804    -0.101    22.425     6.742
     4   6 C        2.712     0.365    20.806     7.466
     5   8 O        0.856    -0.487    23.502     6.500
     6   8 O        1.703    -0.273    18.533     5.812
     7   6 C        3.693     0.067    19.621     6.338
     8   6 C        3.750    -0.127    22.997     6.839
     9   1 H        0.925     0.049     2.326     2.385
    10   1 H        0.925     0.047     2.362     2.403
    11   1 H        0.925     0.050     2.324     2.384
    12   1 H        0.924     0.045     2.383     2.414
    13   1 H        0.924     0.041     2.442     2.444
    14   1 H        0.925     0.077     2.013     2.219
    15   1 H        0.924     0.086     1.920     2.167
    16   1 H        0.924     0.059     2.216     2.328
    17   1 H        0.924     0.082     1.964     2.191
    18   1 H        0.925     0.071     2.072     2.251
    19   1 H        0.925     0.067     2.122     2.278
    20   1 H        0.925     0.053     2.286     2.364

 Mol. C6AA /au·bohr⁶  :       2996.932776
 Mol. C8AA /au·bohr⁸  :      63827.697851
 Mol. α(0) /au        :         80.937714


Wiberg/Mayer (AO) data.
largest (>0.10) Wiberg bond orders for each atom

 ---------------------------------------------------------------------------
     #   Z sym  total        # sym  WBO       # sym  WBO       # sym  WBO
 ---------------------------------------------------------------------------
     1   6 C    3.993 --     2 C    1.019    10 H    0.987     9 H    0.987
                            11 H    0.985
     2   6 C    3.992 --     1 C    1.019     3 C    0.985    13 H    0.979
                            12 H    0.977
     3   6 C    3.988 --     2 C    0.985     4 C    0.979    14 H    0.973
                            15 H    0.948
     4   6 C    3.904 --     5 O    1.694     6 O    1.168     3 C    0.979
     5   8 O    1.974 --     4 C    1.694     6 O    0.171
     6   8 O    2.318 --     4 C    1.168     7 C    0.918     5 O    0.171
     7   6 C    3.911 --     8 C    1.013    16 H    0.970    17 H    0.969
                             6 O    0.918
     8   6 C    3.989 --     7 C    1.013    20 H    0.986    19 H    0.984
                            18 H    0.980
     9   1 H    0.998 --     1 C    0.987
    10   1 H    0.998 --     1 C    0.987
    11   1 H    0.997 --     1 C    0.985
    12   1 H    0.998 --     2 C    0.977
    13   1 H    0.998 --     2 C    0.979
    14   1 H    0.994 --     3 C    0.973
    15   1 H    0.993 --     3 C    0.948
    16   1 H    0.997 --     7 C    0.970
    17   1 H    0.993 --     7 C    0.969
    18   1 H    0.994 --     8 C    0.980
    19   1 H    0.996 --     8 C    0.984
    20   1 H    0.997 --     8 C    0.986
 ---------------------------------------------------------------------------

Topologies differ in total number of bonds
Writing topology from bond orders to xtbtopo.mol

molecular dipole:
                 x           y           z       tot (Debye)
 q only:        0.130      -0.606       0.898
   full:        0.144      -0.541       0.932       2.762
molecular quadrupole (traceless):
                xx          xy          yy          xz          yz          zz
 q only:       10.659      -0.398      -4.055      -0.109       3.313      -6.604
  q+dip:        8.220      -0.650      -2.264       0.467       3.282      -5.956
   full:        8.757      -0.443      -2.158       0.208       3.981      -6.599


           -------------------------------------------------
          | TOTAL ENERGY              -27.120821727236 Eh   |
          | GRADIENT NORM               0.000168740249 Eh/α |
          | HOMO-LUMO GAP               4.984947381136 eV   |
           -------------------------------------------------

------------------------------------------------------------------------
 * finished run on 2025/04/11 at 15:53:54.523     
------------------------------------------------------------------------
 total:
 * wall-time:     0 d,  0 h,  0 min,  0.065 sec
 *  cpu-time:     0 d,  0 h,  0 min,  0.026 sec
 * ratio c/w:     0.392 speedup
 SCF:
 * wall-time:     0 d,  0 h,  0 min,  0.025 sec
 *  cpu-time:     0 d,  0 h,  0 min,  0.016 sec
 * ratio c/w:     0.643 speedup

