      -----------------------------------------------------------      
     |                   =====================                   |     
     |                           x T B                           |     
     |                   =====================                   |     
     |                         S. Grimme                         |     
     |          Mulliken Center for Theoretical Chemistry        |     
     |                    University of Bonn                     |     
      -----------------------------------------------------------      

   * xtb version 6.7.1 (edcfbbe) compiled by 'albert@albert-system' on 2024-07-22

   xtb is free software: you can redistribute it and/or modify it under
   the terms of the GNU Lesser General Public License as published by
   the Free Software Foundation, either version 3 of the License, or
   (at your option) any later version.
   
   xtb is distributed in the hope that it will be useful,
   but WITHOUT ANY WARRANTY; without even the implied warranty of
   MERCHANTABILITY or FITNESS FOR A PARTICULAR PURPOSE.  See the
   GNU Lesser General Public License for more details.
   
   Cite this work as:
   * C. Bannwarth, E. Caldeweyher, S. Ehlert, A. Hansen, P. Pracht,
     J. Seibert, S. Spicher, S. Grimme, WIREs Comput. Mol. Sci., 2020, 11,
     e01493. DOI: 10.1002/wcms.1493
   
   for GFN2-xTB:
   * C. Bannwarth, S. Ehlert and S. Grimme., J. Chem. Theory Comput., 2019,
     15, 1652-1671. DOI: 10.1021/acs.jctc.8b01176
   for GFN1-xTB:
   * S. Grimme, C. Bannwarth, P. Shushkov, J. Chem. Theory Comput., 2017,
     13, 1989-2009. DOI: 10.1021/acs.jctc.7b00118
   for GFN0-xTB:
   * P. Pracht, E. Caldeweyher, S. Ehlert, S. Grimme, ChemRxiv, 2019, preprint.
     DOI: 10.26434/chemrxiv.8326202.v1
   for GFN-FF:
   * S. Spicher and S. Grimme, Angew. Chem. Int. Ed., 2020, 59, 15665-15673.
     DOI: 10.1002/anie.202004239
   
   for ALPB and GBSA implicit solvation:
   * S. Ehlert, M. Stahn, S. Spicher, S. Grimme, J. Chem. Theory Comput.,
     2021, 17, 4250-4261. DOI: 10.1021/acs.jctc.1c00471
   
   for ddCOSMO and CPCM-X implicit solvation:
   * M. Stahn, S. Ehlert, S. Grimme, J. Phys. Chem. A,
     2023, XX, XXXX-XXXX. DOI: 10.1021/acs.jpca.3c04382
   
   for DFT-D4:
   * E. Caldeweyher, C. Bannwarth and S. Grimme, J. Chem. Phys., 2017,
     147, 034112. DOI: 10.1063/1.4993215
   * E. Caldeweyher, S. Ehlert, A. Hansen, H. Neugebauer, S. Spicher,
     C. Bannwarth and S. Grimme, J. Chem. Phys., 2019, 150, 154122.
     DOI: 10.1063/1.5090222
   * E. Caldeweyher, J.-M. Mewes, S. Ehlert and S. Grimme, Phys. Chem. Chem. Phys.
     2020, 22, 8499-8512. DOI: 10.1039/D0CP00502A
   
   for sTDA-xTB:
   * S. Grimme and C. Bannwarth, J. Chem. Phys., 2016, 145, 054103.
     DOI: 10.1063/1.4959605
   
   in the mass-spec context:
   * V. Asgeirsson, C. Bauer and S. Grimme, Chem. Sci., 2017, 8, 4879.
     DOI: 10.1039/c7sc00601b
   * J. Koopman and S. Grimme, ACS Omega 2019, 4, 12, 15120-15133.
     DOI: 10.1021/acsomega.9b02011
   
   for metadynamics refer to:
   * S. Grimme, J. Chem. Theory Comput., 2019, 155, 2847-2862
     DOI: 10.1021/acs.jctc.9b00143
   
   for SPH calculations refer to:
   * S. Spicher and S. Grimme, J. Chem. Theory Comput., 2021, 17, 1701-1714
     DOI: 10.1021/acs.jctc.0c01306
   
   for ONIOM refer to:
   * C. Plett, A. Katbashev, S. Ehlert, S. Grimme, M. Bursch,
     Phys. Chem. Chem. Phys., 2023, 25, 17860-17868. DOI: 10.1039/D3CP02178E
   
   for DIPRO refer to:
   * J. Kohn, N. Gildemeister, S. Grimme, D. Fazzi, A. Hansen,
     J. Chem. Phys., 2023, just accepted.
   
   for PTB refer to:
   * S. Grimme, M. Mueller, A. Hansen, J. Chem. Phys., 2023, 158, 124111.
     DOI: 10.1063/5.0137838
   
   with help from (in alphabetical order)
   P. Atkinson, C. Bannwarth, F. Bohle, G. Brandenburg, E. Caldeweyher
   M. Checinski, S. Dohm, S. Ehlert, S. Ehrlich, I. Gerasimov, C. Hölzer
   A. Katbashev, J. Kohn, J. Koopman, C. Lavigne, S. Lehtola, F. März, M. Müller,
   F. Musil, H. Neugebauer, J. Pisarek, C. Plett, P. Pracht, F. Pultar,
   J. Seibert, P. Shushkov, S. Spicher, M. Stahn, M. Steiner, T. Strunk,
   J. Stückrath, T. Rose, and J. Unsleber
   
 * started run on 2025/04/11 at 15:53:54.996     
   ID    Z sym.   atoms
    1    6 C      1-4, 7, 8
    2    8 O      5, 6
    3    1 H      9-20

           -------------------------------------------------
          |                Calculation Setup                |
           -------------------------------------------------

          program call               : /srv/scratch/z5358697/.xtb/bin/xtb gas.coord --gfn2 --sp --chrg 0 --norestart --parallel 1
          hostname                   : k061
          coordinate file            : gas.coord
          omp threads                :                     1


           -------------------------------------------------
          |                 G F N 2 - x T B                 |
           -------------------------------------------------

        Reference                      10.1021/acs.jctc.8b01176
      * Hamiltonian:
        H0-scaling (s, p, d)           1.850000    2.230000    2.230000
        zeta-weighting                 0.500000
      * Dispersion:
        s8                             2.700000
        a1                             0.520000
        a2                             5.000000
        s9                             5.000000
      * Repulsion:
        kExp                           1.500000    1.000000
        rExp                           1.000000
      * Coulomb:
        alpha                          2.000000
        third order                    shell-resolved
        anisotropic                    true
        a3                             3.000000
        a5                             4.000000
        cn-shift                       1.200000
        cn-exp                         4.000000
        max-rad                        5.000000


          ...................................................
          :                      SETUP                      :
          :.................................................:
          :  # basis functions                  44          :
          :  # atomic orbitals                  44          :
          :  # shells                           28          :
          :  # electrons                        48          :
          :  max. iterations                   250          :
          :  Hamiltonian                  GFN2-xTB          :
          :  restarted?                      false          :
          :  GBSA solvation                  false          :
          :  PC potential                    false          :
          :  electronic temp.          300.0000000     K    :
          :  accuracy                    1.0000000          :
          :  -> integral cutoff          0.2500000E+02      :
          :  -> integral neglect         0.1000000E-07      :
          :  -> SCF convergence          0.1000000E-05 Eh   :
          :  -> wf. convergence          0.1000000E-03 e    :
          :  Broyden damping             0.4000000          :
          :  net charge                          0          :
          :  unpaired electrons                  0          :
          ...................................................

 iter      E             dE          RMSdq      gap      omega  full diag
   1    -27.3540874 -0.273541E+02  0.382E+00    5.91       0.0  T
   2    -27.4253389 -0.712515E-01  0.197E+00    4.67       1.0  T
   3    -27.4288389 -0.349997E-02  0.111E+00    5.16       1.0  T
   4    -27.4311374 -0.229845E-02  0.178E-01    4.87       1.0  T
   5    -27.4314127 -0.275353E-03  0.711E-02    4.94       1.0  T
   6    -27.4314175 -0.482269E-05  0.242E-02    4.93       1.0  T
   7    -27.4314189 -0.133397E-05  0.723E-03    4.93       3.1  T
   8    -27.4314190 -0.127707E-06  0.187E-03    4.93      11.9  T
   9    -27.4314190 -0.606863E-08  0.860E-04    4.93      26.0  T
  10    -27.4314190 -0.210459E-08  0.278E-04    4.93      80.5  T

   *** convergence criteria satisfied after 10 iterations ***

         #    Occupation            Energy/Eh            Energy/eV
      -------------------------------------------------------------
         1        2.0000           -0.7408513             -20.1596
       ...           ...                  ...                  ...
        18        2.0000           -0.4730780             -12.8731
        19        2.0000           -0.4671360             -12.7114
        20        2.0000           -0.4518601             -12.2957
        21        2.0000           -0.4484570             -12.2031
        22        2.0000           -0.4418088             -12.0222
        23        2.0000           -0.4357708             -11.8579
        24        2.0000           -0.4073570             -11.0847 (HOMO)
        25                         -0.2261050              -6.1526 (LUMO)
        26                         -0.0025193              -0.0686
        27                          0.0933095               2.5391
        28                          0.1025524               2.7906
        29                          0.1214771               3.3056
       ...                                ...                  ...
        44                          0.6235338              16.9672
      -------------------------------------------------------------
                  HL-Gap            0.1812520 Eh            4.9321 eV
             Fermi-level           -0.3167310 Eh           -8.6187 eV

 SCC (total)                   0 d,  0 h,  0 min,  0.028 sec
 SCC setup                      ...        0 min,  0.000 sec (  1.333%)
 Dispersion                     ...        0 min,  0.000 sec (  0.763%)
 classical contributions        ...        0 min,  0.000 sec (  0.176%)
 integral evaluation            ...        0 min,  0.004 sec ( 14.273%)
 iterations                     ...        0 min,  0.019 sec ( 65.586%)
 molecular gradient             ...        0 min,  0.005 sec ( 17.250%)
 printout                       ...        0 min,  0.000 sec (  0.535%)

         :::::::::::::::::::::::::::::::::::::::::::::::::::::
         ::                     SUMMARY                     ::
         :::::::::::::::::::::::::::::::::::::::::::::::::::::
         :: total energy             -27.115015694433 Eh    ::
         :: gradient norm              0.028020732262 Eh/a0 ::
         :: HOMO-LUMO gap              4.932117650785 eV    ::
         ::.................................................::
         :: SCC energy               -27.431366148528 Eh    ::
         :: -> isotropic ES            0.048269520509 Eh    ::
         :: -> anisotropic ES          0.002646458158 Eh    ::
         :: -> anisotropic XC          0.007649698077 Eh    ::
         :: -> dispersion             -0.011727118124 Eh    ::
         :: repulsion energy           0.316350454095 Eh    ::
         :: add. restraining           0.000000000000 Eh    ::
         :: total charge               0.000000000000 e     ::
         :::::::::::::::::::::::::::::::::::::::::::::::::::::

           -------------------------------------------------
          |                Property Printout                |
           -------------------------------------------------

    * Orbital Energies and Occupations

         #    Occupation            Energy/Eh            Energy/eV
      -------------------------------------------------------------
         1        2.0000           -0.7408513             -20.1596
       ...           ...                  ...                  ...
        12        2.0000           -0.5274510             -14.3527
        13        2.0000           -0.5124360             -13.9441
        14        2.0000           -0.5016061             -13.6494
        15        2.0000           -0.4936779             -13.4337
        16        2.0000           -0.4868309             -13.2473
        17        2.0000           -0.4767734             -12.9737
        18        2.0000           -0.4730780             -12.8731
        19        2.0000           -0.4671360             -12.7114
        20        2.0000           -0.4518601             -12.2957
        21        2.0000           -0.4484570             -12.2031
        22        2.0000           -0.4418088             -12.0222
        23        2.0000           -0.4357708             -11.8579
        24        2.0000           -0.4073570             -11.0847 (HOMO)
        25                         -0.2261050              -6.1526 (LUMO)
        26                         -0.0025193              -0.0686
        27                          0.0933095               2.5391
        28                          0.1025524               2.7906
        29                          0.1214771               3.3056
        30                          0.1251622               3.4058
        31                          0.1419593               3.8629
        32                          0.1449836               3.9452
        33                          0.1527605               4.1568
        34                          0.1669793               4.5437
        35                          0.1744897               4.7481
       ...                                ...                  ...
        44                          0.6235338              16.9672
      -------------------------------------------------------------
                  HL-Gap            0.1812520 Eh            4.9321 eV
             Fermi-level           -0.3167310 Eh           -8.6187 eV

     #   Z          covCN         q      C6AA      α(0)
     1   6 C        3.752    -0.104    22.551     6.772
     2   6 C        3.802    -0.050    21.466     6.596
     3   6 C        3.804    -0.091    22.224     6.711
     4   6 C        2.715     0.358    20.922     7.487
     5   8 O        0.856    -0.426    22.211     6.319
     6   8 O        1.704    -0.262    18.349     5.783
     7   6 C        3.696     0.083    19.370     6.296
     8   6 C        3.751    -0.116    22.777     6.806
     9   1 H        0.925     0.042     2.419     2.432
    10   1 H        0.925     0.038     2.474     2.460
    11   1 H        0.925     0.038     2.471     2.458
    12   1 H        0.924     0.045     2.390     2.417
    13   1 H        0.924     0.041     2.434     2.440
    14   1 H        0.925     0.061     2.186     2.312
    15   1 H        0.925     0.066     2.126     2.280
    16   1 H        0.924     0.049     2.327     2.386
    17   1 H        0.924     0.056     2.245     2.343
    18   1 H        0.925     0.058     2.219     2.330
    19   1 H        0.925     0.059     2.209     2.324
    20   1 H        0.925     0.053     2.278     2.360

 Mol. C6AA /au·bohr⁶  :       3019.858573
 Mol. C8AA /au·bohr⁸  :      64027.296826
 Mol. α(0) /au        :         81.314093


Wiberg/Mayer (AO) data.
largest (>0.10) Wiberg bond orders for each atom

 ---------------------------------------------------------------------------
     #   Z sym  total        # sym  WBO       # sym  WBO       # sym  WBO
 ---------------------------------------------------------------------------
     1   6 C    3.996 --     2 C    1.021     9 H    0.987    11 H    0.987
                            10 H    0.987
     2   6 C    3.995 --     1 C    1.021     3 C    0.987    12 H    0.978
                            13 H    0.977
     3   6 C    3.993 --     2 C    0.987    15 H    0.974     4 C    0.973
                            14 H    0.960
     4   6 C    3.915 --     5 O    1.736     6 O    1.151     3 C    0.973
     5   8 O    2.016 --     4 C    1.736     6 O    0.174
     6   8 O    2.313 --     4 C    1.151     7 C    0.932     5 O    0.174
     7   6 C    3.928 --     8 C    1.020    16 H    0.969    17 H    0.969
                             6 O    0.932
     8   6 C    3.991 --     7 C    1.020    18 H    0.985    19 H    0.985
                            20 H    0.983
     9   1 H    0.998 --     1 C    0.987
    10   1 H    0.999 --     1 C    0.987
    11   1 H    0.999 --     1 C    0.987
    12   1 H    0.998 --     2 C    0.978
    13   1 H    0.998 --     2 C    0.977
    14   1 H    0.996 --     3 C    0.960
    15   1 H    0.995 --     3 C    0.974
    16   1 H    0.998 --     7 C    0.969
    17   1 H    0.997 --     7 C    0.969
    18   1 H    0.997 --     8 C    0.985
    19   1 H    0.996 --     8 C    0.985
    20   1 H    0.996 --     8 C    0.983
 ---------------------------------------------------------------------------

Topologies differ in total number of bonds
Writing topology from bond orders to xtbtopo.mol

molecular dipole:
                 x           y           z       tot (Debye)
 q only:        0.215      -0.652       0.764
   full:        0.215      -0.650       0.814       2.703
molecular quadrupole (traceless):
                xx          xy          yy          xz          yz          zz
 q only:        7.587      -1.849      -3.277      -0.697       3.489      -4.310
  q+dip:        6.894      -1.400      -2.369      -1.123       4.791      -4.525
   full:        7.095      -1.221      -2.378      -0.938       5.147      -4.717


           -------------------------------------------------
          | TOTAL ENERGY              -27.115015694433 Eh   |
          | GRADIENT NORM               0.028020732262 Eh/α |
          | HOMO-LUMO GAP               4.932117650785 eV   |
           -------------------------------------------------

------------------------------------------------------------------------
 * finished run on 2025/04/11 at 15:53:55.068     
------------------------------------------------------------------------
 total:
 * wall-time:     0 d,  0 h,  0 min,  0.071 sec
 *  cpu-time:     0 d,  0 h,  0 min,  0.035 sec
 * ratio c/w:     0.495 speedup
 SCF:
 * wall-time:     0 d,  0 h,  0 min,  0.029 sec
 *  cpu-time:     0 d,  0 h,  0 min,  0.022 sec
 * ratio c/w:     0.785 speedup

