      -----------------------------------------------------------      
     |                   =====================                   |     
     |                           x T B                           |     
     |                   =====================                   |     
     |                         S. Grimme                         |     
     |          Mulliken Center for Theoretical Chemistry        |     
     |                    University of Bonn                     |     
      -----------------------------------------------------------      

   * xtb version 6.7.1 (edcfbbe) compiled by 'albert@albert-system' on 2024-07-22

   xtb is free software: you can redistribute it and/or modify it under
   the terms of the GNU Lesser General Public License as published by
   the Free Software Foundation, either version 3 of the License, or
   (at your option) any later version.
   
   xtb is distributed in the hope that it will be useful,
   but WITHOUT ANY WARRANTY; without even the implied warranty of
   MERCHANTABILITY or FITNESS FOR A PARTICULAR PURPOSE.  See the
   GNU Lesser General Public License for more details.
   
   Cite this work as:
   * C. Bannwarth, E. Caldeweyher, S. Ehlert, A. Hansen, P. Pracht,
     J. Seibert, S. Spicher, S. Grimme, WIREs Comput. Mol. Sci., 2020, 11,
     e01493. DOI: 10.1002/wcms.1493
   
   for GFN2-xTB:
   * C. Bannwarth, S. Ehlert and S. Grimme., J. Chem. Theory Comput., 2019,
     15, 1652-1671. DOI: 10.1021/acs.jctc.8b01176
   for GFN1-xTB:
   * S. Grimme, C. Bannwarth, P. Shushkov, J. Chem. Theory Comput., 2017,
     13, 1989-2009. DOI: 10.1021/acs.jctc.7b00118
   for GFN0-xTB:
   * P. Pracht, E. Caldeweyher, S. Ehlert, S. Grimme, ChemRxiv, 2019, preprint.
     DOI: 10.26434/chemrxiv.8326202.v1
   for GFN-FF:
   * S. Spicher and S. Grimme, Angew. Chem. Int. Ed., 2020, 59, 15665-15673.
     DOI: 10.1002/anie.202004239
   
   for ALPB and GBSA implicit solvation:
   * S. Ehlert, M. Stahn, S. Spicher, S. Grimme, J. Chem. Theory Comput.,
     2021, 17, 4250-4261. DOI: 10.1021/acs.jctc.1c00471
   
   for ddCOSMO and CPCM-X implicit solvation:
   * M. Stahn, S. Ehlert, S. Grimme, J. Phys. Chem. A,
     2023, XX, XXXX-XXXX. DOI: 10.1021/acs.jpca.3c04382
   
   for DFT-D4:
   * E. Caldeweyher, C. Bannwarth and S. Grimme, J. Chem. Phys., 2017,
     147, 034112. DOI: 10.1063/1.4993215
   * E. Caldeweyher, S. Ehlert, A. Hansen, H. Neugebauer, S. Spicher,
     C. Bannwarth and S. Grimme, J. Chem. Phys., 2019, 150, 154122.
     DOI: 10.1063/1.5090222
   * E. Caldeweyher, J.-M. Mewes, S. Ehlert and S. Grimme, Phys. Chem. Chem. Phys.
     2020, 22, 8499-8512. DOI: 10.1039/D0CP00502A
   
   for sTDA-xTB:
   * S. Grimme and C. Bannwarth, J. Chem. Phys., 2016, 145, 054103.
     DOI: 10.1063/1.4959605
   
   in the mass-spec context:
   * V. Asgeirsson, C. Bauer and S. Grimme, Chem. Sci., 2017, 8, 4879.
     DOI: 10.1039/c7sc00601b
   * J. Koopman and S. Grimme, ACS Omega 2019, 4, 12, 15120-15133.
     DOI: 10.1021/acsomega.9b02011
   
   for metadynamics refer to:
   * S. Grimme, J. Chem. Theory Comput., 2019, 155, 2847-2862
     DOI: 10.1021/acs.jctc.9b00143
   
   for SPH calculations refer to:
   * S. Spicher and S. Grimme, J. Chem. Theory Comput., 2021, 17, 1701-1714
     DOI: 10.1021/acs.jctc.0c01306
   
   for ONIOM refer to:
   * C. Plett, A. Katbashev, S. Ehlert, S. Grimme, M. Bursch,
     Phys. Chem. Chem. Phys., 2023, 25, 17860-17868. DOI: 10.1039/D3CP02178E
   
   for DIPRO refer to:
   * J. Kohn, N. Gildemeister, S. Grimme, D. Fazzi, A. Hansen,
     J. Chem. Phys., 2023, just accepted.
   
   for PTB refer to:
   * S. Grimme, M. Mueller, A. Hansen, J. Chem. Phys., 2023, 158, 124111.
     DOI: 10.1063/5.0137838
   
   with help from (in alphabetical order)
   P. Atkinson, C. Bannwarth, F. Bohle, G. Brandenburg, E. Caldeweyher
   M. Checinski, S. Dohm, S. Ehlert, S. Ehrlich, I. Gerasimov, C. Hölzer
   A. Katbashev, J. Kohn, J. Koopman, C. Lavigne, S. Lehtola, F. März, M. Müller,
   F. Musil, H. Neugebauer, J. Pisarek, C. Plett, P. Pracht, F. Pultar,
   J. Seibert, P. Shushkov, S. Spicher, M. Stahn, M. Steiner, T. Strunk,
   J. Stückrath, T. Rose, and J. Unsleber
   
 * started run on 2025/04/11 at 17:46:10.385     
   ID    Z sym.   atoms
    1    6 C      1-4, 7, 8
    2    8 O      5, 6
    3    1 H      9-20

           -------------------------------------------------
          |                Calculation Setup                |
           -------------------------------------------------

          program call               : /srv/scratch/z5358697/.xtb/bin/xtb xtb_rrho.coord --gfn2 --ohess vtight --chrg 0 --enso --norestart -I rrho-xcontrol-inp --parallel 1 --alpb water
          hostname                   : k061
          coordinate file            : xtb_rrho.coord
          omp threads                :                     1


           -------------------------------------------------
          |                 G F N 2 - x T B                 |
           -------------------------------------------------

        Reference                      10.1021/acs.jctc.8b01176
      * Hamiltonian:
        H0-scaling (s, p, d)           1.850000    2.230000    2.230000
        zeta-weighting                 0.500000
      * Dispersion:
        s8                             2.700000
        a1                             0.520000
        a2                             5.000000
        s9                             5.000000
      * Repulsion:
        kExp                           1.500000    1.000000
        rExp                           1.000000
      * Coulomb:
        alpha                          2.000000
        third order                    shell-resolved
        anisotropic                    true
        a3                             3.000000
        a5                             4.000000
        cn-shift                       1.200000
        cn-exp                         4.000000
        max-rad                        5.000000

      * Solvation model:               ALPB
        Solvent                        water
        Parameter file                 internal GFN2-xTB/ALPB
        Dielectric constant                8.0200E+01
        Reference state                gsolv [1 M gas/solution]
        Free energy shift                  1.0808E-03 Eh       6.7819E-01 kcal/mol
        Temperature                        2.9815E+02 K
        Density                            1.0000E+00 kg/L
        Solvent mass                       1.8000E+01 g/mol
        Interaction kernel             P16
        Born radius scaling (c1)           1.4744E+00
        Born radii integrator          GBOBC
        Born offset                        0.0000E+00 a0       0.0000E+00 AA
        H-bond correction              true
        Ion screening                  false
        Surface tension                    1.0000E-05 Eh       1.5569E+01 dyn/cm
        Grid points                               974 per atom

          ...................................................
          :                      SETUP                      :
          :.................................................:
          :  # basis functions                  44          :
          :  # atomic orbitals                  44          :
          :  # shells                           28          :
          :  # electrons                        48          :
          :  max. iterations                   250          :
          :  Hamiltonian                  GFN2-xTB          :
          :  restarted?                      false          :
          :  GBSA solvation                   true          :
          :  PC potential                    false          :
          :  electronic temp.          300.0000000     K    :
          :  accuracy                    1.0000000          :
          :  -> integral cutoff          0.2500000E+02      :
          :  -> integral neglect         0.1000000E-07      :
          :  -> SCF convergence          0.1000000E-05 Eh   :
          :  -> wf. convergence          0.1000000E-03 e    :
          :  Broyden damping             0.4000000          :
          :  net charge                          0          :
          :  unpaired electrons                  0          :
          ...................................................

 iter      E             dE          RMSdq      gap      omega  full diag
   1    -27.3588402 -0.273588E+02  0.389E+00    5.65       0.0  T
   2    -27.4211499 -0.623097E-01  0.192E+00    4.71       1.0  T
   3    -27.4231891 -0.203918E-02  0.101E+00    5.05       1.0  T
   4    -27.4247512 -0.156207E-02  0.167E-01    4.80       1.0  T
   5    -27.4249734 -0.222238E-03  0.692E-02    4.86       1.0  T
   6    -27.4249754 -0.192022E-05  0.237E-02    4.85       1.0  T
   7    -27.4249762 -0.878482E-06  0.417E-03    4.85       5.4  T
   8    -27.4249763 -0.293132E-07  0.241E-03    4.85       9.3  T
   9    -27.4249763 -0.932597E-08  0.382E-04    4.85      58.5  T
  10    -27.4249763 -0.383586E-09  0.207E-04    4.85     108.2  T

   *** convergence criteria satisfied after 10 iterations ***

         #    Occupation            Energy/Eh            Energy/eV
      -------------------------------------------------------------
         1        2.0000           -0.7446375             -20.2626
       ...           ...                  ...                  ...
        18        2.0000           -0.4726946             -12.8627
        19        2.0000           -0.4640764             -12.6282
        20        2.0000           -0.4502900             -12.2530
        21        2.0000           -0.4461574             -12.1406
        22        2.0000           -0.4394920             -11.9592
        23        2.0000           -0.4353200             -11.8457
        24        2.0000           -0.4207847             -11.4501 (HOMO)
        25                         -0.2423934              -6.5959 (LUMO)
        26                         -0.0281883              -0.7670
        27                          0.0871256               2.3708
        28                          0.1010904               2.7508
        29                          0.1225037               3.3335
       ...                                ...                  ...
        44                          0.5843222              15.9002
      -------------------------------------------------------------
                  HL-Gap            0.1783913 Eh            4.8543 eV
             Fermi-level           -0.3315890 Eh           -9.0230 eV

 SCC (total)                   0 d,  0 h,  0 min,  0.032 sec
 SCC setup                      ...        0 min,  0.002 sec (  4.866%)
 Dispersion                     ...        0 min,  0.000 sec (  0.425%)
 classical contributions        ...        0 min,  0.000 sec (  0.084%)
 integral evaluation            ...        0 min,  0.002 sec (  5.763%)
 iterations                     ...        0 min,  0.021 sec ( 64.872%)
 molecular gradient             ...        0 min,  0.008 sec ( 23.467%)
 printout                       ...        0 min,  0.000 sec (  0.465%)

         :::::::::::::::::::::::::::::::::::::::::::::::::::::
         ::                     SUMMARY                     ::
         :::::::::::::::::::::::::::::::::::::::::::::::::::::
         :: total energy             -27.120990735411 Eh    ::
         :: total w/o Gsasa/hb       -27.120964098495 Eh    ::
         :: gradient norm              0.035230915405 Eh/a0 ::
         :: HOMO-LUMO gap              4.854274394273 eV    ::
         ::.................................................::
         :: SCC energy               -27.424947465684 Eh    ::
         :: -> isotropic ES            0.059914018468 Eh    ::
         :: -> anisotropic ES          0.001239349464 Eh    ::
         :: -> anisotropic XC          0.008800368884 Eh    ::
         :: -> dispersion             -0.011404253948 Eh    ::
         :: -> Gsolv                  -0.009303589444 Eh    ::
         ::    -> Gelec               -0.009276952529 Eh    ::
         ::    -> Gsasa                0.001148829457 Eh    ::
         ::    -> Ghb                 -0.002256226070 Eh    ::
         ::    -> Gshift               0.001080759698 Eh    ::
         :: repulsion energy           0.303956730274 Eh    ::
         :: add. restraining           0.000000000000 Eh    ::
         :: total charge              -0.000000000000 e     ::
         :::::::::::::::::::::::::::::::::::::::::::::::::::::

      ----------------------------------------------------------- 
     |                   =====================                   |
     |                        A N C O P T                        |
     |                   =====================                   |
     |               Approximate Normal Coordinate               |
     |                Rational Function Optimizer                |
      ----------------------------------------------------------- 
      ----------------------------------------------------------- 
     |                   =====================                   |
     |                        A N C O P T                        |
     |                   =====================                   |
     |               Approximate Normal Coordinate               |
     |                Rational Function Optimizer                |
      ----------------------------------------------------------- 

          ...................................................
          :                      SETUP                      :
          :.................................................:
          :   optimization level         verytight          :
          :   max. optcycles                   400          :
          :   ANC micro-cycles                  20          :
          :   degrees of freedom                54          :
          :.................................................:
          :   RF solver                   davidson          :
          :   write xtbopt.log                true          :
          :   linear?                        false          :
          :   energy convergence         0.1000000E-06 Eh   :
          :   grad. convergence          0.2000000E-03 Eh/α :
          :   maxmium RF displ.          1.0000000          :
          :   Hlow (freq-cutoff)         0.1000000E-01      :
          :   Hmax (freq-cutoff)         5.0000000          :
          :   S6 in model hess.         20.0000000          :
          ...................................................

generating ANC from exact Hessian ...
Using Lindh-Hessian (1995)
 Shifting diagonal of input Hessian by   8.981284125389948E-003
 Lowest  eigenvalues of input Hessian
    0.000000    0.000000    0.000000    0.000000    0.000000    0.000000
    0.010000    0.010859    0.012665    0.015374    0.016372    0.018408
    0.022797    0.024980    0.033304    0.038426    0.048585    0.050713
 Highest eigenvalues
    1.191040    1.240071    1.267178    1.295282    1.733162    2.262349
 

........................................................................
.............................. CYCLE    1 ..............................
........................................................................

 iter      E             dE          RMSdq      gap      omega  full diag
   1    -27.4249763 -0.274250E+02  0.539E-05    4.85       0.0  T
   2    -27.4249763 -0.127969E-10  0.335E-05    4.85     668.2  T
   3    -27.4249763 -0.208189E-11  0.214E-05    4.85    1042.5  T
     SCC iter.                  ...        0 min,  0.002 sec
     gradient                   ...        0 min,  0.005 sec
 * total energy  :   -27.1209907 Eh     change       -0.9173817E-10 Eh
   gradient norm :     0.0352307 Eh/α   predicted     0.0000000E+00 (-100.00%)
   displ. norm   :     0.1043785 α      lambda       -0.1871677E-02
   maximum displ.:     0.0336877 α      in ANC's #10, #14, #17, ...

........................................................................
.............................. CYCLE    2 ..............................
........................................................................

 iter      E             dE          RMSdq      gap      omega  full diag
   1    -27.4357509 -0.274358E+02  0.101E-01    4.97       0.0  T
   2    -27.4357725 -0.216055E-04  0.590E-02    4.95       1.0  T
   3    -27.4357727 -0.127977E-06  0.233E-02    4.96       1.0  T
   4    -27.4357747 -0.198783E-05  0.361E-03    4.95       6.2  T
   5    -27.4357747 -0.508834E-07  0.166E-03    4.95      13.5  T
   6    -27.4357747 -0.325347E-08  0.444E-04    4.95      50.4  T
   7    -27.4357747 -0.199449E-09  0.180E-04    4.95     124.6  T
     SCC iter.                  ...        0 min,  0.003 sec
     gradient                   ...        0 min,  0.005 sec
 * total energy  :   -27.1221959 Eh     change       -0.1205154E-02 Eh
   gradient norm :     0.0132325 Eh/α   predicted    -0.9460371E-03 ( -21.50%)
   displ. norm   :     0.0804413 α      lambda       -0.3820447E-03
   maximum displ.:     0.0447499 α      in ANC's #5, #8, #10, ...

........................................................................
.............................. CYCLE    3 ..............................
........................................................................

 iter      E             dE          RMSdq      gap      omega  full diag
   1    -27.4397753 -0.274398E+02  0.474E-02    5.00       0.0  T
   2    -27.4397872 -0.119113E-04  0.275E-02    4.98       1.0  T
   3    -27.4397876 -0.393753E-06  0.139E-02    4.99       1.6  T
   4    -27.4397876 -0.807747E-07  0.337E-03    4.98       6.6  T
   5    -27.4397877 -0.831522E-07  0.920E-04    4.98      24.3  T
   6    -27.4397877 -0.125735E-08  0.306E-04    4.98      73.0  T
     SCC iter.                  ...        0 min,  0.003 sec
     gradient                   ...        0 min,  0.005 sec
 * total energy  :   -27.1224192 Eh     change       -0.2233026E-03 Eh
   gradient norm :     0.0041583 Eh/α   predicted    -0.1922982E-03 ( -13.88%)
   displ. norm   :     0.0459060 α      lambda       -0.5035645E-04
   maximum displ.:     0.0327613 α      in ANC's #5, #4, #7, ...

........................................................................
.............................. CYCLE    4 ..............................
........................................................................

 iter      E             dE          RMSdq      gap      omega  full diag
   1    -27.4396055 -0.274396E+02  0.191E-02    4.98       0.0  T
   2    -27.4396067 -0.124081E-05  0.112E-02    4.98       2.0  T
   3    -27.4396067 -0.348827E-07  0.450E-03    4.98       5.0  T
   4    -27.4396068 -0.670035E-08  0.563E-04    4.98      39.7  T
   5    -27.4396068 -0.104650E-08  0.358E-04    4.98      62.5  T
     SCC iter.                  ...        0 min,  0.002 sec
     gradient                   ...        0 min,  0.005 sec
 * total energy  :   -27.1224541 Eh     change       -0.3493645E-04 Eh
   gradient norm :     0.0016956 Eh/α   predicted    -0.2523440E-04 ( -27.77%)
   displ. norm   :     0.0755797 α      lambda       -0.2528611E-04
   maximum displ.:     0.0525635 α      in ANC's #5, #4, #6, ...

........................................................................
.............................. CYCLE    5 ..............................
........................................................................

 iter      E             dE          RMSdq      gap      omega  full diag
   1    -27.4386626 -0.274387E+02  0.263E-02    4.97       0.0  T
   2    -27.4386632 -0.549242E-06  0.156E-02    4.97       1.4  T
   3    -27.4386632 -0.152105E-07  0.277E-03    4.97       8.1  T
   4    -27.4386632 -0.303045E-07  0.858E-04    4.97      26.1  T
   5    -27.4386632 -0.495448E-08  0.477E-04    4.97      46.9  T
     SCC iter.                  ...        0 min,  0.002 sec
     gradient                   ...        0 min,  0.005 sec
 * total energy  :   -27.1224712 Eh     change       -0.1709360E-04 Eh
   gradient norm :     0.0021193 Eh/α   predicted    -0.1268973E-04 ( -25.76%)
   displ. norm   :     0.0121411 α      lambda       -0.5598554E-05
   maximum displ.:     0.0068033 α      in ANC's #4, #5, #6, ...

........................................................................
.............................. CYCLE    6 ..............................
........................................................................

 iter      E             dE          RMSdq      gap      omega  full diag
   1    -27.4387743 -0.274388E+02  0.789E-03    4.97       0.0  T
   2    -27.4387744 -0.976197E-07  0.459E-03    4.97       4.9  T
   3    -27.4387744 -0.265890E-08  0.117E-03    4.97      19.1  T
   4    -27.4387744 -0.806299E-09  0.144E-04    4.97     155.7  T
   5    -27.4387744 -0.325926E-10  0.852E-05    4.97     262.6  T
     SCC iter.                  ...        0 min,  0.002 sec
     gradient                   ...        0 min,  0.005 sec
 * total energy  :   -27.1224757 Eh     change       -0.4467219E-05 Eh
   gradient norm :     0.0012469 Eh/α   predicted    -0.2814566E-05 ( -37.00%)
   displ. norm   :     0.0459735 α      lambda       -0.7299122E-05
   maximum displ.:     0.0259670 α      in ANC's #4, #5, #6, ...

........................................................................
.............................. CYCLE    7 ..............................
........................................................................

 iter      E             dE          RMSdq      gap      omega  full diag
   1    -27.4391788 -0.274392E+02  0.254E-02    4.98       0.0  T
   2    -27.4391794 -0.549231E-06  0.148E-02    4.98       1.5  T
   3    -27.4391794 -0.249165E-07  0.246E-03    4.98       9.1  T
   4    -27.4391794 -0.774777E-08  0.512E-04    4.98      43.7  T
   5    -27.4391794 -0.493433E-09  0.313E-04    4.98      71.5  T
     SCC iter.                  ...        0 min,  0.002 sec
     gradient                   ...        0 min,  0.005 sec
 * total energy  :   -27.1224796 Eh     change       -0.3928264E-05 Eh
   gradient norm :     0.0011695 Eh/α   predicted    -0.3656025E-05 (  -6.93%)
   displ. norm   :     0.0106909 α      lambda       -0.1896321E-05
   maximum displ.:     0.0057235 α      in ANC's #3, #2, #5, ...

........................................................................
.............................. CYCLE    8 ..............................
........................................................................

 iter      E             dE          RMSdq      gap      omega  full diag
   1    -27.4391122 -0.274391E+02  0.689E-03    4.98       0.0  T
   2    -27.4391123 -0.714946E-07  0.402E-03    4.98       5.6  T
   3    -27.4391123 -0.184429E-08  0.103E-03    4.98      21.7  T
   4    -27.4391123 -0.751104E-09  0.157E-04    4.98     142.2  T
   5    -27.4391123 -0.125912E-09  0.884E-05    4.98     252.9  T
     SCC iter.                  ...        0 min,  0.002 sec
     gradient                   ...        0 min,  0.005 sec
 * total energy  :   -27.1224816 Eh     change       -0.1959946E-05 Eh
   gradient norm :     0.0005186 Eh/α   predicted    -0.9488839E-06 ( -51.59%)
   displ. norm   :     0.0256821 α      lambda       -0.2237490E-05
   maximum displ.:     0.0169169 α      in ANC's #3, #2, #9, ...

........................................................................
.............................. CYCLE    9 ..............................
........................................................................

 iter      E             dE          RMSdq      gap      omega  full diag
   1    -27.4390081 -0.274390E+02  0.131E-02    4.98       0.0  T
   2    -27.4390082 -0.112792E-06  0.765E-03    4.98       2.9  T
   3    -27.4390082 -0.753058E-08  0.110E-03    4.98      20.4  T
   4    -27.4390082 -0.160860E-08  0.282E-04    4.98      79.4  T
   5    -27.4390082 -0.451053E-10  0.117E-04    4.98     191.9  T
     SCC iter.                  ...        0 min,  0.002 sec
     gradient                   ...        0 min,  0.005 sec
 * total energy  :   -27.1224838 Eh     change       -0.2179812E-05 Eh
   gradient norm :     0.0004362 Eh/α   predicted    -0.1120069E-05 ( -48.62%)
   displ. norm   :     0.0251560 α      lambda        0.3967924E-06
   maximum displ.:     0.0165584 α      in ANC's #3, #2, #9, ...

........................................................................
.............................. CYCLE   10 ..............................
........................................................................

 iter      E             dE          RMSdq      gap      omega  full diag
   1    -27.4388849 -0.274389E+02  0.128E-02    4.97       0.0  T
   2    -27.4388850 -0.107918E-06  0.750E-03    4.97       3.0  T
   3    -27.4388850 -0.721283E-08  0.107E-03    4.97      20.9  T
   4    -27.4388850 -0.154703E-08  0.277E-04    4.97      80.9  T
   5    -27.4388850 -0.429772E-10  0.123E-04    4.97     181.8  T
     SCC iter.                  ...        0 min,  0.002 sec
     gradient                   ...        0 min,  0.005 sec
 * total energy  :   -27.1224835 Eh     change        0.2185323E-06 Eh
   gradient norm :     0.0012770 Eh/α   predicted     0.1982566E-06 (  -9.28%)
   displ. norm   :     0.0131526 α      lambda       -0.1906869E-05
   maximum displ.:     0.0071225 α      in ANC's #3, #6, #5, ...

........................................................................
.............................. CYCLE   11 ..............................
........................................................................

 iter      E             dE          RMSdq      gap      omega  full diag
   1    -27.4389511 -0.274390E+02  0.861E-03    4.97       0.0  T
   2    -27.4389511 -0.456492E-07  0.505E-03    4.97       4.4  T
   3    -27.4389511 -0.258337E-08  0.664E-04    4.97      33.7  T
   4    -27.4389511 -0.648114E-09  0.160E-04    4.97     139.6  T
     SCC iter.                  ...        0 min,  0.002 sec
     gradient                   ...        0 min,  0.005 sec
 * total energy  :   -27.1224855 Eh     change       -0.2002916E-05 Eh
   gradient norm :     0.0006433 Eh/α   predicted    -0.9583634E-06 ( -52.15%)
   displ. norm   :     0.0229852 α      lambda       -0.1222125E-05
   maximum displ.:     0.0151353 α      in ANC's #3, #6, #5, ...

........................................................................
.............................. CYCLE   12 ..............................
........................................................................

 iter      E             dE          RMSdq      gap      omega  full diag
   1    -27.4390544 -0.274391E+02  0.123E-02    4.98       0.0  T
   2    -27.4390545 -0.334475E-07  0.725E-03    4.98       3.1  T
   3    -27.4390545 -0.617551E-08  0.557E-04    4.98      40.2  T
   4    -27.4390545 -0.798398E-09  0.266E-04    4.98      84.0  T
     SCC iter.                  ...        0 min,  0.002 sec
     gradient                   ...        0 min,  0.005 sec
 * total energy  :   -27.1224868 Eh     change       -0.1262768E-05 Eh
   gradient norm :     0.0001491 Eh/α   predicted    -0.6161929E-06 ( -51.20%)
   displ. norm   :     0.0257547 α      lambda       -0.5895271E-06
   maximum displ.:     0.0164198 α      in ANC's #3, #5, #6, ...

........................................................................
.............................. CYCLE   13 ..............................
........................................................................

 iter      E             dE          RMSdq      gap      omega  full diag
   1    -27.4390383 -0.274390E+02  0.131E-02    4.98       0.0  T
   2    -27.4390383 -0.121164E-07  0.773E-03    4.98       2.9  T
   3    -27.4390383 -0.779036E-08  0.468E-04    4.98      47.8  T
   4    -27.4390383 -0.134619E-09  0.207E-04    4.98     107.8  T
     SCC iter.                  ...        0 min,  0.002 sec
     gradient                   ...        0 min,  0.005 sec
 * total energy  :   -27.1224875 Eh     change       -0.6825223E-06 Eh
   gradient norm :     0.0001933 Eh/α   predicted    -0.2963840E-06 ( -56.58%)
   displ. norm   :     0.0276860 α      lambda       -0.5122765E-06
   maximum displ.:     0.0166724 α      in ANC's #3, #5, #1, ...

........................................................................
.............................. CYCLE   14 ..............................
........................................................................

 iter      E             dE          RMSdq      gap      omega  full diag
   1    -27.4390575 -0.274391E+02  0.128E-02    4.98       0.0  T
   2    -27.4390575 -0.153642E-07  0.753E-03    4.98       3.0  T
   3    -27.4390575 -0.695560E-08  0.487E-04    4.98      45.9  T
   4    -27.4390575 -0.611845E-09  0.291E-04    4.98      76.9  T
     SCC iter.                  ...        0 min,  0.002 sec
     gradient                   ...        0 min,  0.005 sec
 * total energy  :   -27.1224881 Eh     change       -0.5856503E-06 Eh
   gradient norm :     0.0002009 Eh/α   predicted    -0.2573816E-06 ( -56.05%)
   displ. norm   :     0.0199300 α      lambda       -0.3607344E-06
   maximum displ.:     0.0112823 α      in ANC's #1, #3, #5, ...

........................................................................
.............................. CYCLE   15 ..............................
........................................................................

 iter      E             dE          RMSdq      gap      omega  full diag
   1    -27.4390508 -0.274391E+02  0.783E-03    4.98       0.0  T
   2    -27.4390508 -0.841013E-08  0.458E-03    4.97       4.9  T
   3    -27.4390508 -0.269367E-08  0.315E-04    4.97      71.0  T
   4    -27.4390508 -0.303029E-09  0.179E-04    4.97     125.0  T
     SCC iter.                  ...        0 min,  0.002 sec
     gradient                   ...        0 min,  0.005 sec
 * total energy  :   -27.1224885 Eh     change       -0.4733669E-06 Eh
   gradient norm :     0.0001501 Eh/α   predicted    -0.1817322E-06 ( -61.61%)
   displ. norm   :     0.0215003 α      lambda       -0.4323638E-06
   maximum displ.:     0.0142790 α      in ANC's #1, #5, #7, ...

........................................................................
.............................. CYCLE   16 ..............................
........................................................................

 iter      E             dE          RMSdq      gap      omega  full diag
   1    -27.4390515 -0.274391E+02  0.689E-03    4.97       0.0  T
   2    -27.4390516 -0.756295E-08  0.403E-03    4.97       5.6  T
   3    -27.4390516 -0.141939E-08  0.329E-04    4.97      67.9  T
   4    -27.4390516 -0.783015E-09  0.161E-04    4.97     139.1  T
     SCC iter.                  ...        0 min,  0.002 sec
     gradient                   ...        0 min,  0.005 sec
 * total energy  :   -27.1224891 Eh     change       -0.5702843E-06 Eh
   gradient norm :     0.0001021 Eh/α   predicted    -0.2184426E-06 ( -61.70%)
   displ. norm   :     0.0252618 α      lambda       -0.4533791E-06
   maximum displ.:     0.0174875 α      in ANC's #1, #2, #5, ...

........................................................................
.............................. CYCLE   17 ..............................
........................................................................

 iter      E             dE          RMSdq      gap      omega  full diag
   1    -27.4390305 -0.274390E+02  0.773E-03    4.97       0.0  T
   2    -27.4390305 -0.728955E-08  0.452E-03    4.97       4.9  T
   3    -27.4390305 -0.206434E-08  0.301E-04    4.97      74.4  T
   4    -27.4390305 -0.461185E-09  0.168E-04    4.97     133.3  T
     SCC iter.                  ...        0 min,  0.002 sec
     gradient                   ...        0 min,  0.004 sec
 * total energy  :   -27.1224897 Eh     change       -0.6083607E-06 Eh
   gradient norm :     0.0001182 Eh/α   predicted    -0.2290550E-06 ( -62.35%)
   displ. norm   :     0.0307818 α      lambda       -0.5179461E-06
   maximum displ.:     0.0218173 α      in ANC's #1, #2, #5, ...

........................................................................
.............................. CYCLE   18 ..............................
........................................................................

 iter      E             dE          RMSdq      gap      omega  full diag
   1    -27.4390320 -0.274390E+02  0.887E-03    4.97       0.0  T
   2    -27.4390320 -0.874370E-08  0.519E-03    4.97       4.3  T
   3    -27.4390320 -0.224275E-08  0.389E-04    4.97      57.5  T
   4    -27.4390320 -0.119625E-08  0.198E-04    4.97     113.0  T
     SCC iter.                  ...        0 min,  0.001 sec
     gradient                   ...        0 min,  0.004 sec
 * total energy  :   -27.1224904 Eh     change       -0.7081512E-06 Eh
   gradient norm :     0.0001596 Eh/α   predicted    -0.2625217E-06 ( -62.93%)
   displ. norm   :     0.0419496 α      lambda       -0.7336070E-06
   maximum displ.:     0.0297193 α      in ANC's #1, #2, #9, ...

........................................................................
.............................. CYCLE   19 ..............................
........................................................................

 iter      E             dE          RMSdq      gap      omega  full diag
   1    -27.4390211 -0.274390E+02  0.123E-02    4.97       0.0  T
   2    -27.4390211 -0.153664E-07  0.720E-03    4.97       3.1  T
   3    -27.4390212 -0.493862E-08  0.498E-04    4.97      44.9  T
   4    -27.4390212 -0.164709E-08  0.274E-04    4.97      81.7  T
     SCC iter.                  ...        0 min,  0.002 sec
     gradient                   ...        0 min,  0.005 sec
 * total energy  :   -27.1224914 Eh     change       -0.9944293E-06 Eh
   gradient norm :     0.0002099 Eh/α   predicted    -0.3705338E-06 ( -62.74%)
   displ. norm   :     0.0824748 α      lambda       -0.1404508E-05
   maximum displ.:     0.0581722 α      in ANC's #1, #2, #6, ...

........................................................................
.............................. CYCLE   20 ..............................
........................................................................

 iter      E             dE          RMSdq      gap      omega  full diag
   1    -27.4389642 -0.274390E+02  0.249E-02    4.97       0.0  T
   2    -27.4389643 -0.593941E-07  0.146E-02    4.97       1.5  T
   3    -27.4389643 -0.228874E-07  0.942E-04    4.97      23.7  T
   4    -27.4389643 -0.432970E-08  0.551E-04    4.97      40.6  T
     SCC iter.                  ...        0 min,  0.002 sec
     gradient                   ...        0 min,  0.005 sec
 * total energy  :   -27.1224932 Eh     change       -0.1798018E-05 Eh
   gradient norm :     0.0003493 Eh/α   predicted    -0.7059126E-06 ( -60.74%)
   displ. norm   :     0.1240041 α      lambda       -0.1799841E-05
   maximum displ.:     0.0877735 α      in ANC's #1, #2, #6, ...
 * RMSD in coord.:     0.1208301 α      energy gain  -0.1502490E-02 Eh

generating ANC from exact Hessian ...
Using Lindh-Hessian (1995)
 Shifting diagonal of input Hessian by   8.894578022384329E-003
 Lowest  eigenvalues of input Hessian
    0.000000    0.000000    0.000000    0.000000    0.000000    0.000000
    0.010000    0.010899    0.012623    0.015871    0.016574    0.018910
    0.023523    0.025445    0.034616    0.040461    0.049838    0.052355
 Highest eigenvalues
    1.217856    1.255832    1.282490    1.298365    1.813811    2.328502
 

........................................................................
.............................. CYCLE   21 ..............................
........................................................................

 iter      E             dE          RMSdq      gap      omega  full diag
   1    -27.4388891 -0.274389E+02  0.375E-02    4.97       0.0  T
   2    -27.4388893 -0.129145E-06  0.219E-02    4.96       1.0  T
   3    -27.4388893 -0.520065E-07  0.146E-03    4.97      15.3  T
   4    -27.4388893 -0.115390E-07  0.853E-04    4.97      26.2  T
   5    -27.4388893 -0.820485E-09  0.274E-04    4.97      81.5  T
     SCC iter.                  ...        0 min,  0.002 sec
     gradient                   ...        0 min,  0.005 sec
 * total energy  :   -27.1224953 Eh     change       -0.2112521E-05 Eh
   gradient norm :     0.0004583 Eh/α   predicted     0.0000000E+00 (-100.00%)
   displ. norm   :     0.0063621 α      lambda       -0.6097924E-06
   maximum displ.:     0.0031059 α      in ANC's #6, #4, #5, ...

........................................................................
.............................. CYCLE   22 ..............................
........................................................................

 iter      E             dE          RMSdq      gap      omega  full diag
   1    -27.4390842 -0.274391E+02  0.353E-03    4.97       0.0  T
   2    -27.4390843 -0.796216E-08  0.208E-03    4.97      10.7  T
   3    -27.4390842  0.113569E-08  0.556E-04    4.97      40.2  T
   4    -27.4390843 -0.256935E-08  0.960E-05    4.97     232.9  T
     SCC iter.                  ...        0 min,  0.002 sec
     gradient                   ...        0 min,  0.005 sec
 * total energy  :   -27.1224960 Eh     change       -0.6139420E-06 Eh
   gradient norm :     0.0001786 Eh/α   predicted    -0.3088946E-06 ( -49.69%)
   displ. norm   :     0.0115758 α      lambda       -0.5223223E-06
   maximum displ.:     0.0059754 α      in ANC's #4, #6, #5, ...

........................................................................
.............................. CYCLE   23 ..............................
........................................................................

 iter      E             dE          RMSdq      gap      omega  full diag
   1    -27.4391370 -0.274391E+02  0.531E-03    4.97       0.0  T
   2    -27.4391370 -0.385698E-08  0.313E-03    4.97       7.1  T
   3    -27.4391370 -0.527621E-09  0.274E-04    4.97      81.6  T
   4    -27.4391370 -0.607365E-09  0.127E-04    4.97     176.3  T
     SCC iter.                  ...        0 min,  0.002 sec
     gradient                   ...        0 min,  0.005 sec
 * total energy  :   -27.1224965 Eh     change       -0.5820925E-06 Eh
   gradient norm :     0.0002956 Eh/α   predicted    -0.2615288E-06 ( -55.07%)
   displ. norm   :     0.0172680 α      lambda       -0.5352414E-06
   maximum displ.:     0.0095072 α      in ANC's #4, #6, #5, ...

........................................................................
.............................. CYCLE   24 ..............................
........................................................................

 iter      E             dE          RMSdq      gap      omega  full diag
   1    -27.4390694 -0.274391E+02  0.749E-03    4.97       0.0  T
   2    -27.4390694 -0.654866E-08  0.443E-03    4.97       5.0  T
   3    -27.4390694 -0.172297E-08  0.318E-04    4.97      70.4  T
   4    -27.4390694 -0.421263E-09  0.167E-04    4.97     133.5  T
     SCC iter.                  ...        0 min,  0.002 sec
     gradient                   ...        0 min,  0.005 sec
 * total energy  :   -27.1224970 Eh     change       -0.4422126E-06 Eh
   gradient norm :     0.0001966 Eh/α   predicted    -0.2684173E-06 ( -39.30%)
   displ. norm   :     0.0159753 α      lambda        0.4050450E-06
   maximum displ.:     0.0087788 α      in ANC's #4, #6, #5, ...

........................................................................
.............................. CYCLE   25 ..............................
........................................................................

 iter      E             dE          RMSdq      gap      omega  full diag
   1    -27.4389967 -0.274390E+02  0.695E-03    4.97       0.0  T
   2    -27.4389967 -0.626873E-08  0.411E-03    4.97       5.4  T
   3    -27.4389967 -0.138217E-08  0.317E-04    4.97      70.5  T
   4    -27.4389967 -0.531330E-09  0.161E-04    4.97     139.0  T
     SCC iter.                  ...        0 min,  0.002 sec
     gradient                   ...        0 min,  0.004 sec
 * total energy  :   -27.1224967 Eh     change        0.2964973E-06 Eh
   gradient norm :     0.0003436 Eh/α   predicted     0.2008379E-06 ( -32.26%)
   displ. norm   :     0.0115770 α      lambda       -0.5326511E-06
   maximum displ.:     0.0059441 α      in ANC's #4, #6, #5, ...

........................................................................
.............................. CYCLE   26 ..............................
........................................................................

 iter      E             dE          RMSdq      gap      omega  full diag
   1    -27.4390402 -0.274390E+02  0.540E-03    4.97       0.0  T
   2    -27.4390402 -0.562774E-08  0.319E-03    4.97       7.0  T
   3    -27.4390402 -0.801904E-09  0.243E-04    4.97      92.1  T
   4    -27.4390402 -0.184208E-09  0.109E-04    4.97     205.8  T
     SCC iter.                  ...        0 min,  0.002 sec
     gradient                   ...        0 min,  0.005 sec
 * total energy  :   -27.1224971 Eh     change       -0.3942935E-06 Eh
   gradient norm :     0.0000829 Eh/α   predicted    -0.2668392E-06 ( -32.32%)
   displ. norm   :     0.0037570 α      lambda       -0.6147400E-07
   maximum displ.:     0.0021204 α      in ANC's #1, #5, #6, ...

........................................................................
.............................. CYCLE   27 ..............................
........................................................................

 iter      E             dE          RMSdq      gap      omega  full diag
   1    -27.4390454 -0.274390E+02  0.143E-03    4.97       0.0  T
   2    -27.4390454 -0.426482E-09  0.852E-04    4.97      26.3  T
   3    -27.4390454 -0.393499E-10  0.683E-05    4.97     327.4  T
     SCC iter.                  ...        0 min,  0.001 sec
     gradient                   ...        0 min,  0.005 sec
 * total energy  :   -27.1224971 Eh     change       -0.5643704E-07 Eh
   gradient norm :     0.0000456 Eh/α   predicted    -0.3124507E-07 ( -44.64%)
   displ. norm   :     0.0025795 α      lambda       -0.2433792E-07
   maximum displ.:     0.0021244 α      in ANC's #1, #5, #2, ...

   *** GEOMETRY OPTIMIZATION CONVERGED AFTER 27 ITERATIONS ***

------------------------------------------------------------------------
 total energy gain   :        -0.0015064 Eh       -0.9453 kcal/mol
 total RMSD          :         0.1229962 a0        0.0651 Å
 total power (kW/mol):        -0.1464829 (step)  -14.0297 (real)
------------------------------------------------------------------------

 ANCopt (total)                0 d,  0 h,  0 min,  0.282 sec
 optimizer setup                ...        0 min,  0.000 sec (  0.143%)
 model hessian                  ...        0 min,  0.008 sec (  2.971%)
 ANC generation                 ...        0 min,  0.001 sec (  0.298%)
 coordinate transformation      ...        0 min,  0.000 sec (  0.054%)
 single point calculation       ...        0 min,  0.262 sec ( 92.822%)
 optimization log               ...        0 min,  0.008 sec (  2.824%)
 hessian update                 ...        0 min,  0.000 sec (  0.061%)
 rational function              ...        0 min,  0.001 sec (  0.415%)

================
 final structure:
================
$coord
       -4.68325115598817       -1.94424014413342        1.73270304589292      C
       -4.83561029848994        0.14300942144256       -0.24546087953520      C
       -2.45210686632857        0.23166751132603       -1.88421096253436      C
       -0.18900653242343        1.04344747560157       -0.35777328513381      C
       -0.11372381300113        2.87978347495205        1.01626523363799      O
        1.76081682563419       -0.49238400332362       -0.69646167429503      O
        4.07191044653937        0.07836911055694        0.61310825025094      C
        6.08234653790996       -1.75854132709394       -0.27784110852433      C
       -6.40652127523990       -2.00142380900216        2.84796157246704      H
       -4.42209702758266       -3.77390818806621        0.83470987088704      H
       -3.10144707407393       -1.61056277889585        3.00464526455600      H
       -5.05986211676447        1.96834921612242        0.68899086432786      H
       -6.46891279969690       -0.17162203071434       -1.46096410374204      H
       -2.70381112023287        1.62178010707654       -3.38743336325767      H
       -2.05316305030473       -1.60582571235734       -2.72210891647352      H
        4.58459786816950        2.04203811348760        0.20924368044668      H
        3.72618928664986       -0.09007482556180        2.64636227678455      H
        5.49993781837608       -3.68464600498239        0.12422113857111      H
        6.36778471943334       -1.56182303578885       -2.30051197877858      H
        7.84234172397468       -1.36402652519004        0.69693598329272      H
$end
 
 Bond Distances (Angstroems)
 ---------------------------
C1-C2=1.5239         C1-H9=1.0866         C1-H10=1.0874        C1-H11=1.0885        C2-C1=1.5239         C2-C3=1.5314         
C2-H12=1.0916        C2-H13=1.0902        C3-C2=1.5314         C3-C4=1.5071         C3-H14=1.0916        C3-H15=1.0893        
C4-C3=1.5071         C4-O5=1.2143         C4-O6=1.3256         O5-C4=1.2143         O6-C4=1.3256         O6-C7=1.4378         
C7-O6=1.4378         C7-C8=1.5162         C7-H16=1.0950        C7-H17=1.0950        C8-C7=1.5162         C8-H18=1.0859        
C8-H19=1.0860        C8-H20=1.0849        H9-C1=1.0866         H10-C1=1.0874        H11-C1=1.0885        H12-C2=1.0916        
H13-C2=1.0902        H14-C3=1.0916        H15-C3=1.0893        H16-C7=1.0950        H17-C7=1.0950        H18-C8=1.0859        
H19-C8=1.0860        H20-C8=1.0849        
 C  H  Rav=1.0893 sigma=0.0033  Rmin=1.0849  Rmax=1.0950    12
 C  C  Rav=1.5196 sigma=0.0090  Rmin=1.5071  Rmax=1.5314     4
 O  C  Rav=1.3259 sigma=0.0912  Rmin=1.2143  Rmax=1.4378     3
 
 selected bond angles (degree)
 --------------------
H9-C1-C2=110.42                H10-C1-C2=110.60               H10-C1-H9=108.62               H11-C1-C2=110.36               
H11-C1-H9=108.30               H11-C1-H10=108.48              C3-C2-C1=111.57                H12-C2-C1=109.63               
H12-C2-C3=108.60               H13-C2-C1=109.67               H13-C2-C3=108.88               H13-C2-H12=108.43              
C4-C3-C2=111.08                H14-C3-C2=109.44               H14-C3-C4=107.18               H15-C3-C2=111.27               
H15-C3-C4=108.58               H15-C3-H14=109.18              O5-C4-C3=125.11                O6-C4-C3=111.80                
O6-C4-O5=123.10                C7-O6-C4=117.91                C8-C7-O6=108.20                H16-C7-O6=108.42               
H16-C7-C8=111.95               H17-C7-O6=108.32               H17-C7-C8=111.75               H17-C7-H16=108.08              
H18-C8-C7=109.98               H19-C8-C7=110.04               H19-C8-H18=108.82              H20-C8-C7=109.34               
H20-C8-H18=109.34              H20-C8-H19=109.32              
 
 selected dihedral angles (degree)
 ---------------------------------
C3-C2-C1-H9=181.20            C3-C2-C1-H10=301.46           C3-C2-C1-H11= 61.50           H12-C2-C1-H9= 60.86           
H12-C2-C1-H10=181.12          H12-C2-C1-H11=301.16          H13-C2-C1-H9=301.92           H13-C2-C1-H10= 62.17          
H13-C2-C1-H11=182.21          C4-C3-C2-C1=292.77            C4-C3-C2-H12= 53.71           C4-C3-C2-H13=171.60           
H14-C3-C2-C1=174.62           H14-C3-C2-H12=295.56          H14-C3-C2-H13= 53.44          H15-C3-C2-C1= 53.87           
H15-C3-C2-H12=174.81          H15-C3-C2-H13=292.70          O5-C4-C3-C2=310.37            O5-C4-C3-H14= 69.88           
O5-C4-C3-H15=187.70           O6-C4-C3-C2=130.73            O6-C4-C3-H14=250.24           O6-C4-C3-H15=  8.06           
C7-O6-C4-C3=178.94            C7-O6-C4-O5=359.29            C8-C7-O6-C4=185.89            H16-C7-O6-C4=307.51           
H17-C7-O6-C4= 64.57           H18-C8-C7-O6=300.33           H18-C8-C7-H16=180.91          H18-C8-C7-H17= 59.51          
H19-C8-C7-O6= 60.19           H19-C8-C7-H16=300.78          H19-C8-C7-H17=179.37          H20-C8-C7-O6=180.27           
H20-C8-C7-H16= 60.85          H20-C8-C7-H17=299.44          
           -------------------------------------------------
          |                Final Singlepoint                |
           -------------------------------------------------

          ...................................................
          :                      SETUP                      :
          :.................................................:
          :  # basis functions                  44          :
          :  # atomic orbitals                  44          :
          :  # shells                           28          :
          :  # electrons                        48          :
          :  max. iterations                   250          :
          :  Hamiltonian                  GFN2-xTB          :
          :  restarted?                      false          :
          :  GBSA solvation                   true          :
          :  PC potential                    false          :
          :  electronic temp.          300.0000000     K    :
          :  accuracy                    1.0000000          :
          :  -> integral cutoff          0.2500000E+02      :
          :  -> integral neglect         0.1000000E-07      :
          :  -> SCF convergence          0.1000000E-05 Eh   :
          :  -> wf. convergence          0.1000000E-03 e    :
          :  Broyden damping             0.4000000          :
          :  net charge                          0          :
          :  unpaired electrons                  0          :
          ...................................................

 iter      E             dE          RMSdq      gap      omega  full diag
   1    -27.4390454 -0.274390E+02  0.274E-05    4.97       0.0  T
   2    -27.4390454 -0.176925E-11  0.165E-05    4.97    1352.7  T
   3    -27.4390454 -0.177636E-12  0.859E-06    4.97    2602.0  T

   *** convergence criteria satisfied after 3 iterations ***

         #    Occupation            Energy/Eh            Energy/eV
      -------------------------------------------------------------
         1        2.0000           -0.7499774             -20.4079
       ...           ...                  ...                  ...
        18        2.0000           -0.4726328             -12.8610
        19        2.0000           -0.4639838             -12.6256
        20        2.0000           -0.4488033             -12.2126
        21        2.0000           -0.4464065             -12.1473
        22        2.0000           -0.4388645             -11.9421
        23        2.0000           -0.4366198             -11.8810
        24        2.0000           -0.4202320             -11.4351 (HOMO)
        25                         -0.2377097              -6.4684 (LUMO)
        26                         -0.0051474              -0.1401
        27                          0.0965077               2.6261
        28                          0.1053973               2.8680
        29                          0.1264541               3.4410
       ...                                ...                  ...
        44                          0.6138773              16.7045
      -------------------------------------------------------------
                  HL-Gap            0.1825223 Eh            4.9667 eV
             Fermi-level           -0.3289709 Eh           -8.9518 eV

 SCC (total)                   0 d,  0 h,  0 min,  0.010 sec
 SCC setup                      ...        0 min,  0.001 sec ( 13.447%)
 Dispersion                     ...        0 min,  0.000 sec (  0.666%)
 classical contributions        ...        0 min,  0.000 sec (  0.215%)
 integral evaluation            ...        0 min,  0.002 sec ( 17.887%)
 iterations                     ...        0 min,  0.001 sec ( 14.513%)
 molecular gradient             ...        0 min,  0.005 sec ( 51.924%)
 printout                       ...        0 min,  0.000 sec (  1.187%)

         :::::::::::::::::::::::::::::::::::::::::::::::::::::
         ::                     SUMMARY                     ::
         :::::::::::::::::::::::::::::::::::::::::::::::::::::
         :: total energy             -27.122497130000 Eh    ::
         :: total w/o Gsasa/hb       -27.122437632738 Eh    ::
         :: gradient norm              0.000045501524 Eh/a0 ::
         :: HOMO-LUMO gap              4.966683744978 eV    ::
         ::.................................................::
         :: SCC energy               -27.439012677625 Eh    ::
         :: -> isotropic ES            0.059355670715 Eh    ::
         :: -> anisotropic ES          0.000751430950 Eh    ::
         :: -> anisotropic XC          0.008126326239 Eh    ::
         :: -> dispersion             -0.011488880871 Eh    ::
         :: -> Gsolv                  -0.009240862377 Eh    ::
         ::    -> Gelec               -0.009181365115 Eh    ::
         ::    -> Gsasa                0.001111567612 Eh    ::
         ::    -> Ghb                 -0.002251824573 Eh    ::
         ::    -> Gshift               0.001080759698 Eh    ::
         :: repulsion energy           0.316515547625 Eh    ::
         :: add. restraining           0.000000000000 Eh    ::
         :: total charge               0.000000000000 e     ::
         :::::::::::::::::::::::::::::::::::::::::::::::::::::

           ------------------------------------------------- 
          |                Numerical Hessian                |
           ------------------------------------------------- 
step length          :   0.00500
SCC accuracy         :   0.30000
Hessian scale factor :   1.00000
frozen atoms in %    :   0.00000    0
RMS gradient         :   0.00005
estimated CPU  time      0.02 min
estimated wall time      0.02 min

writing file <hessian>.

 projected vibrational frequencies (cm⁻¹)
eigval :       -0.00    -0.00    -0.00     0.00     0.00     0.00
eigval :        6.59    19.59    80.63   126.72   162.98   196.92
eigval :      229.45   265.56   342.93   380.40   425.10   586.71
eigval :      684.41   816.37   821.16   882.75   911.12   921.12
eigval :      969.20  1061.33  1070.61  1082.30  1117.30  1124.01
eigval :     1137.14  1165.71  1198.43  1233.71  1247.05  1307.41
eigval :     1323.43  1335.86  1395.62  1411.28  1428.98  1462.93
eigval :     1466.22  1475.42  1481.16  1495.48  1502.35  1695.19
eigval :     2925.30  2947.42  2977.35  2983.96  2997.41  3011.97
eigval :     3021.94  3035.06  3045.82  3055.78  3058.79  3064.87
           -------------------------------------------------
          |                Property Printout                |
           -------------------------------------------------

    * Orbital Energies and Occupations

         #    Occupation            Energy/Eh            Energy/eV
      -------------------------------------------------------------
         1        2.0000           -0.7499775             -20.4079
       ...           ...                  ...                  ...
        12        2.0000           -0.5291757             -14.3996
        13        2.0000           -0.5109616             -13.9040
        14        2.0000           -0.5014307             -13.6446
        15        2.0000           -0.4914944             -13.3742
        16        2.0000           -0.4836385             -13.1605
        17        2.0000           -0.4751900             -12.9306
        18        2.0000           -0.4726328             -12.8610
        19        2.0000           -0.4639838             -12.6256
        20        2.0000           -0.4488033             -12.2126
        21        2.0000           -0.4464065             -12.1473
        22        2.0000           -0.4388645             -11.9421
        23        2.0000           -0.4366197             -11.8810
        24        2.0000           -0.4202320             -11.4351 (HOMO)
        25                         -0.2377098              -6.4684 (LUMO)
        26                         -0.0051474              -0.1401
        27                          0.0965078               2.6261
        28                          0.1053973               2.8680
        29                          0.1264541               3.4410
        30                          0.1301927               3.5427
        31                          0.1490049               4.0546
        32                          0.1525169               4.1502
        33                          0.1540006               4.1906
        34                          0.1603700               4.3639
        35                          0.1810455               4.9265
       ...                                ...                  ...
        44                          0.6138772              16.7044
      -------------------------------------------------------------
                  HL-Gap            0.1825222 Eh            4.9667 eV
             Fermi-level           -0.3289709 Eh           -8.9518 eV

     #   Z          covCN         q      C6AA      α(0)
     1   6 C        3.752    -0.112    22.710     6.796
     2   6 C        3.802    -0.057    21.601     6.617
     3   6 C        3.804    -0.102    22.433     6.743
     4   6 C        2.715     0.365    20.802     7.466
     5   8 O        0.856    -0.491    23.591     6.512
     6   8 O        1.704    -0.270    18.485     5.805
     7   6 C        3.695     0.079    19.435     6.307
     8   6 C        3.752    -0.134    23.138     6.860
     9   1 H        0.925     0.049     2.336     2.390
    10   1 H        0.925     0.049     2.332     2.388
    11   1 H        0.925     0.027     2.626     2.534
    12   1 H        0.924     0.047     2.356     2.400
    13   1 H        0.925     0.058     2.224     2.332
    14   1 H        0.924     0.088     1.901     2.156
    15   1 H        0.925     0.080     1.976     2.198
    16   1 H        0.924     0.055     2.262     2.352
    17   1 H        0.924     0.055     2.255     2.348
    18   1 H        0.925     0.072     2.067     2.248
    19   1 H        0.925     0.070     2.086     2.259
    20   1 H        0.925     0.073     2.052     2.240

 Mol. C6AA /au·bohr⁶  :       2998.014937
 Mol. C8AA /au·bohr⁸  :      63841.811960
 Mol. α(0) /au        :         80.951811


Wiberg/Mayer (AO) data.
largest (>0.10) Wiberg bond orders for each atom

 ---------------------------------------------------------------------------
     #   Z sym  total        # sym  WBO       # sym  WBO       # sym  WBO
 ---------------------------------------------------------------------------
     1   6 C    3.996 --     2 C    1.021    11 H    0.988    10 H    0.986
                             9 H    0.986
     2   6 C    3.992 --     1 C    1.021     3 C    0.991    12 H    0.977
                            13 H    0.976
     3   6 C    3.988 --     2 C    0.991     4 C    0.979    15 H    0.971
                            14 H    0.944
     4   6 C    3.902 --     5 O    1.691     6 O    1.169     3 C    0.979
     5   8 O    1.969 --     4 C    1.691     6 O    0.171
     6   8 O    2.317 --     4 C    1.169     7 C    0.919     5 O    0.171
     7   6 C    3.914 --     8 C    1.020    16 H    0.969    17 H    0.969
                             6 O    0.919
     8   6 C    3.985 --     7 C    1.020    19 H    0.984    18 H    0.983
                            20 H    0.980
     9   1 H    0.998 --     1 C    0.986
    10   1 H    0.998 --     1 C    0.986
    11   1 H    0.999 --     1 C    0.988
    12   1 H    0.998 --     2 C    0.977
    13   1 H    0.996 --     2 C    0.976
    14   1 H    0.992 --     3 C    0.944
    15   1 H    0.994 --     3 C    0.971
    16   1 H    0.997 --     7 C    0.969
    17   1 H    0.997 --     7 C    0.969
    18   1 H    0.995 --     8 C    0.983
    19   1 H    0.995 --     8 C    0.984
    20   1 H    0.994 --     8 C    0.980
 ---------------------------------------------------------------------------

Topologies differ in total number of bonds
Writing topology from bond orders to xtbtopo.mol

molecular dipole:
                 x           y           z       tot (Debye)
 q only:        0.309      -1.068      -0.595
   full:        0.316      -1.000      -0.593       3.061
molecular quadrupole (traceless):
                xx          xy          yy          xz          yz          zz
 q only:       10.120      -0.793      -7.637       2.317      -2.641      -2.482
  q+dip:        7.873       0.315      -6.985       2.401      -3.495      -0.888
   full:        8.297       0.275      -7.386       2.217      -3.946      -0.911

           -------------------------------------------------
          |                Geometry Summary                 |
           -------------------------------------------------

      molecular mass/u    :      116.1585142
   center of mass at/Å    :        0.0002277       0.0063088       0.0057852
  moments of inertia/u·Å² :        0.1245330E+03   0.5025952E+03   0.5366372E+03
rotational constants/cm⁻¹ :        0.1353667E+00   0.3354117E-01   0.3141346E-01

 * 18 selected distances

     #   Z          #   Z                                           value/Å
     1   6 C        2   6 C                                       1.5238979
     2   6 C        3   6 C                                       1.5313672 (max)
     4   6 C        5   8 O                                       1.2143182
     4   6 C        6   8 O                                       1.3256180
     6   8 O        7   6 C                                       1.4377549
     7   6 C        8   6 C                                       1.5162461
     1   6 C        9   1 H                                       1.0866487
     1   6 C       10   1 H                                       1.0873631
     1   6 C       11   1 H                                       1.0885218
     2   6 C       12   1 H                                       1.0916138
     2   6 C       13   1 H                                       1.0901717
     3   6 C       14   1 H                                       1.0916256
     3   6 C       15   1 H                                       1.0893356
     7   6 C       16   1 H                                       1.0950199
     7   6 C       17   1 H                                       1.0950285
     8   6 C       18   1 H                                       1.0858755
     8   6 C       19   1 H                                       1.0859577
     8   6 C       20   1 H                                       1.0849315 (min)

 * 3 distinct bonds (by element types)

   Z      Z             #   av. dist./Å        max./Å        min./Å
   1 H    6 C          12     1.0893411     1.0950285     1.0849315
   6 C    6 C           3     1.5238370     1.5313672     1.5162461
   6 C    8 O           3     1.3258970     1.4377549     1.2143182

           -------------------------------------------------
          |               Frequency Printout                |
           -------------------------------------------------
 projected vibrational frequencies (cm⁻¹)
eigval :       -0.00    -0.00    -0.00     0.00     0.00     0.00
eigval :        6.59    19.59    80.63   126.72   162.98   196.92
eigval :      229.45   265.56   342.93   380.40   425.10   586.71
eigval :      684.41   816.37   821.16   882.75   911.12   921.12
eigval :      969.20  1061.33  1070.61  1082.30  1117.30  1124.01
eigval :     1137.14  1165.71  1198.43  1233.71  1247.05  1307.41
eigval :     1323.43  1335.86  1395.62  1411.28  1428.98  1462.93
eigval :     1466.22  1475.42  1481.16  1495.48  1502.35  1695.19
eigval :     2925.30  2947.42  2977.35  2983.96  2997.41  3011.97
eigval :     3021.94  3035.06  3045.82  3055.78  3058.79  3064.87
 reduced masses (amu)
   1: 10.43   2: 11.66   3: 11.05   4: 11.40   5: 11.41   6: 10.93   7:  8.77   8: 11.20
   9:  8.61  10:  7.95  11:  7.16  12:  6.24  13:  6.55  14:  6.46  15: 10.76  16:  7.81
  17: 10.34  18: 10.84  19: 10.19  20:  3.75  21:  3.05  22:  7.91  23:  8.01  24:  7.57
  25:  8.99  26:  6.72  27:  8.28  28:  4.39  29:  8.29  30:  8.57  31:  5.17  32:  8.93
  33:  7.19  34:  2.26  35:  3.43  36:  4.45  37:  4.45  38:  4.70  39:  3.35  40:  3.17
  41:  2.04  42:  1.52  43:  1.88  44:  1.94  45:  1.57  46:  1.55  47:  1.56  48: 13.33
  49:  1.98  50:  1.46  51:  1.75  52:  1.93  53:  1.53  54:  1.75  55:  1.87  56:  1.79
  57:  1.49  58:  1.94  59:  1.40  60:  1.83
 IR intensities (km·mol⁻¹)
   1:  0.54   2:  0.67   3:  1.36   4:  0.67   5:  0.06   6:  0.37   7:  0.33   8:  3.54
   9:  0.77  10:  2.22  11:  4.74  12:  4.94  13:  1.90  14:  4.63  15: 13.44  16:  2.53
  17:  2.28  18: 15.97  19: 11.76  20: 18.10  21:  3.83  22: 20.26  23:  6.27  24:  0.37
  25:  3.98  26: 21.13  27: 75.99  28:  4.24  29: 13.73  30: 52.51  31: 21.60  32:318.12
  33:161.37  34:  2.47  35: 15.23  36: 68.07  37: 20.92  38: 12.96  39:  7.53  40:  1.81
  41:  6.59  42:  4.98  43:  0.51  44:  1.20  45:  4.01  46:  2.90  47:  0.55  48:617.98
  49: 41.13  50: 38.56  51:  9.09  52: 30.93  53: 41.62  54: 25.57  55: 95.88  56: 65.54
  57: 40.77  58: 30.03  59: 19.36  60: 23.66
 Raman intensities (Ä⁴*amu⁻¹)
   1:  0.00   2:  0.00   3:  0.00   4:  0.00   5:  0.00   6:  0.00   7:  0.00   8:  0.00
   9:  0.00  10:  0.00  11:  0.00  12:  0.00  13:  0.00  14:  0.00  15:  0.00  16:  0.00
  17:  0.00  18:  0.00  19:  0.00  20:  0.00  21:  0.00  22:  0.00  23:  0.00  24:  0.00
  25:  0.00  26:  0.00  27:  0.00  28:  0.00  29:  0.00  30:  0.00  31:  0.00  32:  0.00
  33:  0.00  34:  0.00  35:  0.00  36:  0.00  37:  0.00  38:  0.00  39:  0.00  40:  0.00
  41:  0.00  42:  0.00  43:  0.00  44:  0.00  45:  0.00  46:  0.00  47:  0.00  48:  0.00
  49:  0.00  50:  0.00  51:  0.00  52:  0.00  53:  0.00  54:  0.00  55:  0.00  56:  0.00
  57:  0.00  58:  0.00  59:  0.00  60:  0.00
 output can be read by thermo (or use thermo option).
 writing <g98.out> molden fake output.
 recommended (thermochemical) frequency scaling factor: 1.0
           -------------------------------------------------
          |             Thermodynamic Functions             |
           -------------------------------------------------

Molecule has no symmetry elements
It seems to be the C1 point group
c1  symmetry found (for desy threshold:  0.10E+00) used in thermo

          ...................................................
          :                      SETUP                      :
          :.................................................:
          :  # frequencies                          54      :
          :  # imaginary freq.                       0      :
          :  linear?                             false      :
          :  only rotor calc.                    false      :
          :  symmetry                               c1      :
          :  rotational number                       1      :
          :  scaling factor                  1.0000000      :
          :  rotor cutoff                    0.0000000 cm⁻¹ :
          :  imag. cutoff                 -100.0000000 cm⁻¹ :
          :.................................................:

    mode    ω/cm⁻¹     T·S(HO)/kcal·mol⁻¹    T·S(FR)/kcal·mol⁻¹   T·S(vib)
   ------------------------------------------------------------------------
       1      6.59    -2.63573 (100.00%)    -1.65502 (  0.00%)    -2.63573
       2     19.59    -1.99016 (100.00%)    -1.33343 (  0.00%)    -1.99016
       3     80.63    -1.15545 (100.00%)    -0.91482 (  0.00%)    -1.15545
       4    126.72    -0.89302 (100.00%)    -0.78095 (  0.00%)    -0.89302
       5    162.98    -0.74984 (100.00%)    -0.70644 (  0.00%)    -0.74984
       6    196.92    -0.64451 (100.00%)    -0.65041 (  0.00%)    -0.64451
       7    229.45    -0.56149 (100.00%)    -0.60512 (  0.00%)    -0.56149
       8    265.56    -0.48447 (100.00%)    -0.56183 (  0.00%)    -0.48447
   ------------------------------------------------------------------------

   temp. (K)  partition function   enthalpy   heat capacity  entropy
                                   cal/mol     cal/K/mol   cal/K/mol   J/K/mol
 298.15  VIB  0.319E+05             4627.190     28.422     36.129
         ROT  0.443E+06              888.752      2.981     28.817
         INT  0.141E+11             5515.942     31.403     64.946
         TR   0.121E+28             1481.254      4.968     40.146
         TOT                        6997.1964    36.3709   105.0921   439.7054

       T/K    H(0)-H(T)+PV         H(T)/Eh          T*S/Eh         G(T)/Eh
   ------------------------------------------------------------------------
    298.15    0.111507E-01    0.182410E+00    0.499327E-01    0.132478E+00
   ------------------------------------------------------------------------

         :::::::::::::::::::::::::::::::::::::::::::::::::::::
         ::                  THERMODYNAMIC                  ::
         :::::::::::::::::::::::::::::::::::::::::::::::::::::
         :: total free energy         -26.990019337803 Eh   ::
         ::.................................................::
         :: total energy              -27.122497129931 Eh   ::
         :: zero point energy           0.171259709493 Eh   ::
         :: G(RRHO) w/o ZPVE           -0.038781917365 Eh   ::
         :: G(RRHO) contrib.            0.132477792128 Eh   ::
         :::::::::::::::::::::::::::::::::::::::::::::::::::::

optimized geometry written to: xtbopt.coord


           -------------------------------------------------
          | TOTAL ENERGY              -27.122497129931 Eh   |
          | TOTAL ENTHALPY            -26.940086678243 Eh   |
          | TOTAL FREE ENERGY         -26.990019337803 Eh   |
          | GRADIENT NORM               0.000045513588 Eh/α |
          | HOMO-LUMO GAP               4.966682009072 eV   |
           -------------------------------------------------

------------------------------------------------------------------------
 * finished run on 2025/04/11 at 17:46:11.895     
------------------------------------------------------------------------
 total:
 * wall-time:     0 d,  0 h,  0 min,  1.509 sec
 *  cpu-time:     0 d,  0 h,  0 min,  1.395 sec
 * ratio c/w:     0.924 speedup
 SCF:
 * wall-time:     0 d,  0 h,  0 min,  0.032 sec
 *  cpu-time:     0 d,  0 h,  0 min,  0.019 sec
 * ratio c/w:     0.596 speedup
 ANC optimizer:
 * wall-time:     0 d,  0 h,  0 min,  0.303 sec
 *  cpu-time:     0 d,  0 h,  0 min,  0.280 sec
 * ratio c/w:     0.924 speedup
 analytical hessian:
 * wall-time:     0 d,  0 h,  0 min,  1.089 sec
 *  cpu-time:     0 d,  0 h,  0 min,  1.077 sec
 * ratio c/w:     0.989 speedup

