      -----------------------------------------------------------      
     |                   =====================                   |     
     |                           x T B                           |     
     |                   =====================                   |     
     |                         S. Grimme                         |     
     |          Mulliken Center for Theoretical Chemistry        |     
     |                    University of Bonn                     |     
      -----------------------------------------------------------      

   * xtb version 6.7.1 (edcfbbe) compiled by 'albert@albert-system' on 2024-07-22

   xtb is free software: you can redistribute it and/or modify it under
   the terms of the GNU Lesser General Public License as published by
   the Free Software Foundation, either version 3 of the License, or
   (at your option) any later version.
   
   xtb is distributed in the hope that it will be useful,
   but WITHOUT ANY WARRANTY; without even the implied warranty of
   MERCHANTABILITY or FITNESS FOR A PARTICULAR PURPOSE.  See the
   GNU Lesser General Public License for more details.
   
   Cite this work as:
   * C. Bannwarth, E. Caldeweyher, S. Ehlert, A. Hansen, P. Pracht,
     J. Seibert, S. Spicher, S. Grimme, WIREs Comput. Mol. Sci., 2020, 11,
     e01493. DOI: 10.1002/wcms.1493
   
   for GFN2-xTB:
   * C. Bannwarth, S. Ehlert and S. Grimme., J. Chem. Theory Comput., 2019,
     15, 1652-1671. DOI: 10.1021/acs.jctc.8b01176
   for GFN1-xTB:
   * S. Grimme, C. Bannwarth, P. Shushkov, J. Chem. Theory Comput., 2017,
     13, 1989-2009. DOI: 10.1021/acs.jctc.7b00118
   for GFN0-xTB:
   * P. Pracht, E. Caldeweyher, S. Ehlert, S. Grimme, ChemRxiv, 2019, preprint.
     DOI: 10.26434/chemrxiv.8326202.v1
   for GFN-FF:
   * S. Spicher and S. Grimme, Angew. Chem. Int. Ed., 2020, 59, 15665-15673.
     DOI: 10.1002/anie.202004239
   
   for ALPB and GBSA implicit solvation:
   * S. Ehlert, M. Stahn, S. Spicher, S. Grimme, J. Chem. Theory Comput.,
     2021, 17, 4250-4261. DOI: 10.1021/acs.jctc.1c00471
   
   for ddCOSMO and CPCM-X implicit solvation:
   * M. Stahn, S. Ehlert, S. Grimme, J. Phys. Chem. A,
     2023, XX, XXXX-XXXX. DOI: 10.1021/acs.jpca.3c04382
   
   for DFT-D4:
   * E. Caldeweyher, C. Bannwarth and S. Grimme, J. Chem. Phys., 2017,
     147, 034112. DOI: 10.1063/1.4993215
   * E. Caldeweyher, S. Ehlert, A. Hansen, H. Neugebauer, S. Spicher,
     C. Bannwarth and S. Grimme, J. Chem. Phys., 2019, 150, 154122.
     DOI: 10.1063/1.5090222
   * E. Caldeweyher, J.-M. Mewes, S. Ehlert and S. Grimme, Phys. Chem. Chem. Phys.
     2020, 22, 8499-8512. DOI: 10.1039/D0CP00502A
   
   for sTDA-xTB:
   * S. Grimme and C. Bannwarth, J. Chem. Phys., 2016, 145, 054103.
     DOI: 10.1063/1.4959605
   
   in the mass-spec context:
   * V. Asgeirsson, C. Bauer and S. Grimme, Chem. Sci., 2017, 8, 4879.
     DOI: 10.1039/c7sc00601b
   * J. Koopman and S. Grimme, ACS Omega 2019, 4, 12, 15120-15133.
     DOI: 10.1021/acsomega.9b02011
   
   for metadynamics refer to:
   * S. Grimme, J. Chem. Theory Comput., 2019, 155, 2847-2862
     DOI: 10.1021/acs.jctc.9b00143
   
   for SPH calculations refer to:
   * S. Spicher and S. Grimme, J. Chem. Theory Comput., 2021, 17, 1701-1714
     DOI: 10.1021/acs.jctc.0c01306
   
   for ONIOM refer to:
   * C. Plett, A. Katbashev, S. Ehlert, S. Grimme, M. Bursch,
     Phys. Chem. Chem. Phys., 2023, 25, 17860-17868. DOI: 10.1039/D3CP02178E
   
   for DIPRO refer to:
   * J. Kohn, N. Gildemeister, S. Grimme, D. Fazzi, A. Hansen,
     J. Chem. Phys., 2023, just accepted.
   
   for PTB refer to:
   * S. Grimme, M. Mueller, A. Hansen, J. Chem. Phys., 2023, 158, 124111.
     DOI: 10.1063/5.0137838
   
   with help from (in alphabetical order)
   P. Atkinson, C. Bannwarth, F. Bohle, G. Brandenburg, E. Caldeweyher
   M. Checinski, S. Dohm, S. Ehlert, S. Ehrlich, I. Gerasimov, C. Hölzer
   A. Katbashev, J. Kohn, J. Koopman, C. Lavigne, S. Lehtola, F. März, M. Müller,
   F. Musil, H. Neugebauer, J. Pisarek, C. Plett, P. Pracht, F. Pultar,
   J. Seibert, P. Shushkov, S. Spicher, M. Stahn, M. Steiner, T. Strunk,
   J. Stückrath, T. Rose, and J. Unsleber
   
 * started run on 2025/04/11 at 15:59:02.452     
   ID    Z sym.   atoms
    1    6 C      1-5, 8
    2    8 O      6, 7
    3    1 H      9-20

           -------------------------------------------------
          |                Calculation Setup                |
           -------------------------------------------------

          program call               : /srv/scratch/z5358697/.xtb/bin/xtb gas.coord --gfn2 --sp --chrg 0 --norestart --parallel 1
          hostname                   : k068
          coordinate file            : gas.coord
          omp threads                :                     1


           -------------------------------------------------
          |                 G F N 2 - x T B                 |
           -------------------------------------------------

        Reference                      10.1021/acs.jctc.8b01176
      * Hamiltonian:
        H0-scaling (s, p, d)           1.850000    2.230000    2.230000
        zeta-weighting                 0.500000
      * Dispersion:
        s8                             2.700000
        a1                             0.520000
        a2                             5.000000
        s9                             5.000000
      * Repulsion:
        kExp                           1.500000    1.000000
        rExp                           1.000000
      * Coulomb:
        alpha                          2.000000
        third order                    shell-resolved
        anisotropic                    true
        a3                             3.000000
        a5                             4.000000
        cn-shift                       1.200000
        cn-exp                         4.000000
        max-rad                        5.000000


          ...................................................
          :                      SETUP                      :
          :.................................................:
          :  # basis functions                  44          :
          :  # atomic orbitals                  44          :
          :  # shells                           28          :
          :  # electrons                        48          :
          :  max. iterations                   250          :
          :  Hamiltonian                  GFN2-xTB          :
          :  restarted?                      false          :
          :  GBSA solvation                  false          :
          :  PC potential                    false          :
          :  electronic temp.          300.0000000     K    :
          :  accuracy                    1.0000000          :
          :  -> integral cutoff          0.2500000E+02      :
          :  -> integral neglect         0.1000000E-07      :
          :  -> SCF convergence          0.1000000E-05 Eh   :
          :  -> wf. convergence          0.1000000E-03 e    :
          :  Broyden damping             0.4000000          :
          :  net charge                          0          :
          :  unpaired electrons                  0          :
          ...................................................

 iter      E             dE          RMSdq      gap      omega  full diag
   1    -27.3519572 -0.273520E+02  0.392E+00    5.97       0.0  T
   2    -27.4210833 -0.691261E-01  0.204E+00    4.75       1.0  T
   3    -27.4239706 -0.288728E-02  0.113E+00    5.23       1.0  T
   4    -27.4262954 -0.232484E-02  0.181E-01    4.92       1.0  T
   5    -27.4265947 -0.299246E-03  0.738E-02    5.00       1.0  T
   6    -27.4266004 -0.574596E-05  0.198E-02    4.99       1.1  T
   7    -27.4266012 -0.783274E-06  0.746E-03    4.99       3.0  T
   8    -27.4266013 -0.149890E-06  0.184E-03    4.99      12.1  T
   9    -27.4266013 -0.610600E-08  0.927E-04    4.99      24.1  T
  10    -27.4266013 -0.240379E-08  0.204E-04    4.99     109.8  T

   *** convergence criteria satisfied after 10 iterations ***

         #    Occupation            Energy/Eh            Energy/eV
      -------------------------------------------------------------
         1        2.0000           -0.7442189             -20.2512
       ...           ...                  ...                  ...
        18        2.0000           -0.4723832             -12.8542
        19        2.0000           -0.4613513             -12.5540
        20        2.0000           -0.4467578             -12.1569
        21        2.0000           -0.4453979             -12.1199
        22        2.0000           -0.4356247             -11.8540
        23        2.0000           -0.4334793             -11.7956
        24        2.0000           -0.4112354             -11.1903 (HOMO)
        25                         -0.2277272              -6.1968 (LUMO)
        26                          0.0003475               0.0095
        27                          0.0914246               2.4878
        28                          0.0991643               2.6984
        29                          0.1182701               3.2183
       ...                                ...                  ...
        44                          0.6281820              17.0937
      -------------------------------------------------------------
                  HL-Gap            0.1835082 Eh            4.9935 eV
             Fermi-level           -0.3194813 Eh           -8.6935 eV

 SCC (total)                   0 d,  0 h,  0 min,  0.022 sec
 SCC setup                      ...        0 min,  0.000 sec (  0.798%)
 Dispersion                     ...        0 min,  0.000 sec (  0.521%)
 classical contributions        ...        0 min,  0.000 sec (  0.107%)
 integral evaluation            ...        0 min,  0.002 sec (  6.795%)
 iterations                     ...        0 min,  0.015 sec ( 68.969%)
 molecular gradient             ...        0 min,  0.005 sec ( 21.887%)
 printout                       ...        0 min,  0.000 sec (  0.851%)

         :::::::::::::::::::::::::::::::::::::::::::::::::::::
         ::                     SUMMARY                     ::
         :::::::::::::::::::::::::::::::::::::::::::::::::::::
         :: total energy             -27.111428010678 Eh    ::
         :: gradient norm              0.028253815938 Eh/a0 ::
         :: HOMO-LUMO gap              4.993512957948 eV    ::
         ::.................................................::
         :: SCC energy               -27.426616680610 Eh    ::
         :: -> isotropic ES            0.047195695406 Eh    ::
         :: -> anisotropic ES          0.002624448102 Eh    ::
         :: -> anisotropic XC          0.007785472439 Eh    ::
         :: -> dispersion             -0.011627412706 Eh    ::
         :: repulsion energy           0.315188669931 Eh    ::
         :: add. restraining           0.000000000000 Eh    ::
         :: total charge              -0.000000000000 e     ::
         :::::::::::::::::::::::::::::::::::::::::::::::::::::

           -------------------------------------------------
          |                Property Printout                |
           -------------------------------------------------

    * Orbital Energies and Occupations

         #    Occupation            Energy/Eh            Energy/eV
      -------------------------------------------------------------
         1        2.0000           -0.7442189             -20.2512
       ...           ...                  ...                  ...
        12        2.0000           -0.5210311             -14.1780
        13        2.0000           -0.5148899             -14.0109
        14        2.0000           -0.5128626             -13.9557
        15        2.0000           -0.4966015             -13.5132
        16        2.0000           -0.4845214             -13.1845
        17        2.0000           -0.4780970             -13.0097
        18        2.0000           -0.4723832             -12.8542
        19        2.0000           -0.4613513             -12.5540
        20        2.0000           -0.4467578             -12.1569
        21        2.0000           -0.4453979             -12.1199
        22        2.0000           -0.4356247             -11.8540
        23        2.0000           -0.4334793             -11.7956
        24        2.0000           -0.4112354             -11.1903 (HOMO)
        25                         -0.2277272              -6.1968 (LUMO)
        26                          0.0003475               0.0095
        27                          0.0914246               2.4878
        28                          0.0991643               2.6984
        29                          0.1182701               3.2183
        30                          0.1304006               3.5484
        31                          0.1340073               3.6465
        32                          0.1384383               3.7671
        33                          0.1473856               4.0106
        34                          0.1726083               4.6969
        35                          0.1861144               5.0644
       ...                                ...                  ...
        44                          0.6281820              17.0937
      -------------------------------------------------------------
                  HL-Gap            0.1835082 Eh            4.9935 eV
             Fermi-level           -0.3194813 Eh           -8.6935 eV

     #   Z          covCN         q      C6AA      α(0)
     1   6 C        3.752    -0.106    22.580     6.776
     2   6 C        3.800    -0.054    21.550     6.609
     3   6 C        3.805    -0.052    21.495     6.600
     4   6 C        3.804    -0.091    22.231     6.713
     5   6 C        2.714     0.357    20.940     7.491
     6   8 O        0.856    -0.424    22.164     6.312
     7   8 O        1.704    -0.259    18.289     5.774
     8   6 C        3.643     0.024    20.523     6.513
     9   1 H        0.925     0.036     2.500     2.472
    10   1 H        0.925     0.037     2.488     2.467
    11   1 H        0.925     0.039     2.460     2.453
    12   1 H        0.924     0.035     2.516     2.480
    13   1 H        0.924     0.036     2.500     2.473
    14   1 H        0.924     0.047     2.362     2.403
    15   1 H        0.924     0.037     2.493     2.469
    16   1 H        0.925     0.060     2.199     2.319
    17   1 H        0.925     0.070     2.081     2.256
    18   1 H        0.925     0.064     2.149     2.293
    19   1 H        0.925     0.064     2.150     2.293
    20   1 H        0.924     0.079     1.995     2.209

 Mol. C6AA /au·bohr⁶  :       3022.506566
 Mol. C8AA /au·bohr⁸  :      64070.972274
 Mol. α(0) /au        :         81.374732


Wiberg/Mayer (AO) data.
largest (>0.10) Wiberg bond orders for each atom

 ---------------------------------------------------------------------------
     #   Z sym  total        # sym  WBO       # sym  WBO       # sym  WBO
 ---------------------------------------------------------------------------
     1   6 C    3.996 --     2 C    1.020    11 H    0.987     9 H    0.987
                            10 H    0.986
     2   6 C    3.997 --     1 C    1.020     3 C    1.005    12 H    0.978
                            13 H    0.977
     3   6 C    3.993 --     2 C    1.005     4 C    0.979    15 H    0.978
                            14 H    0.977
     4   6 C    3.993 --     3 C    0.979     5 C    0.974    16 H    0.971
                            17 H    0.966
     5   6 C    3.914 --     6 O    1.735     7 O    1.146     4 C    0.974
     6   8 O    2.022 --     5 C    1.735     7 O    0.175
     7   8 O    2.315 --     5 C    1.146     8 C    0.950     6 O    0.175
     8   6 C    3.922 --    18 H    0.979    19 H    0.978    20 H    0.975
                             7 O    0.950
     9   1 H    0.998 --     1 C    0.987
    10   1 H    0.999 --     1 C    0.986
    11   1 H    0.998 --     1 C    0.987
    12   1 H    0.999 --     2 C    0.978
    13   1 H    0.998 --     2 C    0.977
    14   1 H    0.998 --     3 C    0.977
    15   1 H    0.999 --     3 C    0.978
    16   1 H    0.996 --     4 C    0.971
    17   1 H    0.995 --     4 C    0.966
    18   1 H    0.996 --     8 C    0.979
    19   1 H    0.996 --     8 C    0.978
    20   1 H    0.994 --     8 C    0.975
 ---------------------------------------------------------------------------

Topologies differ in total number of bonds
Writing topology from bond orders to xtbtopo.mol

molecular dipole:
                 x           y           z       tot (Debye)
 q only:       -0.108      -0.472       0.679
   full:       -0.069      -0.511       0.772       2.360
molecular quadrupole (traceless):
                xx          xy          yy          xz          yz          zz
 q only:        7.460      -3.341      -2.058       2.473       2.549      -5.403
  q+dip:        5.824      -3.057      -1.089       3.328       3.473      -4.735
   full:        6.522      -3.082      -0.938       3.268       3.851      -5.584


           -------------------------------------------------
          | TOTAL ENERGY              -27.111428010678 Eh   |
          | GRADIENT NORM               0.028253815938 Eh/α |
          | HOMO-LUMO GAP               4.993512957948 eV   |
           -------------------------------------------------

------------------------------------------------------------------------
 * finished run on 2025/04/11 at 15:59:02.509     
------------------------------------------------------------------------
 total:
 * wall-time:     0 d,  0 h,  0 min,  0.057 sec
 *  cpu-time:     0 d,  0 h,  0 min,  0.021 sec
 * ratio c/w:     0.371 speedup
 SCF:
 * wall-time:     0 d,  0 h,  0 min,  0.023 sec
 *  cpu-time:     0 d,  0 h,  0 min,  0.014 sec
 * ratio c/w:     0.602 speedup

