
                                 *****************
                                 * O   R   C   A *
                                 *****************

                                            #,                                       
                                            ###                                      
                                            ####                                     
                                            #####                                    
                                            ######                                   
                                           ########,                                 
                                     ,,################,,,,,                         
                               ,,#################################,,                 
                          ,,##########################################,,             
                       ,#########################################, ''#####,          
                    ,#############################################,,   '####,        
                  ,##################################################,,,,####,       
                ,###########''''           ''''###############################       
              ,#####''   ,,,,##########,,,,          '''####'''          '####       
            ,##' ,,,,###########################,,,                        '##       
           ' ,,###''''                  '''############,,,                           
         ,,##''                                '''############,,,,        ,,,,,,###''
      ,#''                                            '''#######################'''  
     '                                                          ''''####''''         
             ,#######,   #######,   ,#######,      ##                                
            ,#'     '#,  ##    ##  ,#'     '#,    #''#        ,####,   ,####,        
            ##       ##  ##   ,#'  ##            #'  '#       #'       #'  '#        
            ##       ##  #######   ##           ,######,      #####,   #    #        
            '#,     ,#'  ##    ##  '#,     ,#' ,#      #,     #,   #   #,  ,#        
             '#######'   ##     ##  '#######'  #'      '#     '####' # '####'        



                #########################################################
                #                        -***-                          #
                #          Department of theory and spectroscopy        #
                #                                                       #
                #                      Frank Neese                      #
                #                                                       #
                #     Directorship, Architecture, Infrastructure        #
                #                    SHARK, DRIVERS                     #
                #        Core code/Algorithms in most modules           #
                #                                                       #
                #        Max Planck Institute fuer Kohlenforschung      #
                #                Kaiser Wilhelm Platz 1                 #
                #                 D-45470 Muelheim/Ruhr                 #
                #                      Germany                          #
                #                                                       #
                #                  All rights reserved                  #
                #                        -***-                          #
                #########################################################


                         Program Version 6.0.0  -   RELEASE  -


 With contributions from (in alphabetic order):
   Daniel Aravena         : Magnetic Suceptibility
   Michael Atanasov       : Ab Initio Ligand Field Theory (pilot matlab implementation)
   Alexander A. Auer      : GIAO ZORA, VPT2 properties, NMR spectrum
   Ute Becker             : All parallelization in ORCA, NUMFREQ, NUMCALC
   Giovanni Bistoni       : ED, misc. LED, open-shell LED, HFLD
   Martin Brehm           : Molecular dynamics
   Dmytro Bykov           : pre 5.0 version of the SCF Hessian
   Marcos Casanova-Páez   : Triplet and SCS-CIS(D). UHF-(DLPNO)-IP/EA/STEOM-CCSD. UHF-CVS-IP/STEOM-CCSD
   Vijay G. Chilkuri      : MRCI spin determinant printing, contributions to CSF-ICE
   Pauline Colinet        : FMM embedding
   Dipayan Datta          : RHF DLPNO-CCSD density
   Achintya Kumar Dutta   : EOM-CC, STEOM-CC
   Nicolas Foglia         : Exact transition moments, OPA infrastructure, MCD improvements
   Dmitry Ganyushin       : Spin-Orbit,Spin-Spin,Magnetic field MRCI
   Miquel Garcia          : C-PCM and meta-GGA Hessian, CCSD/C-PCM, Gaussian charge scheme
   Tiago L. C. Gouveia    : GS-ROHF, GS-ROCIS
   Yang Guo               : DLPNO-NEVPT2, F12-NEVPT2, CIM, IAO-localization
   Andreas Hansen         : Spin unrestricted coupled pair/coupled cluster methods
   Ingolf Harden          : AUTO-CI MPn and infrastructure 
   Benjamin Helmich-Paris : MC-RPA, TRAH-(SCF,CASSCF), AVAS, COSX integrals, SCF dyn. polar.
   Lee Huntington         : MR-EOM, pCC
   Robert Izsak           : Overlap fitted RIJCOSX, COSX-SCS-MP3, EOM
   Riya Kayal             : Wick's Theorem for AUTO-CI, AUTO-CI UHF-CCSDT
   Emily Kempfer          : AUTO-CI, RHF CISDT and CCSDT
   Christian Kollmar      : KDIIS, OOCD, Brueckner-CCSD(T), CCSD density, CASPT2, CASPT2-K, improved NEVPT2
   Axel Koslowski         : Symmetry handling
   Simone Kossmann        : Meta GGA functionals, TD-DFT gradient, OOMP2, (MP2 Hessian; deprecated post 5.0)
   Lucas Lang             : DCDCAS
   Marvin Lechner         : AUTO-CI (C++ implementation), FIC-MRCC
   Spencer Leger          : CASSCF response
   Dagmar Lenk            : GEPOL surface, SMD, ORCA-2-JSON
   Dimitrios Liakos       : Extrapolation schemes; Compound Job, initial MDCI parallelization
   Dimitrios Manganas     : Further ROCIS development; embedding schemes. LFT, Crystal Embedding
   Dimitrios Pantazis     : SARC Basis sets
   Anastasios Papadopoulos: AUTO-CI, single reference methods and gradients
   Taras Petrenko         : pre 6.0 DFT Hessian and TD-DFT gradient, (ASA, deprecated), ECA, 1-Electron XAS/XES, NRVS
   Peter Pinski           : DLPNO-MP2, DLPNO-MP2 Gradient
   Christoph Reimann      : Effective Core Potentials
   Marius Retegan         : Local ZFS, SOC
   Christoph Riplinger    : Optimizer, TS searches, QM/MM, DLPNO-CCSD(T), (RO)-DLPNO pert. Triples
   Michael Roemelt        : Original ROCIS implementation
   Masaaki Saitow         : Open-shell DLPNO-CCSD energy and density
   Barbara Sandhoefer     : DKH picture change effects
   Kantharuban Sivalingam : CASSCF convergence/infrastructure, NEVPT2 and variants, FIC-MRCI
   Bernardo de Souza      : ESD, SOC TD-DFT
   Georgi Stoychev        : AutoAux, RI-MP2 NMR, DLPNO-MP2 response, X2C
   Van Anh Tran           : RI-MP2 g-tensors
   Willem Van den Heuvel  : Paramagnetic NMR
   Zikuan Wang            : NOTCH, Electric field optimization 
   Frank Wennmohs         : Technical directorship and infrastructure
   Hang Xu                : AUTO-CI-Response properties 


 We gratefully acknowledge several colleagues who have allowed us to
 interface, adapt or use parts of their codes:
   Stefan Grimme, W. Hujo, H. Kruse, P. Pracht,  : VdW corrections, initial TS optimization,
                  C. Bannwarth, S. Ehlert,         DFT functionals, gCP, sTDA/sTD-DF
                  L. Wittmann, M. Mueller
   Ed Valeev, F. Pavosevic, A. Kumar             : LibInt (2-el integral package), F12 methods
   Garnet Chan, S. Sharma, J. Yang, R. Olivares  : DMRG
   Ulf Ekstrom                                   : XCFun DFT Library
   Mihaly Kallay                                 : mrcc  (arbitrary order and MRCC methods)
   Frank Weinhold                                : gennbo (NPA and NBO analysis)
   Simon Mueller                                 : openCOSMO-RS
   Christopher J. Cramer and Donald G. Truhlar   : smd solvation model
   Lars Goerigk                                  : TD-DFT with DH, B97 family of functionals
   V. Asgeirsson, H. Jonsson                     : NEB implementation
   FAccTs GmbH                                   : IRC, NEB, NEB-TS, DLPNO-Multilevel, CI-OPT
                                                   MM, QMMM, 2- and 3-layer-ONIOM, Crystal-QMMM,
                                                   LR-CPCM, SF, NACMEs, symmetry and pop. for TD-DFT,
                                                   nearIR, NL-DFT gradient (VV10), updates on ESD,
                                                   ML-optimized integration grids, MBIS, APM,
                                                   GOAT, DOCKER, SOLVATOR, interface openCOSMO-RS
   S Lehtola, MJT Oliveira, MAL Marques          : LibXC Library
   Liviu Ungur et al                             : ANISO software


 Your calculation uses the libint2 library for the computation of 2-el integrals
 For citations please refer to: http://libint.valeyev.net

 Your ORCA version has been built with support for libXC version: 6.2.2
 For citations please refer to: https://libxc.gitlab.io

 This ORCA versions uses:
   CBLAS   interface :  Fast vector & matrix operations
   LAPACKE interface :  Fast linear algebra routines
   SCALAPACK package :  Parallel linear algebra routines
   Shared memory     :  Shared parallel matrices
   BLAS/LAPACK       :  OpenBLAS 0.3.27  USE64BITINT DYNAMIC_ARCH NO_AFFINITY SkylakeX SINGLE_THREADED
        Core in use  :  SkylakeX
   Copyright (c) 2011-2014, The OpenBLAS Project


Your calculation utilizes the geometrical counterpoise correction gCP
Please cite in your paper:
H.Kruse, S. Grimme J.Chem.Phys., 136, (2012), 154101 
   

Your calculation utilizes the atom-pairwise dispersion correction
based on EEQ partial charges (D4)


Your calculation utilizes the SMD solvation module
Please cite in your paper:
A.V. Marenich, C.J. Cramer, D.G. Truhlar J. Phys. Chem. B, 113, (2009), 6378 

================================================================================

----- Orbital basis set information -----
Your calculation utilizes the basis: def2-mTZVPP
   Stefan Grimme, Andreas Hansen, Sebastian Ehlert, and Jan-Michael Mewes 
   J. Chem. Phys. 154, 064103 (2021). DOI: 10.1063/5.0040021

----- AuxJ basis set information -----
Your calculation utilizes the auxiliary basis: def2/J
   F. Weigend, Phys. Chem. Chem. Phys. 8, 1057 (2006).

================================================================================
                                        WARNINGS
                       Please study these warnings very carefully!
================================================================================

Using LibXC functional ID 497 : Re-regularized SCAN exchange by Furness et al
[ 1]  J. W. Furness, A. D. Kaplan, J. Ning, J. P. Perdew, and J. Sun.,  J. Phys. Chem. Lett. 11, 8208-8215 (2020)
[ 2]  J. W. Furness, A. D. Kaplan, J. Ning, J. P. Perdew, and J. Sun.,  J. Phys. Chem. Lett. 11, 9248-9248 (2020)
Using LibXC functional ID 498 : Re-regularized SCAN correlation by Furness et al
[ 1]  J. W. Furness, A. D. Kaplan, J. Ning, J. P. Perdew, and J. Sun.,  J. Phys. Chem. Lett. 11, 8208-8215 (2020)
[ 2]  J. W. Furness, A. D. Kaplan, J. Ning, J. P. Perdew, and J. Sun.,  J. Phys. Chem. Lett. 11, 9248-9248 (2020)
Using LibXC functional ID 497 : Re-regularized SCAN exchange by Furness et al
[ 1]  J. W. Furness, A. D. Kaplan, J. Ning, J. P. Perdew, and J. Sun.,  J. Phys. Chem. Lett. 11, 8208-8215 (2020)
[ 2]  J. W. Furness, A. D. Kaplan, J. Ning, J. P. Perdew, and J. Sun.,  J. Phys. Chem. Lett. 11, 9248-9248 (2020)
Using LibXC functional ID 498 : Re-regularized SCAN correlation by Furness et al
[ 1]  J. W. Furness, A. D. Kaplan, J. Ning, J. P. Perdew, and J. Sun.,  J. Phys. Chem. Lett. 11, 8208-8215 (2020)
[ 2]  J. W. Furness, A. D. Kaplan, J. Ning, J. P. Perdew, and J. Sun.,  J. Phys. Chem. Lett. 11, 9248-9248 (2020)

================================================================================
                                       INPUT FILE
================================================================================
NAME = sp_solv.inp
|  1> ! r2scan-3c def2/J RI DEFGRID2 scfconv6 printgap
|  2> %output
|  3>     printlevel normal
|  4> end
|  5> %cpcm
|  6>     smd true
|  7>     smdsolvent "water"
|  8> end
|  9> * xyz 0 1
| 10> C -2.3354078935 -1.2112612595 -0.608264917
| 11> C -2.0062404186 -0.5606351956 0.7298106486
| 12> C -1.4381455975 0.8521032116 0.5487687355
| 13> C -0.1166417201 0.8264361315 -0.1757549988
| 14> O 0.107300203 1.3883697945 -1.2295176611
| 15> O 0.7890547626 0.1128306967 0.4758766481
| 16> C 2.0982205362 -0.0256420816 -0.0998184775
| 17> C 2.7302401431 -1.2936270054 0.4431140537
| 18> H -3.0770195196 -0.6248120149 -1.1456749324
| 19> H -1.4456072857 -1.2800165738 -1.2316333657
| 20> H -2.7289987919 -2.2128785417 -0.45751693
| 21> H -1.2774912014 -1.167881339 1.2679486142
| 22> H -2.9112972243 -0.4953457687 1.3344915596
| 23> H -1.2712271211 1.3039080775 1.527364393
| 24> H -2.1253443208 1.47389168 -0.025003732
| 25> H 1.9988370036 -0.0503202531 -1.1900102955
| 26> H 2.6813436752 0.8592511863 0.174278821
| 27> H 2.1437281643 -2.1607431522 0.1531504313
| 28> H 3.7343494089 -1.3927716573 0.0442538344
| 29> H 2.7768971628 -1.2482672203 1.5270469949
| 30> *
| 31> 
| 32>                          ****END OF INPUT****
================================================================================

                       ****************************
                       * Single Point Calculation *
                       ****************************

---------------------------------
CARTESIAN COORDINATES (ANGSTROEM)
---------------------------------
  C     -2.335408   -1.211261   -0.608265
  C     -2.006240   -0.560635    0.729811
  C     -1.438146    0.852103    0.548769
  C     -0.116642    0.826436   -0.175755
  O      0.107300    1.388370   -1.229518
  O      0.789055    0.112831    0.475877
  C      2.098221   -0.025642   -0.099818
  C      2.730240   -1.293627    0.443114
  H     -3.077020   -0.624812   -1.145675
  H     -1.445607   -1.280017   -1.231633
  H     -2.728999   -2.212879   -0.457517
  H     -1.277491   -1.167881    1.267949
  H     -2.911297   -0.495346    1.334492
  H     -1.271227    1.303908    1.527364
  H     -2.125344    1.473892   -0.025004
  H      1.998837   -0.050320   -1.190010
  H      2.681344    0.859251    0.174279
  H      2.143728   -2.160743    0.153150
  H      3.734349   -1.392772    0.044254
  H      2.776897   -1.248267    1.527047

----------------------------
CARTESIAN COORDINATES (A.U.)
----------------------------
  NO LB      ZA    FRAG     MASS         X           Y           Z
   0 C     6.0000    0    12.011   -4.413281   -2.288952   -1.149454
   1 C     6.0000    0    12.011   -3.791245   -1.059447    1.379142
   2 C     6.0000    0    12.011   -2.717701    1.610242    1.037023
   3 C     6.0000    0    12.011   -0.220421    1.561738   -0.332129
   4 O     8.0000    0    15.999    0.202768    2.623639   -2.323452
   5 O     8.0000    0    15.999    1.491097    0.213219    0.899277
   6 C     6.0000    0    12.011    3.965062   -0.048457   -0.188630
   7 C     6.0000    0    12.011    5.159406   -2.444601    0.837364
   8 H     1.0000    0     1.008   -5.814724   -1.180724   -2.165012
   9 H     1.0000    0     1.008   -2.731802   -2.418881   -2.327450
  10 H     1.0000    0     1.008   -5.157060   -4.181734   -0.864582
  11 H     1.0000    0     1.008   -2.414109   -2.206976    2.396076
  12 H     1.0000    0     1.008   -5.501554   -0.936068    2.521824
  13 H     1.0000    0     1.008   -2.402271    2.464029    2.886300
  14 H     1.0000    0     1.008   -4.016319    2.785252   -0.047250
  15 H     1.0000    0     1.008    3.777255   -0.095091   -2.248794
  16 H     1.0000    0     1.008    5.067005    1.623749    0.329339
  17 H     1.0000    0     1.008    4.051059   -4.083213    0.289412
  18 H     1.0000    0     1.008    7.056898   -2.631957    0.083628
  19 H     1.0000    0     1.008    5.247575   -2.358883    2.885701

--------------------------------
INTERNAL COORDINATES (ANGSTROEM)
--------------------------------
 C      0   0   0     0.000000000000     0.00000000     0.00000000
 C      1   0   0     1.523847669819     0.00000000     0.00000000
 C      2   1   0     1.533407221594   111.69829824     0.00000000
 C      3   2   1     1.507304195757   111.46135742   295.71759164
 O      4   3   2     1.215045338657   124.79099592   120.50771026
 O      4   3   2     1.324440500209   111.85257337   300.41681464
 C      6   4   3     1.436841887869   118.54598475   178.99893384
 C      7   6   4     1.517237715035   108.46403974   204.22252008
 H      1   2   3     1.087529330690   110.54712865   299.79217470
 H      1   2   3     1.088604904325   110.68473495    59.37319301
 H      1   2   3     1.086681154198   110.48530739   179.57733399
 H      2   1   3     1.090603397328   109.86987451   239.05434367
 H      2   1   3     1.090426308806   109.46358783   120.22504975
 H      3   2   1     1.090705677758   109.41462397   176.70064614
 H      3   2   1     1.089989829861   110.74068365    56.00906368
 H      7   6   4     1.094990547327   108.56535089   326.19244805
 H      7   6   4     1.094622318362   107.88715697    83.48529365
 H      8   7   6     1.086262222317   110.28449030    61.98657454
 H      8   7   6     1.084967536015   109.28889998   182.02204630
 H      8   7   6     1.085884436121   109.88833236   301.99264688

---------------------------
INTERNAL COORDINATES (A.U.)
---------------------------
 C      0   0   0     0.000000000000     0.00000000     0.00000000
 C      1   0   0     2.879654765773     0.00000000     0.00000000
 C      2   1   0     2.897719700590   111.69829824     0.00000000
 C      3   2   1     2.848392130492   111.46135742   295.71759164
 O      4   3   2     2.296102930359   124.79099592   120.50771026
 O      4   3   2     2.502829826068   111.85257337   300.41681464
 C      6   4   3     2.715237665819   118.54598475   178.99893384
 C      7   6   4     2.867163761473   108.46403974   204.22252008
 H      1   2   3     2.055132597611   110.54712865   299.79217470
 H      1   2   3     2.057165137218   110.68473495    59.37319301
 H      1   2   3     2.053529776328   110.48530739   179.57733399
 H      2   1   3     2.060941741674   109.86987451   239.05434367
 H      2   1   3     2.060607092866   109.46358783   120.22504975
 H      3   2   1     2.061135023675   109.41462397   176.70064614
 H      3   2   1     2.059782267198   110.74068365    56.00906368
 H      7   6   4     2.069232253680   108.56535089   326.19244805
 H      7   6   4     2.068536401783   107.88715697    83.48529365
 H      8   7   6     2.052738109803   110.28449030    61.98657454
 H      8   7   6     2.050291507263   109.28889998   182.02204630
 H      8   7   6     2.052024197356   109.88833236   301.99264688

---------------------
BASIS SET INFORMATION
---------------------
There are 3 groups of distinct atoms

 Group   1 Type C   : 11s6p1d contracted to 5s3p1d pattern {62111/411/1}
 Group   2 Type O   : 11s6p2d contracted to 5s3p2d pattern {62111/411/11}
 Group   3 Type H   : 4s1p contracted to 2s1p pattern {31/1}

Atom   0C    basis set group =>   1
Atom   1C    basis set group =>   1
Atom   2C    basis set group =>   1
Atom   3C    basis set group =>   1
Atom   4O    basis set group =>   2
Atom   5O    basis set group =>   2
Atom   6C    basis set group =>   1
Atom   7C    basis set group =>   1
Atom   8H    basis set group =>   3
Atom   9H    basis set group =>   3
Atom  10H    basis set group =>   3
Atom  11H    basis set group =>   3
Atom  12H    basis set group =>   3
Atom  13H    basis set group =>   3
Atom  14H    basis set group =>   3
Atom  15H    basis set group =>   3
Atom  16H    basis set group =>   3
Atom  17H    basis set group =>   3
Atom  18H    basis set group =>   3
Atom  19H    basis set group =>   3
---------------------------------
AUXILIARY/J BASIS SET INFORMATION
---------------------------------
There are 3 groups of distinct atoms

 Group   1 Type C   : 12s5p4d2f1g contracted to 6s4p3d1f1g pattern {711111/2111/211/2/1}
 Group   2 Type O   : 12s5p4d2f1g contracted to 6s4p3d1f1g pattern {711111/2111/211/2/1}
 Group   3 Type H   : 5s2p1d contracted to 3s1p1d pattern {311/2/1}

Atom   0C    basis set group =>   1
Atom   1C    basis set group =>   1
Atom   2C    basis set group =>   1
Atom   3C    basis set group =>   1
Atom   4O    basis set group =>   2
Atom   5O    basis set group =>   2
Atom   6C    basis set group =>   1
Atom   7C    basis set group =>   1
Atom   8H    basis set group =>   3
Atom   9H    basis set group =>   3
Atom  10H    basis set group =>   3
Atom  11H    basis set group =>   3
Atom  12H    basis set group =>   3
Atom  13H    basis set group =>   3
Atom  14H    basis set group =>   3
Atom  15H    basis set group =>   3
Atom  16H    basis set group =>   3
Atom  17H    basis set group =>   3
Atom  18H    basis set group =>   3
Atom  19H    basis set group =>   3

Checking for AutoStart:
The File: sp_solv.gbw exists
Trying to determine its content:
     ... Fine, the file contains calculation information
     ... Fine, the calculation information was read
     ... Fine, the file contains a basis set
     ... Fine, the basis set was read
     ... Fine, the file contains a geometry
     ... Fine, the geometry was read
     ... Fine, the file contains a set of orbitals
     ... Fine, the orbitals can be read
     => possible old guess file was deleted
     => GBW file was renamed to GES file
     => GES file is set as startup file
     => Guess is set to MORead
     ... now leaving AutoStart

------------------------------------------------------------------------------
                             ORCA STARTUP CALCULATIONS
                           -- RI-GTO INTEGRALS CHOSEN --
------------------------------------------------------------------------------
------------------------------------------------------------------------------
                   ___                                                        
                  /   \      - P O W E R E D   B Y -                         
                 /     \                                                     
                 |  |  |   _    _      __       _____    __    __             
                 |  |  |  | |  | |    /  \     |  _  \  |  |  /  |          
                  \  \/   | |  | |   /    \    | | | |  |  | /  /          
                 / \  \   | |__| |  /  /\  \   | |_| |  |  |/  /          
                |  |  |   |  __  | /  /__\  \  |    /   |      \           
                |  |  |   | |  | | |   __   |  |    \   |  |\   \          
                \     /   | |  | | |  |  |  |  | |\  \  |  | \   \       
                 \___/    |_|  |_| |__|  |__|  |_| \__\ |__|  \__/        
                                                                              
                      - O R C A' S   B I G   F R I E N D -                    
                                      &                                       
                       - I N T E G R A L  F E E D E R -                       
                                                                              
 v1 FN, 2020, v2 2021, v3 2022-2024                                           
------------------------------------------------------------------------------


----------------------
SHARK INTEGRAL PACKAGE
----------------------

Number of atoms                             ...     20
Number of basis functions                   ...    222
Number of shells                            ...    110
Maximum angular momentum                    ...      2
Integral batch strategy                     ... SHARK/LIBINT Hybrid
RI-J (if used) integral strategy            ... SPLIT-RIJ (Revised 2003 algorithm where possible)
Printlevel                                  ...      1
Contraction scheme used                     ... SEGMENTED contraction
Prescreening option                         ... SCHWARTZ
   Thresh                                   ... 1.000e-10
   Tcut                                     ... 1.000e-11
   Tpresel                                  ... 1.000e-11 
Coulomb Range Separation                    ... NOT USED
Exchange Range Separation                   ... NOT USED
Multipole approximations                    ... NOT USED
Finite Nucleus Model                        ... NOT USED
CABS basis                                  ... NOT available
Auxiliary Coulomb fitting basis             ... AVAILABLE
   # of basis functions in Aux-J            ...    524
   # of shells in Aux-J                     ...    180
   Maximum angular momentum in Aux-J        ...      4
Auxiliary J/K fitting basis                 ... NOT available
Auxiliary Correlation fitting basis         ... NOT available
Auxiliary 'external' fitting basis          ... NOT available

Checking pre-screening integrals            ... done (  0.0 sec) Dimension = 110
Check shell pair data                       ... done (  0.0 sec)
Shell pair information
Shell pair cut-off parameter TPreSel        ...   1.0e-11
Total number of shell pairs                 ...      6105
Shell pairs after pre-screening             ...      5372
Total number of primitive shell pairs       ...     21533
Primitive shell pairs kept                  ...     13370
          la=0 lb=0:   1806 shell pairs
          la=1 lb=0:   2029 shell pairs
          la=1 lb=1:    592 shell pairs
          la=2 lb=0:    572 shell pairs
          la=2 lb=1:    320 shell pairs
          la=2 lb=2:     53 shell pairs

Calculating one electron integrals          ... done (  0.0 sec)
Calculating RI/J V-Matrix + Cholesky decomp.... done (  0.1 sec)
Calculating Nuclear repulsion               ... done (  0.0 sec) ENN=    396.163068583792 Eh

Diagonalization of the overlap matrix:
Smallest eigenvalue                        ... 1.649e-04
Time for diagonalization                   ...    0.009 sec
Threshold for overlap eigenvalues          ... 1.000e-07
Number of eigenvalues below threshold      ... 0
Time for construction of square roots      ...    0.019 sec
Total time needed                          ...    0.038 sec

-------------------
DFT GRID GENERATION
-------------------

General Integration Accuracy     IntAcc      ... 4.388
Radial Grid Type                 RadialGrid  ... OptM3 with GC (2021)
Angular Grid (max. ang.)         AngularGrid ... 4 (Lebedev-302)
Angular grid pruning method      GridPruning ... 4 (adaptive)
Weight generation scheme         WeightScheme... mBecke (2022)
Basis function cutoff            BFCut       ... 1.0000e-10
Integration weight cutoff        WCut        ... 1.0000e-14
Partially contracted basis set               ... off
Rotationally invariant grid construction     ... off
Angular grids for H and He will be reduced by one unit
Diffuse basis detected: some atoms will have their outermost
                        angular grid increased by 1.

Total number of grid points                  ...    87346
Total number of batches                      ...     1372
Average number of points per batch           ...       63
Average number of grid points per atom       ...     4367
Initializing property integral containers    ... done (  0.0 sec)

SHARK setup successfully completed in   1.4 seconds

Maximum memory used throughout the entire STARTUP-calculation: 39.5 MB
-------------------------------------------------------------------------------
                                 ORCA GUESS
                   Start orbitals & Density for SCF / CASSCF
-------------------------------------------------------------------------------

------------
SCF SETTINGS
------------
Hamiltonian:
 Density Functional     Method          .... DFT(GTOs)
  Functional kind                       .... Exchange
  Functional name                       .... Re-regularized SCAN exchange by Furness et al
  Functional family                     .... MGGA
  Functional refs                              
    [ 0] J. W. Furness, A. D. Kaplan, J. Ning, J. P. Perdew, and J. Sun.,  J. Phys. Chem. Lett. 11, 8208-8215 (2020), doi: 10.1021/acs.jpclett.0c02405
    [ 1] J. W. Furness, A. D. Kaplan, J. Ning, J. P. Perdew, and J. Sun.,  J. Phys. Chem. Lett. 11, 9248-9248 (2020), doi: 10.1021/acs.jpclett.0c03077
  Functional external parameters        .... 6
    Parameter  0 _c1        =  6.670000e-01 : c1 parameter        
    Parameter  1 _c2        =  8.000000e-01 : c2 parameter        
    Parameter  2 _d         =  1.240000e+00 : d parameter         
    Parameter  3 _k1        =  6.500000e-02 : k1 parameter        
    Parameter  4 _eta       =  1.000000e-03 : eta parameter       
    Parameter  5 _dp2       =  3.610000e-01 : dp2 parameter       
  Functional kind                       .... Correlation
  Functional name                       .... Re-regularized SCAN correlation by Furness et al
  Functional family                     .... MGGA
  Functional refs                              
    [ 0] J. W. Furness, A. D. Kaplan, J. Ning, J. P. Perdew, and J. Sun.,  J. Phys. Chem. Lett. 11, 8208-8215 (2020), doi: 10.1021/acs.jpclett.0c02405
    [ 1] J. W. Furness, A. D. Kaplan, J. Ning, J. P. Perdew, and J. Sun.,  J. Phys. Chem. Lett. 11, 9248-9248 (2020), doi: 10.1021/acs.jpclett.0c03077
  Functional external parameters        .... 1
    Parameter  0 _eta       =  1.000000e-03 : Regularization parameter
 Gradients option       PostSCFGGA      .... off
 RI-approximation to the Coulomb term is turned on
   Number of AuxJ basis functions       .... 524


General Settings:
 Integral files         IntName         .... sp_solv
 Hartree-Fock type      HFTyp           .... RHF
 Total Charge           Charge          ....    0
 Multiplicity           Mult            ....    1
 Number of Electrons    NEL             ....   64
 Basis Dimension        Dim             ....  222
 Nuclear Repulsion      ENuc            ....    396.1630685838 Eh

Convergence Acceleration:
 AO-DIIS                CNVDIIS         .... on
   Start iteration      DIISMaxIt       ....    12
   Startup error        DIISStart       ....  0.200000
   # of expansion vecs  DIISMaxEq       ....     5
   Bias factor          DIISBfac        ....   1.050
   Max. coefficient     DIISMaxC        ....  10.000
 MO-DIIS                CNVKDIIS        .... off
 Trust-Rad. Augm. Hess. CNVTRAH         .... auto
   Auto Start mean grad. ratio tolernc. ....  1.125000
   Auto Start start iteration           ....     1
   Auto Start num. interpolation iter.  ....    10
   Max. Number of Micro iterations      ....    24
   Max. Number of Macro iterations      .... Maxiter - #DIIS iter
   Number of Davidson start vectors     ....     2
   Converg. threshold    (grad. norm)   ....   3.330e-04
   Grad. Scal. Fac. for Micro threshold ....   0.100
   Minimum threshold for Micro iter.    ....   1.000e-02
   NR start threshold (gradient norm)   ....   1.000e-04
   Initial trust radius                 ....   0.400
   Minimum AH scaling param. (alpha)    ....   1.000
   Maximum AH scaling param. (alpha)    .... 1000.000
   Quad. conv. algorithm                .... NR
   White noise on init. David. guess    .... on
   Maximum white noise                  ....   0.010
   Pseudo random numbers                .... off
   Inactive MOs                         .... canonical
   Orbital update algorithm             .... Taylor
   Preconditioner                       .... Diag
   Full preconditioner red. dimension   ....   250
   COSX micro iterations for RIJONX calc.... off
 SOSCF                  CNVSOSCF        .... on
   Start iteration      SOSCFMaxIt      ....   150
   Startup grad/error   SOSCFStart      ....  0.003300
   Hessian update       SOSCFHessUp     .... L-BFGS
 Level Shifting         CNVShift        .... on
   Level shift para.    LevelShift      ....    0.2500
   Turn off err/grad.   ShiftErr        ....    0.0010
 Zerner damping         CNVZerner       .... off
 Static damping         CNVDamp         .... on
   Fraction old density DampFac         ....    0.7000
   Max. Damping (<1)    DampMax         ....    0.9800
   Min. Damping (>=0)   DampMin         ....    0.0000
   Turn off err/grad.   DampErr         ....    0.1000

SCF Procedure:
 Maximum # iterations   MaxIter         ....   125
 SCF integral mode      SCFMode         .... Direct
   Integral package                     .... SHARK and LIBINT hybrid scheme
 Reset frequency        DirectResetFreq ....    20
 Integral Threshold     Thresh          ....  1.000e-10 Eh
 Primitive CutOff       TCut            ....  1.000e-11 Eh

Convergence Tolerance:
 Convergence Check Mode ConvCheckMode   .... Total+1el-Energy
 Convergence forced     ConvForced      .... 0
 Energy Change          TolE            ....  1.000e-06 Eh
 1-El. energy change                    ....  1.000e-03 Eh
 Orbital Gradient       TolG            ....  3.330e-04
 Orbital Rotation angle TolX            ....  3.330e-04
 DIIS Error             TolErr          ....  1.000e-06

---------------------
INITIAL GUESS: MOREAD
---------------------
Guess MOs are being read from file: sp_solv.ges
Input Geometry matches current geometry (good)
Atom 0: N(Shells)= 9 and 6 - projection required
Input basis set needs projection
NBasis(read)= 136
NBasis(calc)= 222
Basis set overlap was calculated
Using GuessMode=FMatrix for the initial guess
C*T matrix was formed
Effective Fockian was calculated
Effective Fockian was diagonalized
Initial density was built
                      ------------------
                      INITIAL GUESS DONE (   0.0 sec)
                      ------------------
             **** ENERGY FILE WAS UPDATED (sp_solv.en.tmp) ****
Finished Guess after   0.3 sec
Maximum memory used throughout the entire GUESS-calculation: 15.2 MB

-------------------------------------------------------------------------------------------
                                      ORCA LEAN-SCF
                              memory conserving SCF solver
-------------------------------------------------------------------------------------------

--------------------
CPCM SOLVATION MODEL
--------------------
CPCM parameters:
  Epsilon                                         ...      78.3550
  Refrac                                          ...       1.3328
  Rsolv                                           ...       1.3000
  Surface type                                    ... GAUSSIAN VDW
  Discretization scheme                           ... Constant charge density
    Threshold for H atoms                         ...       5.0000 (charges/Ang^2)
    Threshold for non-H atoms                     ...       5.0000 (charges/Ang^2)
  Epsilon function type                           ...         CPCM
Solvent:                                          ... WATER
SMD-CDS solvent descriptors:
  Soln                                            ...       1.3328
  Soln25                                          ...       1.3323
  Sola                                            ...       0.0000
  Solb                                            ...       0.0000
  Solg                                            ...       0.0000
  Solc                                            ...       0.0000
  Solh                                            ...       0.0000
Radii:
  Scheme                                          ... Element-dependent radii
  Radius for C  used is    3.4960 Bohr (=   1.8500 Ang.)
  Radius for O  used is    2.8724 Bohr (=   1.5200 Ang.)
  Radius for H  used is    2.2677 Bohr (=   1.2000 Ang.)
Calculating surface                               ...        done! (  0.0s)
Cavity surface points                             ...         1492
Cavity Volume                                     ...     880.2216
Cavity Surface-area                               ...     587.6390
Calculating surface distance matrix               ...        done! (  0.0s)
Performing Cholesky decomposition & store         ...        done! (  0.1s)
Overall time for CPCM initialization              ...                 0.1s

----------------------------------------D-I-I-S--------------------------------------------
Iteration    Energy (Eh)           Delta-E    RMSDP     MaxDP     DIISErr   Damp  Time(sec)
-------------------------------------------------------------------------------------------
               ***  Starting incremental Fock matrix formation  ***
    1    -386.0560082992709567     0.00e+00  3.83e-03  1.50e-01  6.27e-01  0.700   3.8
    2    -386.1151161441042632    -5.91e-02  3.11e-03  8.64e-02  4.41e-01  0.700   3.5
    3    -386.1569478332212384    -4.18e-02  2.29e-03  6.27e-02  3.10e-01  0.700   3.3
    4    -386.1863537060723957    -2.94e-02  1.64e-03  4.49e-02  2.17e-01  0.700   3.3
                               ***Turning on AO-DIIS***
    5    -386.2070033954812516    -2.06e-02  1.19e-03  3.25e-02  1.52e-01  0.700   3.4
    6    -386.2214818711659063    -1.45e-02  8.49e-04  2.31e-02  1.06e-01  0.700   3.4
    7    -386.2316463505463844    -1.02e-02  5.99e-04  1.63e-02  7.41e-02  0.700   3.2
    8    -386.2387704979911405    -7.12e-03  1.41e-03  3.82e-02  5.20e-02  0.000   3.1
                              *** Initializing SOSCF ***
---------------------------------------S-O-S-C-F--------------------------------------
Iteration    Energy (Eh)           Delta-E    RMSDP     MaxDP     MaxGrad    Time(sec)
--------------------------------------------------------------------------------------
    9    -386.2554279566985542    -1.67e-02  1.29e-05  5.03e-04  1.86e-04     3.3
               *** Restarting incremental Fock matrix formation ***
   10    -386.2554281329202013    -1.76e-07  6.75e-06  1.83e-04  5.17e-05     3.7
                  *** Gradient check signals convergence ***

               *****************************************************
               *                     SUCCESS                       *
               *           SCF CONVERGED AFTER  10 CYCLES          *
               *****************************************************


SMD CDS free energy correction energy :                 4.94197     Kcal/mol
Total Energy after SMD CDS correction =              -386.247552605 Eh
             **** ENERGY FILE WAS UPDATED (sp_solv.en.tmp) ****

----------------
TOTAL SCF ENERGY
----------------

Total Energy       :       -386.24755260514473 Eh          -10510.33024 eV

Components:
Nuclear Repulsion  :        396.16306858379244 Eh           10780.14515 eV
Electronic Energy  :       -782.40214203275127 Eh          -21290.24466 eV
One Electron Energy:      -1309.61127211079247 Eh          -35636.33443 eV
Two Electron Energy:        527.20913007804120 Eh           14346.08977 eV
CPCM Dielectric    :         -0.01635468396137 Eh              -0.44503 eV
SMD CDS (Gcds)     :          0.00787552777549 Eh               0.21430 eV

Virial components:
Potential Energy   :       -770.88905771806208 Eh          -20976.95771 eV
Kinetic Energy     :        384.64150511291729 Eh           10466.62747 eV
Virial Ratio       :          2.00417543991191

DFT components:
N(Alpha)           :       31.999972011459 electrons
N(Beta)            :       31.999972011459 electrons
N(Total)           :       63.999944022918 electrons
E(X)               :      -52.085356931302 Eh       
E(C)               :       -2.037651662447 Eh       
E(XC)              :      -54.123008593749 Eh       

CPCM Solvation Model Properties:
Surface-charge          :         -0.04726801078453
Corrected charge        :         -0.00000000000000
Outlying charge corr.   :          0.00016939941210 Eh               0.00461 eV
Free-energy (cav+disp)  :          0.00787552777549 Eh               0.21430 eV

---------------
SCF CONVERGENCE
---------------

  Last Energy change         ...    1.7622e-07  Tolerance :   1.0000e-06
  Last MAX-Density change    ...    1.8343e-04  Tolerance :   1.0000e-05
  Last RMS-Density change    ...    6.7457e-06  Tolerance :   1.0000e-06
  Last DIIS Error            ...    1.8618e-04  Tolerance :   1.0000e-06
  Last Orbital Gradient      ...    5.1719e-05  Tolerance :   3.3300e-04
  Last Orbital Rotation      ...    1.1677e-04  Tolerance :   3.3300e-04


----------------
ORBITAL ENERGIES
----------------

  NO   OCC          E(Eh)            E(eV) 
   0   2.0000     -19.002153      -517.0749 
   1   2.0000     -18.942975      -515.4646 
   2   2.0000     -10.161979      -276.5215 
   3   2.0000     -10.083641      -274.3898 
   4   2.0000     -10.035462      -273.0788 
   5   2.0000     -10.028273      -272.8832 
   6   2.0000     -10.018694      -272.6225 
   7   2.0000     -10.011701      -272.4322 
   8   2.0000      -1.079267       -29.3683 
   9   2.0000      -0.987847       -26.8807 
  10   2.0000      -0.771292       -20.9879 
  11   2.0000      -0.733408       -19.9570 
  12   2.0000      -0.671794       -18.2804 
  13   2.0000      -0.610189       -16.6041 
  14   2.0000      -0.564018       -15.3477 
  15   2.0000      -0.531050       -14.4506 
  16   2.0000      -0.466000       -12.6805 
  17   2.0000      -0.458406       -12.4739 
  18   2.0000      -0.451979       -12.2990 
  19   2.0000      -0.419402       -11.4125 
  20   2.0000      -0.401997       -10.9389 
  21   2.0000      -0.382001       -10.3948 
  22   2.0000      -0.369423       -10.0525 
  23   2.0000      -0.363470        -9.8905 
  24   2.0000      -0.349391        -9.5074 
  25   2.0000      -0.332235        -9.0406 
  26   2.0000      -0.319115        -8.6836 
  27   2.0000      -0.311146        -8.4667 
  28   2.0000      -0.306699        -8.3457 
  29   2.0000      -0.300991        -8.1904 
  30   2.0000      -0.276697        -7.5293 
  31   2.0000      -0.247112        -6.7243 
  32   0.0000      -0.023057        -0.6274 
  33   0.0000       0.076165         2.0726 
  34   0.0000       0.103444         2.8149 
  35   0.0000       0.120288         3.2732 
  36   0.0000       0.124907         3.3989 
  37   0.0000       0.131734         3.5847 
  38   0.0000       0.143563         3.9065 
  39   0.0000       0.151164         4.1134 
  40   0.0000       0.153799         4.1851 
  41   0.0000       0.158641         4.3168 
  42   0.0000       0.174156         4.7390 
*Only the first 10 virtual orbitals were printed.

                    ********************************
                    * MULLIKEN POPULATION ANALYSIS *
                    ********************************

-----------------------
MULLIKEN ATOMIC CHARGES
-----------------------
   0 C :   -0.527895
   1 C :   -0.216350
   2 C :   -0.340319
   3 C :    0.394316
   4 O :   -0.514630
   5 O :   -0.176228
   6 C :   -0.145847
   7 C :   -0.489538
   8 H :    0.162762
   9 H :    0.161421
  10 H :    0.161686
  11 H :    0.154474
  12 H :    0.162788
  13 H :    0.189140
  14 H :    0.179295
  15 H :    0.174090
  16 H :    0.171703
  17 H :    0.165668
  18 H :    0.168711
  19 H :    0.164753
Sum of atomic charges:    0.0000000

--------------------------------
MULLIKEN REDUCED ORBITAL CHARGES
--------------------------------
  0 C s       :     3.346050  s :     3.346050
      pz      :     0.971890  p :     3.154834
      px      :     1.085094
      py      :     1.097850
      dz2     :     0.005135  d :     0.027011
      dxz     :     0.008344
      dyz     :     0.004956
      dx2y2   :     0.004276
      dxy     :     0.004299

  1 C s       :     3.191004  s :     3.191004
      pz      :     0.974583  p :     2.988461
      px      :     1.091300
      py      :     0.922579
      dz2     :     0.006197  d :     0.036885
      dxz     :     0.009228
      dyz     :     0.007917
      dx2y2   :     0.006565
      dxy     :     0.006978

  2 C s       :     3.273874  s :     3.273874
      pz      :     1.097250  p :     3.031904
      px      :     0.943198
      py      :     0.991456
      dz2     :     0.004553  d :     0.034541
      dxz     :     0.008029
      dyz     :     0.006896
      dx2y2   :     0.008425
      dxy     :     0.006636

  3 C s       :     3.163548  s :     3.163548
      pz      :     0.759676  p :     2.317134
      px      :     0.806466
      py      :     0.750993
      dz2     :     0.027529  d :     0.125002
      dxz     :     0.038939
      dyz     :     0.021026
      dx2y2   :     0.018574
      dxy     :     0.018934

  4 O s       :     3.831343  s :     3.831343
      pz      :     1.368972  p :     4.659852
      px      :     1.797192
      py      :     1.493687
      dz2     :     0.008811  d :     0.023435
      dxz     :     0.002115
      dyz     :     0.008508
      dx2y2   :     0.001829
      dxy     :     0.002173

  5 O s       :     3.696924  s :     3.696924
      pz      :     1.647182  p :     4.440976
      px      :     1.170143
      py      :     1.623651
      dz2     :     0.007780  d :     0.038329
      dxz     :     0.010199
      dyz     :     0.006837
      dx2y2   :     0.002911
      dxy     :     0.010602

  6 C s       :     3.284536  s :     3.284536
      pz      :     1.036697  p :     2.807992
      px      :     0.742900
      py      :     1.028395
      dz2     :     0.012309  d :     0.053319
      dxz     :     0.009828
      dyz     :     0.004803
      dx2y2   :     0.013029
      dxy     :     0.013349

  7 C s       :     3.336637  s :     3.336637
      pz      :     1.079522  p :     3.127283
      px      :     1.078589
      py      :     0.969172
      dz2     :     0.007757  d :     0.025619
      dxz     :     0.002920
      dyz     :     0.003444
      dx2y2   :     0.005696
      dxy     :     0.005802

  8 H s       :     0.819006  s :     0.819006
      pz      :     0.005467  p :     0.018232
      px      :     0.007055
      py      :     0.005711

  9 H s       :     0.820322  s :     0.820322
      pz      :     0.006101  p :     0.018258
      px      :     0.008447
      py      :     0.003709

 10 H s       :     0.819978  s :     0.819978
      pz      :     0.003692  p :     0.018336
      px      :     0.004670
      py      :     0.009974

 11 H s       :     0.827555  s :     0.827555
      pz      :     0.005277  p :     0.017972
      px      :     0.006927
      py      :     0.005768

 12 H s       :     0.819242  s :     0.819242
      pz      :     0.005864  p :     0.017970
      px      :     0.008720
      py      :     0.003386

 13 H s       :     0.792630  s :     0.792630
      pz      :     0.009857  p :     0.018230
      px      :     0.003458
      py      :     0.004915

 14 H s       :     0.802971  s :     0.802971
      pz      :     0.005362  p :     0.017733
      px      :     0.006415
      py      :     0.005956

 15 H s       :     0.807994  s :     0.807994
      pz      :     0.012057  p :     0.017916
      px      :     0.002407
      py      :     0.003452

 16 H s       :     0.810857  s :     0.810857
      pz      :     0.003650  p :     0.017440
      px      :     0.005011
      py      :     0.008779

 17 H s       :     0.816045  s :     0.816045
      pz      :     0.004097  p :     0.018287
      px      :     0.005686
      py      :     0.008504

 18 H s       :     0.812791  s :     0.812791
      pz      :     0.004631  p :     0.018497
      px      :     0.010273
      py      :     0.003594

 19 H s       :     0.816914  s :     0.816914
      pz      :     0.011209  p :     0.018333
      px      :     0.003615
      py      :     0.003509


------------------------
MULLIKEN OVERLAP CHARGES
------------------------
B(  0-C ,  1-C ) :   0.4309 B(  0-C ,  2-C ) :  -0.2000 B(  0-C ,  8-H ) :   0.8495 
B(  0-C ,  9-H ) :   0.8357 B(  0-C , 10-H ) :   0.7947 B(  0-C , 11-H ) :  -0.0593 
B(  0-C , 12-H ) :  -0.0542 B(  1-C ,  2-C ) :   0.3977 B(  1-C ,  3-C ) :  -0.0793 
B(  1-C ,  8-H ) :  -0.0925 B(  1-C ,  9-H ) :  -0.0815 B(  1-C , 10-H ) :  -0.0735 
B(  1-C , 11-H ) :   0.8454 B(  1-C , 12-H ) :   0.8352 B(  1-C , 13-H ) :  -0.0579 
B(  1-C , 14-H ) :  -0.0757 B(  2-C ,  3-C ) :   0.3189 B(  2-C ,  4-O ) :  -0.0962 
B(  2-C ,  9-H ) :  -0.0551 B(  2-C , 11-H ) :  -0.0563 B(  2-C , 12-H ) :  -0.1085 
B(  2-C , 13-H ) :   0.7684 B(  2-C , 14-H ) :   0.9349 B(  3-C ,  4-O ) :   0.9405 
B(  3-C ,  5-O ) :   0.3309 B(  3-C ,  6-C ) :  -0.1831 B(  3-C ,  9-H ) :   0.0620 
B(  3-C , 14-H ) :  -0.1666 B(  4-O ,  5-O ) :  -0.2135 B(  5-O ,  6-C ) :   0.2666 
B(  5-O ,  7-C ) :  -0.0871 B(  5-O , 15-H ) :  -0.0698 B(  5-O , 16-H ) :  -0.0722 
B(  6-C ,  7-C ) :   0.4612 B(  6-C , 15-H ) :   0.8564 B(  6-C , 16-H ) :   0.7755 
B(  6-C , 17-H ) :  -0.0848 B(  6-C , 18-H ) :  -0.0707 B(  7-C , 15-H ) :  -0.0615 
B(  7-C , 17-H ) :   0.8440 B(  7-C , 18-H ) :   0.8154 B(  7-C , 19-H ) :   0.8120 
B( 15-H , 16-H ) :  -0.0609 B( 17-H , 19-H ) :  -0.0500 


                     *******************************
                     * LOEWDIN POPULATION ANALYSIS *
                     *******************************

----------------------
LOEWDIN ATOMIC CHARGES
----------------------
   0 C :   -0.422940
   1 C :   -0.290412
   2 C :   -0.228946
   3 C :    0.360349
   4 O :   -0.494286
   5 O :   -0.601964
   6 C :    0.036830
   7 C :   -0.390240
   8 H :    0.156085
   9 H :    0.155914
  10 H :    0.156451
  11 H :    0.164800
  12 H :    0.160073
  13 H :    0.191253
  14 H :    0.181339
  15 H :    0.189380
  16 H :    0.183832
  17 H :    0.161909
  18 H :    0.168120
  19 H :    0.162455

-------------------------------
LOEWDIN REDUCED ORBITAL CHARGES
-------------------------------
  0 C s       :     2.971249  s :     2.971249
      pz      :     1.095240  p :     3.388901
      px      :     1.149940
      py      :     1.143721
      dz2     :     0.011512  d :     0.062790
      dxz     :     0.019265
      dyz     :     0.011264
      dx2y2   :     0.010302
      dxy     :     0.010447

  1 C s       :     2.934491  s :     2.934491
      pz      :     1.097681  p :     3.276162
      px      :     1.126360
      py      :     1.052121
      dz2     :     0.012923  d :     0.079759
      dxz     :     0.020333
      dyz     :     0.016678
      dx2y2   :     0.014420
      dxy     :     0.015407

  2 C s       :     2.924722  s :     2.924722
      pz      :     1.112918  p :     3.231319
      px      :     1.025958
      py      :     1.092443
      dz2     :     0.010373  d :     0.072905
      dxz     :     0.017001
      dyz     :     0.014388
      dx2y2   :     0.016555
      dxy     :     0.014588

  3 C s       :     2.739265  s :     2.739265
      pz      :     0.921357  p :     2.628595
      px      :     0.934191
      py      :     0.773047
      dz2     :     0.057344  d :     0.271791
      dxz     :     0.085145
      dyz     :     0.051613
      dx2y2   :     0.037387
      dxy     :     0.040303

  4 O s       :     3.546793  s :     3.546793
      pz      :     1.485581  p :     4.730459
      px      :     1.742779
      py      :     1.502099
      dz2     :     0.054738  d :     0.217035
      dxz     :     0.059605
      dyz     :     0.054661
      dx2y2   :     0.021884
      dxy     :     0.026147

  5 O s       :     3.458216  s :     3.458216
      pz      :     1.655428  p :     4.658594
      px      :     1.365017
      py      :     1.638148
      dz2     :     0.090683  d :     0.485154
      dxz     :     0.106902
      dyz     :     0.049876
      dx2y2   :     0.104066
      dxy     :     0.133627

  6 C s       :     2.869124  s :     2.869124
      pz      :     1.057357  p :     2.974572
      px      :     0.844051
      py      :     1.073164
      dz2     :     0.030204  d :     0.119474
      dxz     :     0.021958
      dyz     :     0.008492
      dx2y2   :     0.027572
      dxy     :     0.031248

  7 C s       :     2.972349  s :     2.972349
      pz      :     1.146985  p :     3.357849
      px      :     1.129342
      py      :     1.081522
      dz2     :     0.019020  d :     0.060042
      dxz     :     0.006822
      dyz     :     0.007615
      dx2y2   :     0.013487
      dxy     :     0.013098

  8 H s       :     0.800109  s :     0.800109
      pz      :     0.012910  p :     0.043806
      px      :     0.017212
      py      :     0.013683

  9 H s       :     0.800001  s :     0.800001
      pz      :     0.014668  p :     0.044085
      px      :     0.021141
      py      :     0.008276

 10 H s       :     0.799627  s :     0.799627
      pz      :     0.008439  p :     0.043923
      px      :     0.010717
      py      :     0.024767

 11 H s       :     0.791327  s :     0.791327
      pz      :     0.012824  p :     0.043872
      px      :     0.017210
      py      :     0.013838

 12 H s       :     0.796197  s :     0.796197
      pz      :     0.014162  p :     0.043730
      px      :     0.021738
      py      :     0.007830

 13 H s       :     0.763732  s :     0.763732
      pz      :     0.024928  p :     0.045015
      px      :     0.008175
      py      :     0.011913

 14 H s       :     0.775069  s :     0.775069
      pz      :     0.013453  p :     0.043593
      px      :     0.015263
      py      :     0.014876

 15 H s       :     0.767847  s :     0.767847
      pz      :     0.028888  p :     0.042773
      px      :     0.006028
      py      :     0.007857

 16 H s       :     0.775170  s :     0.775170
      pz      :     0.008780  p :     0.040998
      px      :     0.010885
      py      :     0.021333

 17 H s       :     0.794278  s :     0.794278
      pz      :     0.009412  p :     0.043813
      px      :     0.013788
      py      :     0.020612

 18 H s       :     0.787465  s :     0.787465
      pz      :     0.010849  p :     0.044415
      px      :     0.025512
      py      :     0.008054

 19 H s       :     0.793706  s :     0.793706
      pz      :     0.028154  p :     0.043839
      px      :     0.007919
      py      :     0.007767


---------------------------------
LOEWDIN BOND ORDERS (THRESH 0.050000)
---------------------------------
B(  0-C ,  1-C ) :   1.1419 B(  0-C ,  2-C ) :   0.0666 B(  0-C ,  8-H ) :   0.9276 
B(  0-C ,  9-H ) :   0.9200 B(  0-C , 10-H ) :   0.9281 B(  1-C ,  2-C ) :   1.0806 
B(  1-C ,  3-C ) :   0.0709 B(  1-C , 11-H ) :   0.8855 B(  1-C , 12-H ) :   0.8904 
B(  2-C ,  3-C ) :   0.9313 B(  2-C ,  4-O ) :   0.1830 B(  2-C ,  5-O ) :   0.1766 
B(  2-C , 13-H ) :   0.8569 B(  2-C , 14-H ) :   0.8684 B(  3-C ,  4-O ) :   2.1381 
B(  3-C ,  5-O ) :   1.4672 B(  3-C ,  6-C ) :   0.0885 B(  4-O ,  5-O ) :   0.4563 
B(  4-O ,  6-C ) :   0.0728 B(  5-O ,  6-C ) :   1.2892 B(  5-O ,  7-C ) :   0.1695 
B(  5-O , 15-H ) :   0.0917 B(  5-O , 16-H ) :   0.0947 B(  6-C ,  7-C ) :   1.0906 
B(  6-C , 15-H ) :   0.8142 B(  6-C , 16-H ) :   0.8268 B(  7-C , 17-H ) :   0.9228 
B(  7-C , 18-H ) :   0.9155 B(  7-C , 19-H ) :   0.9203 

------------------------------------------
LOEWDIN REDUCED ORBITAL POPULATIONS PER MO
-------------------------------------------
THRESHOLD FOR PRINTING IS 0.1%%
                      0         1         2         3         4         5   
                 -19.00215 -18.94298 -10.16198 -10.08364 -10.03546 -10.02827
                   2.00000   2.00000   2.00000   2.00000   2.00000   2.00000
                  --------  --------  --------  --------  --------  --------
 1 C  s               0.0       0.0       0.0       0.0       0.0      99.7
 2 C  s               0.0       0.0       0.0       0.0      99.7       0.0
 3 C  s               0.0       0.0      98.9       0.0       0.0       0.0
 4 O  s               0.0      99.9       0.0       0.0       0.0       0.0
 4 O  pz              0.0       0.0       0.2       0.0       0.0       0.0
 4 O  dz2             0.0       0.0       0.1       0.0       0.0       0.0
 4 O  dyz             0.0       0.0       0.2       0.0       0.0       0.0
 5 O  s              99.9       0.0       0.0       0.0       0.0       0.0
 5 O  dxz             0.0       0.0       0.1       0.1       0.0       0.0
 5 O  dx2y2           0.0       0.0       0.0       0.1       0.0       0.0
 5 O  dxy             0.0       0.0       0.1       0.0       0.0       0.0
 6 C  s               0.0       0.0       0.0      99.4       0.0       0.0

                      6         7         8         9        10        11   
                 -10.01869 -10.01170  -1.07927  -0.98785  -0.77129  -0.73341
                   2.00000   2.00000   2.00000   2.00000   2.00000   2.00000
                  --------  --------  --------  --------  --------  --------
 0 C  s               0.0      99.7       0.0       0.0       7.2       6.3
 0 C  pz              0.0       0.0       0.0       0.0       1.4       0.6
 0 C  px              0.0       0.0       0.0       0.0       0.2       0.0
 0 C  py              0.0       0.0       0.0       0.0       0.7       0.2
 1 C  s               0.0       0.0       0.1       0.0      17.3       8.3
 1 C  pz              0.0       0.1       0.0       0.0       0.7       0.5
 1 C  px              0.0       0.0       0.2       0.0       0.3       0.0
 1 C  py              0.0       0.0       0.1       0.0       1.0       0.0
 2 C  s               0.0       0.0       1.0       0.2      19.4       2.0
 2 C  pz              0.0       0.0       0.3       0.3       0.0       0.0
 2 C  px              0.0       0.0       1.7       0.1       0.1       1.1
 2 C  py              0.0       0.0       0.0       0.1       1.9       0.8
 3 C  s               0.0       0.0      16.9       3.2       3.2       0.8
 3 C  pz              0.0       0.0       0.1      15.6       3.9       0.9
 3 C  px              0.0       0.0       4.4       0.8       5.3       1.0
 3 C  py              0.0       0.0       0.4       7.3       0.5       0.6
 3 C  dz2             0.0       0.0       0.1       0.7       0.0       0.0
 3 C  dxz             0.0       0.0       0.1       0.5       0.0       0.1
 3 C  dyz             0.0       0.0       0.7       0.3       0.0       0.0
 3 C  dxy             0.0       0.0       0.2       0.3       0.0       0.1
 4 O  s               0.0       0.0      14.1      41.3       1.3       0.2
 4 O  pz              0.0       0.0       2.4       2.4       0.3       0.1
 4 O  px              0.0       0.0       0.0       0.2       0.2       0.0
 4 O  py              0.0       0.0       0.8       0.6       0.0       0.0
 4 O  dz2             0.0       0.0       0.4       0.0       0.2       0.1
 4 O  dxz             0.0       0.0       0.0       0.1       0.3       0.0
 4 O  dyz             0.0       0.0       0.9       0.1       0.1       0.1
 5 O  s               0.0       0.0      39.7      18.3       0.1       1.0
 5 O  pz              0.0       0.0       1.9       0.3       0.1       0.1
 5 O  px              0.0       0.0       0.1       0.5       6.8       8.5
 5 O  py              0.0       0.0       0.9       0.2       0.6       1.5
 5 O  dz2             0.0       0.0       0.0       0.2       0.1       0.3
 5 O  dxz             0.0       0.0       0.1       0.4       0.2       0.6
 5 O  dyz             0.0       0.0       0.4       0.5       0.0       0.0
 5 O  dx2y2           0.0       0.0       0.1       0.2       0.0       0.8
 5 O  dxy             0.0       0.0       0.4       0.1       0.1       0.1
 6 C  s               0.0       0.0       4.1       1.9       5.5      16.6
 6 C  pz              0.0       0.0       0.4       0.6       0.2       0.3
 6 C  px              0.0       0.0       4.7       1.3       0.1       1.2
 6 C  py              0.1       0.0       0.2       0.1       0.2       1.9
 6 C  dxz             0.0       0.0       0.1       0.1       0.0       0.0
 6 C  dx2y2           0.0       0.0       0.2       0.1       0.0       0.0
 7 C  s              99.7       0.0       0.3       0.2       3.0      18.9
 7 C  pz              0.0       0.0       0.0       0.0       0.1       0.2
 7 C  px              0.0       0.0       0.3       0.2       0.2       0.3
 7 C  py              0.0       0.0       0.3       0.2       0.5       1.3
 8 H  s               0.0       0.0       0.0       0.0       0.9       0.9
 9 H  s               0.0       0.0       0.0       0.0       1.0       0.9
10 H  s               0.0       0.0       0.0       0.0       0.9       0.9
11 H  s               0.0       0.0       0.0       0.0       2.3       1.1
12 H  s               0.0       0.0       0.0       0.0       2.2       1.3
12 H  px              0.0       0.0       0.0       0.0       0.1       0.1
13 H  s               0.0       0.0       0.1       0.0       2.7       0.2
13 H  pz              0.0       0.0       0.0       0.0       0.2       0.0
14 H  s               0.0       0.0       0.1       0.0       2.5       0.4
15 H  s               0.0       0.0       0.3       0.1       0.7       2.5
15 H  pz              0.0       0.0       0.0       0.0       0.1       0.2
16 H  s               0.0       0.0       0.2       0.1       0.8       2.7
16 H  py              0.0       0.0       0.0       0.0       0.1       0.2
17 H  s               0.0       0.0       0.0       0.0       0.4       2.9
17 H  py              0.0       0.0       0.0       0.0       0.0       0.2
18 H  s               0.0       0.0       0.0       0.0       0.4       3.0
18 H  px              0.0       0.0       0.0       0.0       0.0       0.2
19 H  s               0.0       0.0       0.0       0.0       0.4       3.0
19 H  pz              0.0       0.0       0.0       0.0       0.0       0.3

                     12        13        14        15        16        17   
                  -0.67179  -0.61019  -0.56402  -0.53105  -0.46600  -0.45841
                   2.00000   2.00000   2.00000   2.00000   2.00000   2.00000
                  --------  --------  --------  --------  --------  --------
 0 C  s              20.5       4.5       8.3       0.3       0.3       0.1
 0 C  pz              0.1       0.6       6.8       0.6       0.0       1.2
 0 C  px              0.0       0.0       0.2       0.1       1.9       1.4
 0 C  py              0.1       0.3       0.5       0.0       0.5       0.5
 1 C  s               3.1       1.4      13.9       1.0       0.0       0.4
 1 C  pz              2.0       1.4       7.1       0.4       1.0       0.1
 1 C  px              1.4       0.0       0.0       0.0       2.1       2.9
 1 C  py              6.0       2.0       0.1       0.5       0.0       6.2
 1 C  dz2             0.1       0.0       0.0       0.0       0.0       0.0
 2 C  s              11.8       3.9       1.9       1.2       0.3       2.1
 2 C  pz              0.0       0.3       2.2       0.0       7.0       2.1
 2 C  px              1.3       2.0       1.7       0.6       0.3      11.9
 2 C  py              1.7       0.1       6.0       1.4       2.7       1.5
 2 C  dxz             0.0       0.0       0.0       0.0       0.1       0.2
 2 C  dx2y2           0.1       0.1       0.1       0.0       0.0       0.0
 3 C  s               2.6       1.9       1.2       2.1       0.6       1.3
 3 C  pz              2.3       0.9       0.4       0.4       4.7       0.9
 3 C  px              4.4       0.9       3.2       2.5       5.1       6.7
 3 C  py              0.1       1.1       0.5       1.1       6.3       1.6
 4 O  s               0.8       0.3       1.2       1.6       1.9       0.3
 4 O  pz              0.4       0.3       0.9       1.4       0.5       2.0
 4 O  px              0.4       0.0       0.7       1.2       3.6       5.4
 4 O  py              0.0       0.2       0.0       1.5       7.3       0.4
 4 O  dz2             0.1       0.1       0.0       0.0       0.3       0.2
 4 O  dxz             0.4       0.0       0.2       0.1       0.3       0.3
 4 O  dyz             0.0       0.1       0.0       0.2       0.3       0.0
 4 O  dx2y2           0.0       0.1       0.1       0.0       0.1       0.0
 4 O  dxy             0.0       0.0       0.0       0.1       0.1       0.3
 5 O  s               0.8       0.0       0.6       5.6       0.1       0.3
 5 O  pz              0.1       0.0       0.1       7.8       5.7      12.0
 5 O  px              1.3      16.4       0.6       7.2       0.2       0.3
 5 O  py              0.1       1.3       0.2       7.1      16.3       0.1
 5 O  dz2             0.4       0.0       0.1       0.0       0.2       1.1
 5 O  dxz             0.0       0.7       0.1       0.4       0.1       0.2
 5 O  dyz             0.0       0.0       0.0       0.1       0.1       0.0
 5 O  dx2y2           0.3       0.2       0.2       0.4       0.1       0.6
 5 O  dxy             0.7       0.4       0.1       0.1       0.1       0.0
 6 C  s               0.5       4.2       2.6       6.2       0.1       0.4
 6 C  pz              0.0       0.2       0.4      11.2       2.6       7.0
 6 C  px              1.6       2.7       0.1       6.3       3.6       2.8
 6 C  py              1.0       4.3       1.1       2.7       6.6       1.0
 6 C  dxz             0.1       0.1       0.0       0.4       0.0       0.0
 6 C  dx2y2           0.1       0.1       0.0       0.1       0.0       0.0
 7 C  s               6.7      16.0       1.6       0.6       0.1       0.2
 7 C  pz              0.0       0.2       0.3       2.5       1.1       0.9
 7 C  px              0.0       1.0       0.1       0.5       2.7       0.0
 7 C  py              0.0       2.2       1.2       1.8       0.3       3.8
 8 H  s               4.0       1.2       3.9       0.3       0.4       1.2
 8 H  px              0.2       0.0       0.1       0.0       0.0       0.0
 8 H  py              0.1       0.0       0.1       0.0       0.0       0.0
 9 H  s               3.9       1.5       4.0       0.2       0.1       0.0
 9 H  pz              0.1       0.0       0.0       0.0       0.0       0.0
 9 H  px              0.2       0.1       0.2       0.0       0.0       0.0
10 H  s               4.5       1.4       3.1       0.1       0.7       0.0
10 H  py              0.3       0.1       0.2       0.0       0.0       0.0
11 H  s               0.5       0.2       6.4       0.7       0.1       3.3
11 H  px              0.0       0.0       0.2       0.0       0.0       0.1
11 H  py              0.0       0.0       0.2       0.0       0.0       0.0
12 H  s               0.7       0.6       6.4       0.4       0.6       0.1
12 H  px              0.0       0.0       0.4       0.0       0.0       0.0
13 H  s               3.1       1.2       0.6       0.5       3.7       2.6
13 H  pz              0.3       0.1       0.1       0.0       0.1       0.1
13 H  px              0.0       0.0       0.0       0.0       0.0       0.1
14 H  s               2.4       1.4       1.5       1.5       0.1       4.0
14 H  pz              0.1       0.0       0.0       0.0       0.0       0.2
14 H  px              0.1       0.0       0.1       0.0       0.0       0.0
15 H  s               0.1       1.2       1.1       8.3       1.0       1.6
15 H  pz              0.0       0.1       0.1       0.4       0.1       0.0
16 H  s               0.1       1.5       1.5       5.2       3.4       2.8
16 H  pz              0.0       0.0       0.0       0.1       0.0       0.0
16 H  py              0.0       0.1       0.1       0.2       0.1       0.1
17 H  s               1.3       4.7       0.8       0.7       0.4       1.5
17 H  px              0.0       0.1       0.0       0.0       0.0       0.0
17 H  py              0.1       0.2       0.0       0.0       0.0       0.0
18 H  s               1.6       5.4       0.6       0.0       0.6       0.4
18 H  px              0.1       0.4       0.0       0.0       0.0       0.0
19 H  s               1.3       4.5       0.7       1.1       0.6       0.1
19 H  pz              0.1       0.4       0.1       0.1       0.0       0.0

                     18        19        20        21        22        23   
                  -0.45198  -0.41940  -0.40200  -0.38200  -0.36942  -0.36347
                   2.00000   2.00000   2.00000   2.00000   2.00000   2.00000
                  --------  --------  --------  --------  --------  --------
 0 C  s               0.0       0.2       0.0       0.1       0.0       0.0
 0 C  pz              0.7       0.1       3.3       2.1       7.5       1.1
 0 C  px              0.9       0.0      15.7       4.4       0.2       1.9
 0 C  py              0.1      13.0       0.4       1.9      15.1       0.0
 0 C  dxy             0.0       0.0       0.0       0.0       0.1       0.0
 1 C  s               0.3       0.1       0.0       0.4       0.1       0.0
 1 C  pz              0.0       6.7       0.1       4.9       0.0       0.2
 1 C  px              4.2       0.7      19.4       0.9       0.2       0.6
 1 C  py              0.0       6.0       0.3       1.1       6.9       0.1
 1 C  dx2y2           0.0       0.0       0.1       0.0       0.0       0.0
 2 C  s               0.1       0.0       0.5       0.0       0.2       0.0
 2 C  pz              1.0      10.5       4.4       7.8       4.7       0.5
 2 C  px              1.4       5.5       0.2       0.1       0.8       2.0
 2 C  py              1.0       3.8       1.6       0.0       6.9       0.1
 2 C  dx2y2           0.0       0.0       0.2       0.0       0.0       0.0
 2 C  dxy             0.0       0.0       0.0       0.0       0.2       0.0
 3 C  s               2.1       0.1       0.2       0.1       0.1       0.3
 3 C  pz              3.3       1.0       0.9       3.5       0.8       1.9
 3 C  px              0.9       0.1       1.5       0.1       0.8       0.4
 3 C  py              3.7       3.1       0.6       4.9       2.0       0.6
 3 C  dz2             0.0       0.0       0.0       0.3       0.0       0.1
 3 C  dxz             0.0       0.1       0.1       0.0       0.0       0.0
 3 C  dxy             0.0       0.0       0.1       0.0       0.2       0.0
 4 O  s              12.5       0.3       0.1       0.3       0.2       0.4
 4 O  pz             33.9       3.1       0.1       0.1       5.9       3.2
 4 O  px              0.5       0.1       2.6       0.3       0.8       0.7
 4 O  py              4.9       0.5       2.3      13.0       0.7       0.6
 4 O  dz2             0.3       0.1       0.0       0.1       0.1       0.0
 4 O  dxz             0.0       0.0       0.2       0.0       0.1       0.0
 4 O  dyz             0.1       0.1       0.0       0.1       0.1       0.1
 4 O  dx2y2           0.0       0.0       0.0       0.3       0.0       0.0
 5 O  s               0.5       0.1       0.9       0.0       0.1       2.2
 5 O  pz              2.5       0.1       3.2       0.1       3.6       4.5
 5 O  px              6.0       0.5       2.6       3.2       0.0       0.1
 5 O  py              3.9       0.6       1.2       7.2       0.2       0.9
 5 O  dz2             0.0       0.0       0.0       0.0       0.1       0.2
 5 O  dxz             0.4       0.5       0.0       0.4       0.1       0.0
 5 O  dyz             0.2       0.0       0.1       0.0       0.0       0.0
 5 O  dx2y2           0.4       0.2       0.1       0.4       0.0       0.2
 5 O  dxy             0.0       0.7       0.4       0.0       0.5       0.3
 6 C  s               0.4       0.0       0.2       0.1       0.1       0.1
 6 C  pz              2.0       2.7       1.0       3.1       0.1       0.1
 6 C  px              1.5       2.7       0.8       3.0       0.4       1.1
 6 C  py              0.7       3.7       3.4       1.0       2.7       0.7
 6 C  dx2y2           0.0       0.0       0.0       0.0       0.1       0.1
 7 C  s               0.2       0.0       0.1       0.1       0.0       0.0
 7 C  pz              1.4       2.5       5.1       3.7       1.6      20.9
 7 C  px              0.1       3.3       0.6       0.0       8.3      20.1
 7 C  py              0.7       1.4       0.6      12.6       0.1       0.9
 7 C  dz2             0.0       0.0       0.0       0.0       0.0       0.2
 7 C  dxz             0.0       0.0       0.0       0.0       0.0       0.1
 7 C  dx2y2           0.0       0.0       0.0       0.0       0.1       0.2
 8 H  s               0.0       0.7       1.5       1.0       6.5       0.1
 8 H  pz              0.0       0.0       0.1       0.0       0.0       0.0
 8 H  px              0.0       0.0       0.0       0.0       0.2       0.0
 9 H  s               0.7       0.0       7.4       0.1       0.5       1.4
 9 H  pz              0.0       0.0       0.1       0.0       0.0       0.0
 9 H  py              0.0       0.1       0.0       0.0       0.1       0.0
10 H  s               0.0       5.0       0.3       1.7       6.4       0.2
10 H  py              0.0       0.1       0.0       0.0       0.1       0.0
11 H  s               0.2       3.1       1.7       0.1       0.5       0.1
12 H  s               1.5       0.1       6.1       1.1       0.0       0.1
12 H  pz              0.0       0.0       0.2       0.0       0.0       0.0
13 H  s               0.3       6.4       1.9       3.1       0.2       0.1
13 H  pz              0.0       0.2       0.0       0.0       0.0       0.0
14 H  s               0.6       1.4       0.5       0.5       6.2       0.3
14 H  px              0.0       0.0       0.0       0.0       0.1       0.0
14 H  py              0.0       0.2       0.0       0.0       0.0       0.0
15 H  s               1.5       1.2       0.7       1.0       0.0       0.2
16 H  s               0.0       2.9       0.3       0.3       0.2       0.2
17 H  s               0.1       1.7       0.0       5.4       1.1       2.0
17 H  pz              0.0       0.0       0.0       0.0       0.0       0.2
17 H  px              0.0       0.0       0.0       0.1       0.0       0.0
18 H  s               0.0       0.4       0.0       0.7       2.7      16.5
18 H  px              0.0       0.0       0.0       0.0       0.0       0.3
19 H  s               0.8       1.1       2.5       1.4       1.0       9.5
19 H  pz              0.0       0.0       0.1       0.0       0.0       0.2
19 H  px              0.0       0.0       0.0       0.0       0.1       0.2

                     24        25        26        27        28        29   
                  -0.34939  -0.33223  -0.31912  -0.31115  -0.30670  -0.30099
                   2.00000   2.00000   2.00000   2.00000   2.00000   2.00000
                  --------  --------  --------  --------  --------  --------
 0 C  s               0.0       0.1       0.2       0.1       0.4       0.0
 0 C  pz              1.9       1.0      13.0       4.6       6.4       0.8
 0 C  px             10.0       0.5       4.2       3.2       6.6       5.7
 0 C  py              0.5       2.9       1.8       0.8       9.8       7.9
 0 C  dz2             0.0       0.0       0.0       0.0       0.3       0.0
 0 C  dxz             0.0       0.1       0.1       0.2       0.0       0.4
 0 C  dyz             0.0       0.0       0.0       0.0       0.1       0.1
 0 C  dx2y2           0.0       0.0       0.2       0.0       0.1       0.1
 0 C  dxy             0.0       0.0       0.1       0.0       0.0       0.1
 1 C  s               0.0       0.1       0.3       0.0       0.0       0.1
 1 C  pz              2.2       1.9      11.4       5.4       6.2       1.5
 1 C  px              0.1       0.2       1.6       3.6       8.0       7.7
 1 C  py              0.8       0.4       1.0       0.5       6.4      12.5
 1 C  dz2             0.0       0.0       0.0       0.0       0.3       0.0
 1 C  dxz             0.0       0.0       0.1       0.3       0.0       0.4
 1 C  dyz             0.0       0.0       0.1       0.0       0.3       0.2
 1 C  dx2y2           0.1       0.0       0.2       0.1       0.1       0.0
 1 C  dxy             0.1       0.0       0.3       0.0       0.0       0.3
 2 C  s               0.1       0.0       0.8       0.0       0.3       0.2
 2 C  pz              0.9       0.1       0.8       0.6       6.4       0.5
 2 C  px              8.6       2.8       0.2       0.9       3.8       0.1
 2 C  py              3.6       0.0       4.7       0.1       8.2       8.0
 2 C  dz2             0.0       0.0       0.0       0.0       0.2       0.0
 2 C  dxz             0.2       0.0       0.0       0.1       0.0       0.1
 2 C  dyz             0.0       0.0       0.1       0.0       0.4       0.0
 2 C  dxy             0.0       0.0       0.0       0.0       0.0       0.2
 3 C  s               0.2       0.0       0.1       0.5       0.0       0.0
 3 C  pz              0.1       1.5       0.1       2.1       0.1       0.1
 3 C  px              5.4       0.0       0.2       0.4       0.1       0.6
 3 C  py              0.4       1.4       0.7       0.7       0.3       0.4
 3 C  dz2             0.0       0.4       0.0       0.2       0.3       0.0
 3 C  dxz             0.0       0.2       0.2       0.0       0.0       0.0
 3 C  dyz             0.1       0.0       0.0       0.1       0.2       0.1
 3 C  dx2y2           0.1       0.0       0.1       0.2       0.0       0.0
 3 C  dxy             0.0       0.0       0.1       0.1       0.1       0.1
 4 O  s               0.0       0.1       0.1       0.4       0.0       0.0
 4 O  pz              2.5       0.6       0.4       4.7       2.6       1.0
 4 O  px              3.4       2.0       2.4       1.4       1.1       0.1
 4 O  py              1.3       9.2       2.1       0.9       7.0       0.5
 4 O  dz2             0.0       0.1       0.0       0.2       0.0       0.0
 4 O  dyz             0.0       0.0       0.1       0.2       0.0       0.0
 5 O  s               0.0       0.4       0.4       1.5       0.0       0.2
 5 O  pz              0.5       9.2       0.5      13.4       0.1       2.7
 5 O  px              4.5       1.0       1.3       2.2       0.1       0.0
 5 O  py              0.2       0.9       1.4       6.4       0.0       0.2
 5 O  dz2             0.0       0.0       0.2       0.8       0.1       0.1
 5 O  dxz             0.1       0.1       0.1       0.3       0.0       0.0
 5 O  dyz             0.0       0.0       0.0       0.2       0.1       0.0
 5 O  dx2y2           0.3       0.0       0.2       0.2       0.0       0.0
 5 O  dxy             0.3       0.7       0.1       0.5       0.1       0.1
 6 C  s               0.1       0.2       0.1       0.4       0.0       0.0
 6 C  pz              0.9       0.3       6.1       8.0       0.0       2.8
 6 C  px              3.5       2.8       0.1       0.1       0.0       0.3
 6 C  py              8.1       5.5       0.5       2.0       0.1       0.0
 6 C  dz2             0.0       0.0       0.2       0.4       0.0       0.2
 6 C  dx2y2           0.1       0.3       0.0       0.0       0.0       0.0
 6 C  dxy             0.0       0.2       0.1       0.2       0.0       0.0
 7 C  s               0.2       0.1       0.1       0.4       0.0       0.0
 7 C  pz              0.0       3.0       6.9       4.8       0.0       1.5
 7 C  px              8.0       8.7       0.6       0.6       0.0       0.6
 7 C  py              9.3      11.5       0.3       2.1       0.1       0.1
 7 C  dz2             0.0       0.1       0.2       0.1       0.0       0.1
 7 C  dx2y2           0.1       0.1       0.0       0.0       0.0       0.0
 7 C  dxy             0.0       0.3       0.0       0.0       0.0       0.0
 8 H  s               4.9       0.6       0.6       0.5       0.7       9.9
 8 H  py              0.1       0.0       0.0       0.0       0.1       0.0
 9 H  s               1.5       0.9       7.9       4.8       0.7       2.1
 9 H  pz              0.1       0.0       0.0       0.0       0.1       0.1
 9 H  px              0.0       0.0       0.1       0.0       0.0       0.0
 9 H  py              0.0       0.0       0.0       0.0       0.1       0.1
10 H  s               0.1       0.7       4.5       0.1       6.7       2.5
10 H  pz              0.0       0.0       0.1       0.0       0.1       0.0
10 H  px              0.1       0.0       0.0       0.0       0.0       0.1
[...]
 3 C  pz              0.3       0.6       1.6       5.9       0.0       0.0
 3 C  px              0.2       0.5       3.5       0.2       0.0       0.0
 3 C  py              0.1       0.5       2.0       1.7       0.0       0.0
 3 C  dz2             0.7       0.1       0.2       2.6       0.0       0.0
 3 C  dxz             4.5       1.0       5.5       0.5       0.0       0.0
 3 C  dyz             1.1       0.2       2.0       3.2       0.0       0.0
 3 C  dx2y2           3.1       0.0       0.0       0.2       0.0       0.0
 3 C  dxy             0.1       0.8       4.3       0.2       0.0       0.0
 4 O  s               0.5       1.1       0.6      19.5       0.0       0.0
 4 O  pz              0.6       0.6       0.2      15.7       0.0       0.0
 4 O  px              3.8       0.1       0.2       1.0       0.0       0.0
 4 O  py              1.1       0.3       0.1       5.0       0.0       0.0
 4 O  dz2             0.0       0.8       0.0      12.5       0.0       0.0
 4 O  dxz             7.7       0.0       1.3       2.6       0.0       0.0
 4 O  dyz             2.4       1.0       0.0      15.6       0.0       0.0
 4 O  dx2y2           0.6       0.3       0.6       0.9       0.0       0.0
 4 O  dxy             3.5       0.0       0.0       0.8       0.0       0.0
 5 O  s               3.6      26.0       5.3       1.2       0.0       0.0
 5 O  pz              2.8       6.0       1.6       0.2       0.0       0.0
 5 O  px              0.1       7.6      24.4       0.6       0.0       0.0
 5 O  py              1.1       0.2       6.4       0.1       0.0       0.0
 5 O  dz2             2.5       2.5       0.1       0.1       0.0       0.0
 5 O  dxz             0.0       2.4      16.0       0.7       0.0       0.0
 5 O  dyz             2.2       0.7       5.2       0.0       0.0       0.0
 5 O  dx2y2           0.6      14.1       0.1       1.2       0.0       0.0
 5 O  dxy             0.1       5.4       8.1       0.1       0.0       0.0
 6 C  s               0.1       1.4       0.6       0.2      17.0       0.7
 6 C  pz              0.0       0.9       0.6       0.1       0.0       0.0
 6 C  px              0.0       7.0       1.6       0.3       0.0       0.0
 6 C  dz2             0.1       0.7       0.6       0.1       0.0       0.0
 6 C  dxz             0.4       5.0       1.0       0.3       0.0       0.0
 6 C  dx2y2           0.0       6.2       1.3       0.3       0.0       0.0
 6 C  dxy             0.2       1.0       0.1       0.0       0.0       0.0
 7 C  s               0.0       0.0       0.0       0.0      68.3       9.1
 7 C  dxz             0.0       0.1       0.0       0.0       0.0       0.0
 7 C  dx2y2           0.1       0.4       0.0       0.0       0.0       0.0
 9 H  s               0.6       0.0       0.0       0.0       0.0       0.0
 9 H  pz              0.5       0.0       0.0       0.0       0.0       0.0
 9 H  px              1.0       0.0       0.0       0.0       0.0       0.0
 9 H  py              0.1       0.0       0.0       0.0       0.0       0.0
10 H  s               0.3       0.0       0.0       0.0       0.0       0.0
10 H  px              0.1       0.0       0.0       0.0       0.0       0.0
10 H  py              0.6       0.0       0.0       0.0       0.0       0.0
11 H  s               0.8       0.0       0.0       0.0       0.0       0.0
11 H  pz              1.0       0.0       0.0       0.0       0.0       0.0
11 H  px              0.6       0.0       0.0       0.0       0.0       0.0
11 H  py              0.5       0.0       0.0       0.0       0.0       0.0
12 H  s               1.3       0.0       0.0       0.0       0.0       0.0
12 H  pz              0.5       0.0       0.0       0.0       0.0       0.0
12 H  px              2.7       0.0       0.0       0.0       0.0       0.0
13 H  s               1.0       0.0       0.0       0.0       0.0       0.0
13 H  pz              1.0       0.0       0.0       0.0       0.0       0.0
13 H  py              0.8       0.0       0.0       0.0       0.0       0.0
14 H  s               4.6       0.0       0.1       0.1       0.0       0.0
14 H  pz              2.1       0.0       0.0       0.0       0.0       0.0
14 H  px              3.5       0.0       0.0       0.0       0.0       0.0
14 H  py              4.0       0.0       0.0       0.0       0.0       0.0
15 H  s               0.0       0.2       0.2       0.0       0.0       0.0
15 H  pz              0.0       0.4       0.2       0.0       0.0       0.0
15 H  px              0.3       0.3       0.1       0.0       0.0       0.0
16 H  s               0.0       0.6       0.0       0.0       0.0       0.0
16 H  pz              0.0       0.3       0.1       0.0       0.0       0.0
16 H  py              0.0       1.2       0.0       0.0       0.0       0.0
18 H  px              0.0       0.2       0.0       0.0       0.0       0.0

                    216       217       218       219       220       221   
                  22.00762  22.03017  22.08683  22.26684  43.69162  43.73712
                   0.00000   0.00000   0.00000   0.00000   0.00000   0.00000
                  --------  --------  --------  --------  --------  --------
 0 C  s               8.7       0.0       3.4       0.2       0.0       0.0
 1 C  s               1.4      94.5       0.2       3.2       0.0       0.0
 2 C  s              10.5       0.5      72.2       0.0       0.0       0.0
 3 C  s               1.6       3.6       0.3      93.5       0.0       0.0
 4 O  s               0.0       0.0       0.0       0.2      99.3       0.6
 4 O  pz              0.0       0.0       0.0       0.1       0.0       0.0
 5 O  s               0.0       0.0       0.1       0.1       0.6      99.4
 6 C  s              56.8       0.1      23.0       2.0       0.0       0.0
 7 C  s              20.8       0.8       0.6       0.2       0.0       0.0



                      *****************************
                      * MAYER POPULATION ANALYSIS *
                      *****************************

  NA   - Mulliken gross atomic population
  ZA   - Total nuclear charge
  QA   - Mulliken gross atomic charge
  VA   - Mayer's total valence
  BVA  - Mayer's bonded valence
  FA   - Mayer's free valence

  ATOM       NA         ZA         QA         VA         BVA        FA
  0 C      6.5279     6.0000    -0.5279     3.8090     3.8090     0.0000
  1 C      6.2164     6.0000    -0.2164     3.6374     3.6374     0.0000
  2 C      6.3403     6.0000    -0.3403     3.7039     3.7039    -0.0000
  3 C      5.6057     6.0000     0.3943     3.7964     3.7964    -0.0000
  4 O      8.5146     8.0000    -0.5146     1.8784     1.8784    -0.0000
  5 O      8.1762     8.0000    -0.1762     1.9229     1.9229    -0.0000
  6 C      6.1458     6.0000    -0.1458     3.6170     3.6170     0.0000
  7 C      6.4895     6.0000    -0.4895     3.8432     3.8432    -0.0000
  8 H      0.8372     1.0000     0.1628     0.9592     0.9592    -0.0000
  9 H      0.8386     1.0000     0.1614     0.9599     0.9599     0.0000
 10 H      0.8383     1.0000     0.1617     0.9580     0.9580     0.0000
 11 H      0.8455     1.0000     0.1545     0.9620     0.9620     0.0000
 12 H      0.8372     1.0000     0.1628     0.9560     0.9560     0.0000
 13 H      0.8109     1.0000     0.1891     0.9492     0.9492    -0.0000
 14 H      0.8207     1.0000     0.1793     0.9577     0.9577    -0.0000
 15 H      0.8259     1.0000     0.1741     0.9513     0.9513     0.0000
 16 H      0.8283     1.0000     0.1717     0.9445     0.9445    -0.0000
 17 H      0.8343     1.0000     0.1657     0.9568     0.9568     0.0000
 18 H      0.8313     1.0000     0.1687     0.9585     0.9585    -0.0000
 19 H      0.8352     1.0000     0.1648     0.9564     0.9564     0.0000

  Mayer bond orders larger than 0.100000
B(  0-C ,  1-C ) :   0.8985 B(  0-C ,  8-H ) :   0.9774 B(  0-C ,  9-H ) :   0.9689 
B(  0-C , 10-H ) :   0.9661 B(  1-C ,  2-C ) :   0.8760 B(  1-C , 11-H ) :   0.9706 
B(  1-C , 12-H ) :   0.9613 B(  2-C ,  3-C ) :   0.9587 B(  2-C , 13-H ) :   0.9354 
B(  2-C , 14-H ) :   1.0016 B(  3-C ,  4-O ) :   1.7621 B(  3-C ,  5-O ) :   1.0843 
B(  5-O ,  6-C ) :   0.7811 B(  6-C ,  7-C ) :   0.9429 B(  6-C , 15-H ) :   0.9590 
B(  6-C , 16-H ) :   0.9382 B(  7-C , 17-H ) :   0.9725 B(  7-C , 18-H ) :   0.9617 
B(  7-C , 19-H ) :   0.9660 

-------
TIMINGS
-------

Total SCF time: 0 days 0 hours 0 min 34 sec 

Total time                  ....      34.637 sec
Sum of individual times     ....      34.039 sec  ( 98.3%)

SCF preparation             ....       0.369 sec  (  1.1%)
Fock matrix formation       ....      32.463 sec  ( 93.7%)
  Startup                   ....       0.081 sec  (  0.2% of F)
  Split-RI-J                ....       5.501 sec  ( 16.9% of F)
  XC integration            ....      20.222 sec  ( 62.3% of F)
    XC Preparation          ....       0.000 sec  (  0.0% of XC)
    Basis function eval.    ....       3.630 sec  ( 18.0% of XC)
    Density eval.           ....       6.098 sec  ( 30.2% of XC)
    XC-Functional eval.     ....       2.629 sec  ( 13.0% of XC)
    XC-Potential eval.      ....       6.774 sec  ( 33.5% of XC)
  CPCM terms                ....       6.036 sec  ( 18.6% of F)
Diagonalization             ....       0.000 sec  (  0.0%)
Density matrix formation    ....       0.304 sec  (  0.9%)
Total Energy calculation    ....       0.068 sec  (  0.2%)
Population analysis         ....       0.148 sec  (  0.4%)
Orbital Transformation      ....       0.069 sec  (  0.2%)
Orbital Orthonormalization  ....       0.000 sec  (  0.0%)
DIIS solution               ....       0.554 sec  (  1.6%)
  MO trafo                  ....       0.000 sec  (  0.0 % of DIIS)
  Orb grad                  ....       0.000 sec  (  0.0 % of DIIS)
  Energy W gradient         ....       0.000 sec  (  0.0 % of DIIS)
  DIIS error                ....       0.030 sec  (  5.5 % of DIIS)
  DIIS work                 ....       0.456 sec  ( 82.4 % of DIIS)
  Form Q                    ....       0.000 sec  (  0.0 % of DIIS)
  Form QpQm                 ....       0.000 sec  (  0.0 % of DIIS)
  Exp/Cayley                ....       0.000 sec  (  0.0 % of DIIS)
  Orb update                ....       0.000 sec  (  0.0 % of DIIS)
  Wake-sleep                ....       0.032 sec  (  5.7 % of DIIS)
SOSCF solution              ....       0.062 sec  (  0.2%)
  MO trafo                  ....       0.048 sec  ( 77.6 % of SOSCF)
  Orb grad                  ....       0.001 sec  (  2.0 % of SOSCF)
  Rot update                ....       0.000 sec  (  0.1 % of SOSCF)
  Step                      ....       0.013 sec  ( 20.2 % of SOSCF)
Finished LeanSCF after  34.8 sec

Maximum memory used throughout the entire LEANSCF-calculation: 30.3 MB


-------------------------------------------------------------------------------
                          DFT DISPERSION CORRECTION                            
                                                                               
                                DFTD4 V3.4.0                                   
-------------------------------------------------------------------------------
The R2SCAN3C composite method is recognized
Using three-body term ABC
Active option DFTDOPT                   ...         5   

-------------------------   ----------------
Dispersion correction           -0.005148336
-------------------------   ----------------

------------------   -----------------
gCP correction             0.011692505
------------------   -----------------

-------------------------   --------------------
FINAL SINGLE POINT ENERGY      -386.241008436201
-------------------------   --------------------


------------------------------------------------------------------------------
                              ORCA PROPERTY CALCULATIONS
------------------------------------------------------------------------------

GBWName                                 ... sp_solv.gbw
Number of atoms                         ...     20
Number of basis functions               ...    222
Max core memory                         ...   1024 MB

Electric properties:
Dipole moment                           ... YES
Quadrupole moment                       ...  NO
Static polarizability (Dipole/Dipole)   ...  NO
Static polarizability (Dipole/Quad.)    ...  NO
Static polarizability (Quad./Quad.)     ...  NO
Static polarizability (Velocity)        ...  NO

Atomic electric properties:
Dipole moment                           ...  NO
Quadrupole moment                       ...  NO
Static polarizability                   ...  NO

Choice of electric origin               ... Center of mass
Position of electric origin             ...    -0.000008    -0.000021     0.000008

General magnetic properties:
Magnetizability                         ...  NO

EPR properties:
g-Tensor (aka g-matrix)                 ...  NO
Zero-Field splitting spin-orbit         ...  NO
Zero-field splitting spin-spin          ...  NO
Hyperfine couplings                     ...  NO (   0 nuclei)
Quadrupole couplings                    ...  NO (   0 nuclei)
Contact density                         ...  NO (   0 nuclei)

NMR properties:
Chemical shifts                         ...  NO (   0 nuclei)
Spin-rotation constants                 ...  NO (   0 nuclei)
Spin-spin couplings                     ...  NO (   0 nuclei,    0 pairs)

Choice of magnetic origin               ... GIAO
Position of magnetic origin             ...     0.000000     0.000000     0.000000

Properties with geometric perturbations:
SCF Hessian                             ...  NO
IR spectrum                             ...  NO
VCD spectrum                            ...  NO
X-ray spectroscopy properties:
SCF XES/XAS/RIXS spectra                ...  NO


-------------
DIPOLE MOMENT
-------------

Method             : SCF
Type of density    : Electron Density
Multiplicity       :   1
Irrep              :   0
Energy             :  -386.2475526051447332 Eh
Relativity type    : 
Basis              : AO
                                X                 Y                 Z
Electronic contribution:      1.586028473       5.736255247      -0.854722630
Nuclear contribution   :     -1.395675639      -6.541140643       1.845171010
                        -----------------------------------------
Total Dipole Moment    :      0.190352834      -0.804885395       0.990448380
                        -----------------------------------------
Magnitude (a.u.)       :      1.290373084
Magnitude (Debye)      :      3.279867723



--------------------
Rotational spectrum 
--------------------
 
Rotational constants in cm-1:             0.100341             0.040757             0.034742 
Rotational constants in MHz :          3008.157765          1221.861417          1041.541765 

Dipole components along the rotational axes: 
x,y,z [a.u.] :     0.256346    -1.096369     0.630337 
x,y,z [Debye]:     0.651579    -2.786748     1.602190 

 

Dipole moment calculation done in   0.0 sec 

Maximum memory used throughout the entire PROP-calculation: 13.9 MB

--------------------------------
SUGGESTED CITATIONS FOR THIS RUN
--------------------------------

Below you find a list of papers that are relevant to this ORCA run
We neither can nor want to force you to cite these papers, but we appreciate if you do
You receive ORCA, which is the product of decades of hard work by many enthusiastic individuals, for free
The only thing we kindly ask in return is that you cite our papers,
We deeply appreciate it, if you show your appreciation for ORCA by not just citing the generic ORCA reference.

Please note that relegating all ORCA citations to the supporting information does *not* help us.
SI sections are not indexed - citations you put there will not count into any citation statistics
But we need these citations in order to attract the funding resources that allow us to do what we are doing

Therefore, if you are a happy ORCA user, please consider citing a few of the papers listed below in the main body of your paper

In addition to the list printed below, the program has created the file sp_solv.bibtex that contains the list in bibtex format
You can import this file easily into all common literature databanks and citation aid programs


List of essential papers. We consider these as the minimum necessary citations

  1. Neese,F.
     Software update: the ORCA program system, version 5.0
     WIRES Comput. Molec. Sci., 2022 12(1)e1606
     doi.org/10.1002/wcms.1606
  2. Grimme,S.; Hansen,A.; Ehlert,S.; Mewes,J.
     r2SCAN-3c: A 'Swiss army knife' composite electronic-structure method
     J. Chem. Phys., 2021 154 064103
     doi.org/10.1063/5.0040021

List of papers to cite with high priority. The work reported in these papers was absolutely
necessary for this run to complete.
Our perspective: the developers of density functionals and basis sets usually get cited in chemistry papers
Good! But without the algorithms to do something with them, the functionals or basis sets would not do anything.
Hence, in our opinion, the algorithm design and method developments papers are equally worthy of getting cited

  1. Neese,F.
     An improvement of the resolution of the identity approximation for the formation of the Coulomb matrix
     J. Comp. Chem., 2003 24(14)1740-1747
     doi.org/10.1002/jcc.10318
  2. Garcia-Rates,M.; Neese,F.
     Effect of the Solute Cavity on the Solvation Energy and its Derivatives within the Framework of the Gaussian Charge Scheme
     J. Comput. Chem., 2020 41 922-939
     doi.org/10.1002/jcc.26139
  3. Neese,F.
     The SHARK Integral Generation and Digestion System
     J. Comp. Chem., 2022  1-16
     doi.org/10.1002/jcc.26942
  4. Lehtola,S.; Steigemann,C.; Oliveira,M.; Marques,M.
     Recent developments in Libxc - A comprehensive library of functionals for density functional theory
     Software X, 2018 7 
     doi.org/10.1016/j.softx.2017.11.002
  5. Caldeweyher,E.; Bannwarth,C.; Grimme,S.
     Extension of the D3 dispersion coefficient model
     J. Chem. Phys., 2017 147 034112-XXXX
     doi.org/10.1063/1.4993215
  6. Caldeweyher,E.; Ehlert,S.; Hansen,A.; Neugebauer,H.; Spicher,S.; Bannwarth,C.; Grimme,S.
     A generally applicable atomic-charge dependent London dispersion correction
     J. Chem. Phys., 2019 150 154122-XXXX
     doi.org/10.1063/1.5090222
  7. Caldeweyher,E.; Mewes,J.; Ehlert,S.; Grimme,S.
     Extension and evaluation of the D4 London-dispersion model for periodic systems
     Phys. Chem. Chem. Phys., 2020 22(16)8499-8512
     doi.org/10.1039/D0CP00502A

List of suggested additional citations. These are papers that are important in the 'surrounding' of 
of this run, or papers that preceded the highly important papers. If you like your results we are grateful for a citation.

  1. Neese,F.
     The ORCA program system
     WIRES Comput. Molec. Sci., 2012 2(1)73-78
     doi.org/10.1002/wcms.81
  2. Neese,F.
     Software update: the ORCA program system, version 4.0
     WIRES Comput. Molec. Sci., 2018 8(1)1-6
     doi.org/10.1002/wcms.1327
  3. Neese,F.; Wennmohs,F.; Becker,U.; Riplinger,C.
     The ORCA quantum chemistry program package
     J. Chem. Phys., 2020 152 Art. No. L224108
     doi.org/10.1063/5.0004608

List of optional additional citations

  1. Neese,F.
     Approximate second-order SCF convergence for spin unrestricted wavefunctions
     Chem. Phys. Lett., 2000 325(1-3)93-98
     doi.org/10.1016/s0009-2614(00)00662-x

Timings for individual modules:

Sum of individual times          ...       36.735 sec (=   0.612 min)
Startup calculation              ...        1.419 sec (=   0.024 min)   3.9 %
SCF iterations                   ...       35.187 sec (=   0.586 min)  95.8 %
Property calculations            ...        0.129 sec (=   0.002 min)   0.4 %
                             ****ORCA TERMINATED NORMALLY****
TOTAL RUN TIME: 0 days 0 hours 0 minutes 37 seconds 693 msec
