22
 energy: -23.418500845203 gnorm: 0.029727331582 xtb: 6.7.1 (edcfbbe)
C            1.80229196555342       -0.11343002509000        1.14768837786048
C            1.36278562915265       -0.40973027477551       -0.29054340716657
C            1.71824273295910        0.74515947396416       -1.22342952627797
N           -0.06468958856764       -0.78575208345702       -0.42033680312812
C           -1.03548028383100        0.21074230553238        0.10375010887833
C           -1.61625064769476       -0.22334747748211        1.45104747654200
C           -2.15719228078642        0.44148520845928       -0.91053699239353
H            1.29304455964636        0.77242229791777        1.54107489287334
H            1.57334912106612       -0.96138050354824        1.80242002580459
H            2.87997568497974        0.07101989915861        1.19559730648241
H            1.92318573998722       -1.29032883376729       -0.63318601609423
H            1.18403858012647        1.66408846093102       -0.95348514611053
H            1.47755114666110        0.50074410120780       -2.26327148650088
H            2.78966746458728        0.95914017129668       -1.15819736836227
H           -0.18305051305806       -1.62796362796820        0.13083536883342
H           -0.51688224018101        1.16713916406345        0.24658272483800
H           -2.34205473614693        0.50817312332486        1.82048977462045
H           -2.13354395686589       -1.18536917745535        1.34380121978858
H           -0.83257400975931       -0.33837945443148        2.20608944170855
H           -1.75045532555317        0.78032580219969       -1.86851851179579
H           -2.85937639991419        1.19922476580552       -0.54767364341797
H           -2.71516741130986       -0.48674735292722       -1.08117095752439
22
 energy: -23.420114690869 gnorm: 0.014065904947 xtb: 6.7.1 (edcfbbe)
C            1.81094559516170       -0.11187557654096        1.14858679624306
C            1.36124651760257       -0.40365881007847       -0.28739400376001
C            1.71390390609144        0.75144807395751       -1.21915425292531
N           -0.06159406491597       -0.75785533230055       -0.40499383985740
C           -1.03440823162198        0.22158900434869        0.11701589088204
C           -1.62834290018450       -0.22313921913088        1.45365070975313
C           -2.14577018277458        0.42936168141739       -0.91199943844325
H            1.31516295552006        0.77473405559868        1.54311320188542
H            1.58240564475342       -0.95659711113193        1.79935261337932
H            2.88541098055142        0.06040160899861        1.17941264323343
H            1.90263197199143       -1.29157797023304       -0.64059344557373
H            1.18623586619682        1.66444317719918       -0.94563060912248
H            1.45346593252431        0.49939791306365       -2.24525685561101
H            2.78366705837141        0.95037324783265       -1.16855955575884
H           -0.19706376999195       -1.63072226649835        0.09858572560744
H           -0.52374514809405        1.18021721590301        0.25966919425467
H           -2.34849672318245        0.50971712008446        1.81427662539828
H           -2.14190414690383       -1.17921259469480        1.33913832822800
H           -0.85034804583609       -0.33650600433168        2.20740307046624
H           -1.72920397361995        0.76145869634759       -1.86059602870305
H           -2.84596744567751        1.18354870012495       -0.55496801182534
H           -2.69081656491050       -0.49830964697693       -1.08203189829274
22
 energy: -23.420745012594 gnorm: 0.009051606661 xtb: 6.7.1 (edcfbbe)
C            1.83014329905944       -0.11137603166571        1.15220981292434
C            1.35723321976165       -0.39850413602417       -0.27959445848856
C            1.70766922756239        0.75648758363369       -1.21501463557283
N           -0.05893700136506       -0.73403689804109       -0.39213744576379
C           -1.03541040608272        0.22636317600256        0.12694497953248
C           -1.64054097729851       -0.21901850873248        1.45912169641601
C           -2.13850601702463        0.42066406768090       -0.91561353189917
H            1.34634276831910        0.77784965141105        1.54667598587086
H            1.59974061045238       -0.95269384882927        1.80163830556426
H            2.90403658090934        0.04910036765287        1.16544572525419
H            1.88599037609778       -1.29007244740415       -0.64117878289723
H            1.19049357638972        1.66653150474068       -0.92994153507894
H            1.42259797232137        0.50204370085470       -2.23072102374907
H            2.77727505252967        0.94207566677067       -1.18344615269520
H           -0.21683449964120       -1.63945836678638        0.05210939218274
H           -0.53618806956510        1.18929133106258        0.27262884641044
H           -2.35791335988317        0.51573146525968        1.81218116033736
H           -2.15309272444048       -1.16932865494967        1.33376413513605
H           -0.86854561430686       -0.33585502227345        2.21484651216773
H           -1.70710939011749        0.74311738267314       -1.85692452012828
H           -2.84506122307849        1.17107556114242       -0.57261238291677
H           -2.66596816954787       -0.51275158121979       -1.08135522314877
22
 energy: -23.420907048038 gnorm: 0.006349343946 xtb: 6.7.1 (edcfbbe)
C            1.84073028193258       -0.11213938952095        1.15374966517623
C            1.35613192018533       -0.39873045491083       -0.27606612364213
C            1.70455836289536        0.75868113105268       -1.21231497702858
N           -0.05829812931649       -0.72634977341138       -0.38562730174817
C           -1.03587777474113        0.22889819056422        0.12983960500581
C           -1.64615342011264       -0.21660587355907        1.46122641373841
C           -2.13720725608264        0.41570201111979       -0.91832987911888
H            1.36547211184310        0.78092538189923        1.55089324830234
H            1.61016355935967       -0.95167030700410        1.80565724647140
H            2.91596987138922        0.04097590118120        1.15696254363410
H            1.88283570553094       -1.29029838778333       -0.64003394258749
H            1.19737664965145        1.67120926431247       -0.91511725947936
H            1.40233456290539        0.50962257030649       -2.22495210656527
H            2.77588804163654        0.93668590554523       -1.19508503384048
H           -0.22760507407678       -1.63887323797400        0.03277991331458
H           -0.54135682884338        1.19447139787914        0.27637918982383
H           -2.36282662374080        0.52020678310504        1.81218583514163
H           -2.16128701808034       -1.16549586420909        1.33294656162558
H           -0.87667055057021       -0.33663772699879        2.21945554788076
H           -1.69884068727102        0.73451724327967       -1.85802478008976
H           -2.85014605882425        1.16453536585220       -0.58524952217316
H           -2.65777641461863       -0.52239416776706       -1.08224798438354
22
 energy: -23.420995102587 gnorm: 0.002268351835 xtb: 6.7.1 (edcfbbe)
C            1.85049748981030       -0.11356020428564        1.15492948555674
C            1.35586774547289       -0.39892858568160       -0.27290550011887
C            1.70274244223882        0.76090817864368       -1.20887688922617
N           -0.05764765825247       -0.72259683396323       -0.38060049935057
C           -1.03775925371902        0.22962008797866        0.13078287363593
C           -1.65071056510859       -0.21297515711751        1.46312774823564
C           -2.13761297469694        0.40982579729472       -0.92162665758952
H            1.38423050976179        0.78393436680763        1.55492335222997
H            1.61917546636182       -0.95076572011547        1.81083333553180
H            2.92737438521135        0.03220233675057        1.15019970294806
H            1.88280109977498       -1.28939201816615       -0.63852248580696
H            1.21110167143253        1.67845214107677       -0.89551176923768
H            1.37957227861300        0.52302199139296       -2.21889931563367
H            2.77670653097024        0.92835446658020       -1.20978478735943
H           -0.23677410143287       -1.63812793585217        0.01488046206133
H           -0.54702159838739        1.19751543118102        0.27670431085818
H           -2.36639067719460        0.52631619899934        1.81366245196219
H           -2.16970725862818       -1.16108311472881        1.33508743190967
H           -0.88234038209963       -0.33613403935277        2.22306607877328
H           -1.69598232422372        0.72630674879680       -1.86162887902472
H           -2.85710297753731        1.15678897053697       -0.59722416708045
H           -2.65360461731576       -0.53244714381721       -1.08358942381694
22
 energy: -23.421015614028 gnorm: 0.001543014186 xtb: 6.7.1 (edcfbbe)
C            1.85254578039895       -0.11395922025549        1.15549977651235
C            1.35647592138051       -0.39869405411253       -0.27175906476870
C            1.70316208200087        0.76207706856257       -1.20642492818812
N           -0.05707056591605       -0.72171440909306       -0.38044937942437
C           -1.03883767048611        0.22970163346795        0.12986446179132
C           -1.65081282375081       -0.21078673412133        1.46334579122397
C           -2.13915714209003        0.40624113467219       -0.92241449414039
H            1.38933841250253        0.78522024913946        1.55567575393585
H            1.61985264408300       -0.95000808843536        1.81277543654791
H            2.92991233988629        0.02898232655618        1.14984036452242
H            1.88362306648132       -1.28874860432898       -0.63819631108966
H            1.22145988344617        1.68259122554824       -0.88529335983391
H            1.36961296977261        0.53117203157077       -2.21474557827124
H            2.77828915134487        0.92228725197585       -1.21655605834929
H           -0.23990252506447       -1.63972076501456        0.00516748137632
H           -0.54886078018109        1.19821832649421        0.27384547092052
H           -2.36531429758387        0.52983038373955        1.81435067180340
H           -2.17166697533578       -1.15867365771318        1.33794701916385
H           -0.88164605396017       -0.33409327390913        2.22268234941408
H           -1.69895069186399        0.72238605209025       -1.86347865789978
H           -2.86049424909406        1.15217813480185       -0.59947081793365
H           -2.65414324491943       -0.53725104867671       -1.08317906785505
22
 energy: -23.421043389527 gnorm: 0.002469554553 xtb: 6.7.1 (edcfbbe)
C            1.85150988148352       -0.11476223642964        1.15718029377873
C            1.35789282088538       -0.39734222502276       -0.27026920191588
C            1.70668734677979        0.76500835696018       -1.20082483085268
N           -0.05595835416863       -0.72027244796479       -0.38447547655377
C           -1.04094368373703        0.22945159713303        0.12547955330459
C           -1.64648875591126       -0.20575151401300        1.46313058391911
C           -2.14485807511307        0.39772229274738       -0.92287533450749
H            1.39228414287252        0.78712358980289        1.55586301363356
H            1.61421186231981       -0.94876432178943        1.81570601335815
H            2.92959521670176        0.02334641580550        1.15386163706184
H            1.88540708754837       -1.28693161521022       -0.63777327830938
H            1.24888488871152        1.69200521366515       -0.86269326540399
H            1.35019321275701        0.55010697615893       -2.20476756137028
H            2.78427900619678        0.90636711621530       -1.23053516323210
H           -0.24386169202690       -1.64243402990894       -0.01442418520047
H           -0.55135669113746        1.19885209342981        0.26215583688245
H           -2.35802850168629        0.53731444038127        1.81580823815224
H           -2.17035451472287       -1.15338330154908        1.34524543360341
H           -0.87380522500138       -0.32772418464249        2.21919073057015
H           -1.71145084723934        0.71393618812001       -1.86735373738412
H           -2.86834017737298        1.14125309773968       -0.59878690555389
H           -2.65808371708800       -0.54788553867001       -1.07981553452233
22
 energy: -23.421058134765 gnorm: 0.002147225061 xtb: 6.7.1 (edcfbbe)
C            1.84815423376268       -0.11554694185842        1.15815316075822
C            1.35808887858277       -0.39675057048502       -0.27056854124178
C            1.70926521470580        0.76631376082478       -1.19918946794881
N           -0.05586732757340       -0.71925048859743       -0.38830981183454
C           -1.04097547546123        0.22978406584692        0.12287459445080
C           -1.64235060889736       -0.20370398479947        1.46288347259979
C           -2.14816584927829        0.39452404727499       -0.92229849864538
H            1.38847676200124        0.78642929731157        1.55587340650645
H            1.60866541395076       -0.94965036000716        1.81553477444362
H            2.92630530429451        0.02193114426406        1.15767243288996
H            1.88562185869619       -1.28637227809978       -0.63799834644098
H            1.25922657887314        1.69477735655518       -0.85613048339373
H            1.34642038563749        0.55652815373925       -2.20148970817678
H            2.78720497328455        0.90094298446078       -1.23395623804789
H           -0.24376518823841       -1.64196902689864       -0.01913803663451
H           -0.55177756589053        1.19985272226756        0.25564648189539
H           -2.35319854380775        0.53950490122616        1.81627849023929
H           -2.16587680435586       -1.15164887449460        1.34766242397221
H           -0.86764321232942       -0.32415390498238        2.21692643927060
H           -1.71845392095179        0.71075326224423       -1.86834889907098
H           -2.87188418705503        1.13702172463081       -0.59623864314351
H           -2.66005568889883       -0.55208102746463       -1.07681214298959
22
 energy: -23.421082403047 gnorm: 0.001070381394 xtb: 6.7.1 (edcfbbe)
C            1.84102021180092       -0.11814587524304        1.16054397846728
C            1.35817009341525       -0.39539248709296       -0.27143106874653
C            1.71522246581918        0.76982596515128       -1.19558185795973
N           -0.05586973818907       -0.71586391753465       -0.39706606684575
C           -1.04085156547922        0.23116133700605        0.11691490682059
C           -1.63281000158866       -0.19854227342834        1.46262055975959
C           -2.15589430644022        0.38681561849859       -0.92148527138786
H            1.37971032177188        0.78336137512857        1.55710619879587
H            1.59721805909965       -0.95341381664210        1.81439415209004
H            2.91924207467774        0.01861973793684        1.16600806448132
H            1.88558704175993       -1.28492957552244       -0.63902361148882
H            1.28321592014057        1.70167680135837       -0.83952678062473
H            1.33617059295095        0.57180152324708       -2.19420715738408
H            2.79448846249076        0.88809817898287       -1.24277229268100
H           -0.24382325462799       -1.63948496218447       -0.02809967838420
H           -0.55380066250033        1.20346596163556        0.24063602884877
H           -2.34287122551071        0.54445467597505        1.81714377559819
H           -2.15462659767623       -1.14768429078758        1.35301315385006
H           -0.85368828788837       -0.31489439247702        2.21237965814371
H           -1.73412587326345        0.70264720597254       -1.87102796301356
H           -2.88091217036093        1.12648389528206       -0.59183765264606
H           -2.66335632935040       -0.56282472230346       -1.06967421623524
22
 energy: -23.421092620740 gnorm: 0.000633533649 xtb: 6.7.1 (edcfbbe)
C            1.83389135979487       -0.12259676412219        1.16265158545013
C            1.35784926445253       -0.39424639754467       -0.27293717831213
C            1.72201316619911        0.77407910354500       -1.19137053947108
N           -0.05621343709056       -0.71229612997102       -0.40638249144674
C           -1.04089384201246        0.23323097279678        0.10985263178186
C           -1.62218791116835       -0.19173201015273        1.46230109158140
C           -2.16531425168901        0.37795353716775       -0.92077355229024
H            1.37013465013058        0.77735855320990        1.55999152460099
H            1.58694905722326       -0.96066062886494        1.81162709547225
H            2.91200044884232        0.01458820358132        1.17388785098355
H            1.88562953043704       -1.28323459357919       -0.64091298198608
H            1.30789710928483        1.70894331178080       -0.82302744299823
H            1.32954492614784        0.58944202696303       -2.18686627054185
H            2.80178484515308        0.87698829621757       -1.24944228217400
H           -0.24447919370299       -1.63558686444059       -0.03497540971739
H           -0.55746009785816        1.20860617827194        0.22373658386975
H           -2.33242515195739        0.55043334552678        1.81784904601238
H           -2.14103499934980       -1.14326553682506        1.36001345310114
H           -0.83796557642401       -0.30203986126835        2.20747745082843
H           -1.75264252948761        0.69291728927712       -1.87451024809170
H           -2.89247856124215        1.11407039062213       -0.58816881198307
H           -2.66718357463172       -0.57571645923259       -1.06099424521147
22
 energy: -23.421096247435 gnorm: 0.000534012597 xtb: 6.7.1 (edcfbbe)
C            1.83549009520630       -0.12413588862065        1.16238052587589
C            1.35761389958291       -0.39405330048405       -0.27301136840403
C            1.72190248854327        0.77504962915028       -1.19034797162207
N           -0.05628065176609       -0.71140303009111       -0.40579643141110
C           -1.04140189868547        0.23390101014049        0.10961824440829
C           -1.62244103649031       -0.18991098537600        1.46251224033309
C           -2.16586521579452        0.37630203398607       -0.92126429001734
H            1.37193995919435        0.77509921694795        1.56173317488715
H            1.58983332788235       -0.96326896336989        1.81057852777070
H            2.91352678468312        0.01339800354104        1.17226002508923
H            1.88499066806827       -1.28277461891635       -0.64233720984700
H            1.30790567682646        1.70940924440144       -0.82088388798223
H            1.32953608386774        0.59187566756146       -2.18622134127936
H            2.80169176889795        0.87783333891112       -1.24831829379574
H           -0.24579923161237       -1.63517902149173       -0.03576335001999
H           -0.55897965441527        1.20974690104944        0.22277037229147
H           -2.33351851927262        0.55196333056423        1.81723555401655
H           -2.14039702009444       -1.14217268791991        1.36158652938709
H           -0.83817253939044       -0.29859230293499        2.20786425470037
H           -1.75357158371875        0.69030469243217       -1.87545005267213
H           -2.89390241648549        1.11196467284297       -0.58983887576146
H           -2.66668575397571       -0.57812097936518       -1.06027951648948
22
 energy: -23.421100483104 gnorm: 0.000574339817 xtb: 6.7.1 (edcfbbe)
C            1.83912199212028       -0.12714860711455        1.16105595731034
C            1.35732167651265       -0.39426669989002       -0.27356325079020
C            1.72029021342180        0.77647882436362       -1.18903808838692
N           -0.05659398598489       -0.71142941893332       -0.40342417653280
C           -1.04229689704421        0.23469911364676        0.10992385230219
C           -1.62420174953977       -0.18742247540337        1.46285771304041
C           -2.16561704095779        0.37493512802663       -0.92215209682620
H            1.37515986977775        0.77008837532748        1.56454642617073
H            1.59724395026652       -0.96853366867728        1.80797950511458
H            2.91691276425893        0.01243748483040        1.16783198942606
H            1.88384747191188       -1.28251374494522       -0.64557966337397
H            1.30147293262831        1.70908295111220       -0.82101698587692
H            1.33330075223649        0.59267742128175       -2.18680794186151
H            2.79987420980061        0.88349810250291       -1.24250793805353
H           -0.24649079662624       -1.63398429836562       -0.03234943316974
H           -0.56041861411002        1.21077054349732        0.22252143840220
H           -2.33751175888611        0.55367497375044        1.81512299002844
H           -2.14027580899376       -1.14108573225033        1.36380769381500
H           -0.84067182935703       -0.29275959335790        2.20958315883996
H           -1.75257353593590        0.68732104712062       -1.87661989754060
H           -2.89458298629717        1.11069713577750       -0.59309039064081
H           -2.66589559815110       -0.57998089934122       -1.06005400193880
22
 energy: -23.421102401469 gnorm: 0.000360231244 xtb: 6.7.1 (edcfbbe)
C            1.84060045680098       -0.12929411882988        1.16075459807433
C            1.35733451225355       -0.39411777873459       -0.27378778199861
C            1.71966130973517        0.77774260674850       -1.18798615679840
N           -0.05667188849460       -0.71103355703533       -0.40283924892830
C           -1.04265739024951        0.23522941273456        0.10980071969924
C           -1.62441183885859       -0.18527866886145        1.46330192203553
C           -2.16591676827947        0.37334919110134       -0.92264037280597
H            1.37604723139525        0.76666223581487        1.56634479405336
H            1.60055764037181       -0.97214411319552        1.80642592319392
H            2.91824502134935        0.01163543095423        1.16632635811555
H            1.88313851805818       -1.28193734497436       -0.64787594896480
H            1.29921973455107        1.70971417313019       -0.81921602872410
H            1.33344239886737        0.59409957024990       -2.18656095674433
H            2.79960605870884        0.88599348051165       -1.24022346044812
H           -0.24683939524142       -1.63430108000650       -0.03234067884565
H           -0.56101165464915        1.21159780431221        0.22111921146738
H           -2.33909312635649        0.55537874643807        1.81365517541398
H           -2.13889711862998       -1.13991302683254        1.36578202178244
H           -0.84106549451261       -0.28785454140267        2.21061363508351
H           -1.75286009621885        0.68462936598040       -1.87748686236476
H           -2.89543207167817        1.10915837115587       -0.59483559436333
H           -2.66558080787148       -0.58208019630014       -1.05930440847498
22
 energy: -23.421103697452 gnorm: 0.000275326631 xtb: 6.7.1 (edcfbbe)
C            1.84038029178454       -0.13064076686318        1.16073304726808
C            1.35732070036915       -0.39409839991579       -0.27408289733062
C            1.71961535113484        0.77850631083994       -1.18734039323333
N           -0.05676604803979       -0.71110555548218       -0.40346710103964
C           -1.04260907878116        0.23527343899488        0.10912690350628
C           -1.62352445881978       -0.18390312306070        1.46344012076326
C           -2.16657540556171        0.37236627159046       -0.92271548905585
H            1.37520288303332        0.76454866716833        1.56730180878466
H            1.60083279077839       -0.97446625591066        1.80524850768493
H            2.91795167154809        0.01095695865705        1.16659923476338
H            1.88318215223946       -1.28147975645517       -0.64897898273270
H            1.29832566976994        1.70993549422426       -0.81857515827913
H            1.33431884379778        0.59526902971603       -2.18616987889786
H            2.79934658884966        0.88773702930622       -1.23874067079598
H           -0.24656035031179       -1.63422985543407       -0.03212854395748
H           -0.56102654559042        1.21181518636968        0.21918725109418
H           -2.33884076052126        0.55655159849797        1.81284989811162
H           -2.13698221634232       -1.13918627170923        1.36733568722970
H           -0.83994770516764       -0.28461361439686        2.21071209224304
H           -1.75416521351945        0.68303387888619       -1.87801329980769
H           -2.89603275410167        1.10825211653120       -0.59500861430335
H           -2.66603117549694       -0.58328641859556       -1.05828666255762
22
 energy: -23.421104972954 gnorm: 0.000129071981 xtb: 6.7.1 (edcfbbe)
C            1.83939743612975       -0.13160166603749        1.16092994290682
C            1.35741877372639       -0.39406478566753       -0.27436671391029
C            1.71990832419657        0.77931214645583       -1.18660995389941
N           -0.05673340961653       -0.71111125418912       -0.40466068666068
C           -1.04240279288202        0.23522326216464        0.10806231923235
C           -1.62195001871238       -0.18275629790392        1.46339112928485
C           -2.16760391415421        0.37116189529373       -0.92266289947629
H            1.37403483137811        0.76336876971587        1.56776947662667
H            1.59921702964446       -0.97586807018874        1.80458481453255
H            2.91699983335860        0.00984890191261        1.16781733690501
H            1.88353139298159       -1.28112897148800       -0.64957516938095
H            1.29968511024305        1.71085177882204       -0.81653990575147
H            1.33354867976427        0.59730885349222       -2.18523480806159
H            2.79970219860918        0.88772133499059       -1.23878558361984
H           -0.24621198254086       -1.63391499326144       -0.03290343311592
H           -0.56097379387612        1.21201720745562        0.21658250493429
H           -2.33748446288090        0.55768616734530        1.81228251855694
H           -2.13479836127406       -1.13850421722840        1.36890879373857
H           -0.83782939855725       -0.28193844159416        2.21024851460450
H           -1.75625702621680        0.68124985504579       -1.87859440700734
H           -2.89687054377302        1.10711505522682       -0.59465704649615
H           -2.66691267449658       -0.58474056740347       -1.05695988448472
22
 energy: -23.421106004269 gnorm: 0.000162527118 xtb: 6.7.1 (edcfbbe)
C            1.83864677810634       -0.13254282518784        1.16113340302207
C            1.35748322908744       -0.39389565278591       -0.27462745045754
C            1.72034159316793        0.78016064445282       -1.18587499634718
N           -0.05668448340259       -0.71088132455761       -0.40574690137245
C           -1.04235383675573        0.23531698547670        0.10717435817877
C           -1.62052998896225       -0.18162860158950        1.46344398120846
C           -2.16864605019205        0.36985310781391       -0.92260140041350
H            1.37353628220482        0.76252021525452        1.56802079111682
H            1.59742621835945       -0.97696973212566        1.80421723896907
H            2.91635020590112        0.00827513656666        1.16888288300096
H            1.88372329843623       -1.28074920795571       -0.65021399715685
H            1.30113762769106        1.71167084751859       -0.81466918102242
H            1.33320431860322        0.59935532970876       -2.18432320452865
H            2.80012285294652        0.88783059032344       -1.23865447396185
H           -0.24620005808306       -1.63384427432815       -0.03438637796393
H           -0.56127161442704        1.21245612948476        0.21426190455261
H           -2.33631267006573        0.55873698230878        1.81195277478448
H           -2.13280200427362       -1.13781418620508        1.37038998387308
H           -0.83578932228158       -0.27939466609294        2.20985085814654
H           -1.75833264924502        0.67907584954467       -1.87927853599848
H           -2.89772381739598        1.10599675123224       -0.59452225649238
H           -2.66791067836824       -0.58629213589866       -1.05540254167974
22
 energy: -23.421106973600 gnorm: 0.000147544025 xtb: 6.7.1 (edcfbbe)
C            1.83834605865169       -0.13335135741442        1.16125068032628
C            1.35750682992217       -0.39370600705093       -0.27480353627648
C            1.72081875784880        0.78095318375572       -1.18508228938165
N           -0.05664828756930       -0.71042188624644       -0.40662521209986
C           -1.04250591577650        0.23547742640944        0.10640673960480
C           -1.61948132660104       -0.18052885406169        1.46348985327457
C           -2.16970373709381        0.36849974436373       -0.92255708186371
H            1.37391294140902        0.76201089732878        1.56827762973874
H            1.59603854787231       -0.97782531157158        1.80384506449078
H            2.91618418514797        0.00637012733209        1.16956384246994
H            1.88375488648189       -1.28035031807734       -0.65090309140448
H            1.30257752148134        1.71240429738442       -0.81268378855099
H            1.33298263086152        0.60148605834947       -2.18351242265040
H            2.80065232105615        0.88782163385219       -1.23830341486466
H           -0.24646958059559       -1.63361566456533       -0.03605323534289
H           -0.56181165783702        1.21291657889233        0.21222185449772