16
 energy: -17.086219643582 gnorm: 0.022167687533 xtb: 6.7.1 (edcfbbe)
C            1.70060946946381       -0.85247986381816       -0.44449129075807
C            1.29942917284136        0.55126289538654        0.00664231619076
C            0.00370233587466        0.63906347465173        0.82479438762953
C           -1.30584662036622        0.56291398281604        0.04352917503814
N           -1.60269944734978       -0.79769327216069       -0.45240307392592
H            1.75523355777296       -1.53410182006248        0.41252138956638
H            0.98498537621383       -1.27041239621661       -1.15569570598838
H            2.68636996801315       -0.84045796107731       -0.92258527426991
H            2.11382870316589        0.96195722489682        0.61673919444498
H            1.21125498126919        1.21068322034022       -0.86738167639203
H            0.00482382698576       -0.13814080749043        1.60341509581341
H           -0.00044187744090        1.59984367993169        1.35452030722233
H           -1.24647750269413        1.23849682419150       -0.81981398781929
H           -2.11139041400142        0.95018676326328        0.68917012444188
H           -2.53377187854940       -0.78972910533044       -0.85915140156041
H           -1.67384812511522       -1.41027611343915        0.35616745881908
16
 energy: -17.087431973535 gnorm: 0.009063108336 xtb: 6.7.1 (edcfbbe)
C            1.66807491365441       -0.84967934947114       -0.43788387607660
C            1.29649999962781        0.55797471444131        0.00776949124290
C            0.01223449635516        0.63951449627055        0.83603398745088
C           -1.29029269808242        0.56205520202770        0.04094613600961
N           -1.57664119977860       -0.79070771612483       -0.44826411326552
H            1.73262914971781       -1.51938929740816        0.42008795489002
H            0.93062850124334       -1.24946276956719       -1.13046481097104
H            2.64054967214591       -0.83710259422843       -0.93073817942047
H            2.11411154233969        0.95635492454583        0.61703065244546
H            1.19909654393965        1.20446311388260       -0.86975434954200
H            0.01799103102552       -0.14618736902152        1.59943687108575
H            0.01000893473117        1.60116914128119        1.35847562992134
H           -1.23013139651466        1.22155647458131       -0.83175600384484
H           -2.10334548327989        0.93878256701021        0.68458462671309
H           -2.49649789897600       -0.79231696119004       -0.88129294178414
H           -1.63915458206537       -1.41590785114683        0.35176596359806
16
 energy: -17.087877079200 gnorm: 0.003994387081 xtb: 6.7.1 (edcfbbe)
C            1.63829427106314       -0.84932302095802       -0.43619395633755
C            1.29563612827054        0.56454905686452        0.01317894258219
C            0.01651010906116        0.64958339032429        0.84700238344386
C           -1.28066117003237        0.56071104286023        0.04170485083279
N           -1.54426783518141       -0.78922675132184       -0.44434159448489
H            1.71534948636679       -1.51050820193048        0.42258640539531
H            0.86991310938902       -1.23325218531256       -1.10136450635883
H            2.59402142755417       -0.85143306073099       -0.95644047896540
H            2.12063188249489        0.95241411269720        0.61582690794439
H            1.19272069181069        1.20563186149118       -0.86334059562933
H            0.02335186074540       -0.14252918402243        1.59795057200595
H            0.00894187789059        1.60864642279179        1.36932171071173
H           -1.21315968800568        1.21126316684012       -0.83457075695732
H           -2.10152748173405        0.93732874406767        0.67801357335486
H           -2.44851640085726       -0.80659726931749       -0.90913336587210
H           -1.60147674275213       -1.42614139846064        0.34577694678684
16
 energy: -17.088003979287 gnorm: 0.003683553711 xtb: 6.7.1 (edcfbbe)
C            1.62060962991625       -0.84953288810377       -0.43612212667688
C            1.29607705760380        0.56877538379194        0.01738115322498
C            0.01779707778606        0.65556433673722        0.85302632731165
C           -1.27582530076029        0.55955123612433        0.04057112312661
N           -1.52443242598150       -0.79147709533939       -0.44379198002535
H            1.71197425688915       -1.50891405327419        0.42301311929830
H            0.83143109778568       -1.22695722611182       -1.08077057099375
H            2.56329211326170       -0.86207418460590       -0.98027279401535
H            2.12632675463559        0.94853925772351        0.61754039305025
H            1.19500909213946        1.21297605116013       -0.85671254872539
H            0.02436098934895       -0.13598118336612        1.60397669821093
H            0.00664633416276        1.61429623893121        1.37462285601574
H           -1.20568041591910        1.21033185366622       -0.83520142766693
H           -2.10211709396536        0.93602146167213        0.67139252761435
H           -2.41816927895386       -0.81907455476484       -0.92545467099116
H           -1.58153836186579       -1.43092790835813        0.34277895969449
16
 energy: -17.088060724134 gnorm: 0.002271966162 xtb: 6.7.1 (edcfbbe)
C            1.60956587147353       -0.84988217529448       -0.43749674064347
C            1.29706530975997        0.56954793683119        0.02181547810747
C            0.01786291400736        0.66119309955856        0.85584673044484
C           -1.27349862277132        0.55834790878686        0.03997278078662
N           -1.51162641577431       -0.79407898136478       -0.44495002518307
H            1.71657301899376       -1.50914945295210        0.42116727804541
H            0.80510706890036       -1.22498556872969       -1.06401312798590
H            2.54027937347508       -0.86831548137864       -1.00211995277753
H            2.13070246962280        0.94155582736174        0.62261073038712
H            1.20117839291984        1.21937984251427       -0.84951501773391
H            0.02389393325635       -0.12649956494788        1.61172819280788
H            0.00439469771296        1.62188897311794        1.37437400245006
H           -1.20317213267821        1.21182248982039       -0.83433217572485
H           -2.10434525254481        0.93192440110602        0.66715440474644
H           -2.39749345698196       -0.82869002715356       -0.93723234025178
H           -1.57072564328792       -1.43294250139331        0.34096682097717
16
 energy: -17.088082894569 gnorm: 0.001178153385 xtb: 6.7.1 (edcfbbe)
C            1.60509216716422       -0.85026379195535       -0.43887053670685
C            1.29796086681087        0.56849690448895        0.02458197656622
C            0.01753094188504        0.66414626565061        0.85610073771520
C           -1.27282902240848        0.55746245102108        0.03989892740932
N           -1.50634313544341       -0.79587675627620       -0.44624269890001
H            1.72363785495802       -1.51041328719189        0.41826415735531
H            0.79324531166822       -1.22573192884876       -1.05434650567240
H            2.52798365751848       -0.86887172557440       -1.01519246544658
H            2.13210503537964        0.93499261066743        0.62850283780051
H            1.20766872201156        1.22323217368306       -0.84455671825987
H            0.02291256735205       -0.11853268981465        1.61821637387528
H            0.00342230188011        1.62808946896113        1.36949106041628
H           -1.20410347308941        1.21330045371095       -0.83327489797417
H           -2.10553379893030        0.92734056793391        0.66654391949354
H           -2.38829302395159       -0.83300544000183       -0.94370966020138
H           -1.56869544672154       -1.43324855057149        0.34057053098211
16
 energy: -17.088091900380 gnorm: 0.001115574545 xtb: 6.7.1 (edcfbbe)
C            1.60477528267440       -0.85063756451920       -0.44034092296977
C            1.29935000171404        0.56636128444592        0.02729849448044
C            0.01713191316036        0.66606268230843        0.85520453437552
C           -1.27286828425826        0.55633154639384        0.04004867469118
N           -1.50545911718326       -0.79751424827782       -0.44740332175781
H            1.73382462180251       -1.51157022730829        0.41460122445041
H            0.78791542373059       -1.22765554619157       -1.04728481457747
H            2.52136456589800       -0.86580413736710       -1.02556757614790
H            2.13224216986350        0.92835939504764        0.63590166120445
H            1.21450693451745        1.22493306971178       -0.83992376094304
H            0.02171555742516       -0.11087814710155        1.62376667682915
H            0.00313244832482        1.63418455294662        1.36153035619818
H           -1.20689934440581        1.21331038717239       -0.83269368626038
H           -2.10587530772662        0.92225652205483        0.66787356751123
H           -2.38570373000837       -0.83362582110923       -0.94804271477083
H           -1.57339160944504       -1.43299702232413        0.34100864613915
16
 energy: -17.088093555924 gnorm: 0.000213589645 xtb: 6.7.1 (edcfbbe)
C            1.60618126567428       -0.85056404324984       -0.43999662101014
C            1.29959016585543        0.56663317519952        0.02708974727335
C            0.01725922012261        0.66535207646287        0.85500609902708
C           -1.27292998214272        0.55619003624465        0.03985649689261
N           -1.50713262106719       -0.79760011359332       -0.44701658388074
H            1.73495736522192       -1.51121317814033        0.41473667341506
H            0.79016410708675       -1.22799314751740       -1.04812021184777
H            2.52341634635299       -0.86444791054365       -1.02441953445507
H            2.13185757535541        0.92913136468115        0.63601332497721
H            1.21421918331763        1.22434514460318       -0.84029435403807
H            0.02172135417976       -0.11207126596278        1.62251812055770
H            0.00323287675926        1.63320499032684        1.36129390669352
H           -1.20683448946976        1.21205440373678       -0.83343668259942
H           -2.10515911124245        0.92303591346625        0.66815905210494
H           -2.38847583475496       -0.83175736161591       -0.94673732305551
H           -1.57630589516548       -1.43318335821546        0.34132492839774
16
 energy: -17.088093834770 gnorm: 0.000152714021 xtb: 6.7.1 (edcfbbe)
C            1.60642098387578       -0.85043997055296       -0.43999998319826
C            1.29975175268154        0.56678031397213        0.02734278274721
C            0.01728077163376        0.66528581106731        0.85517394748549
C           -1.27279540335002        0.55603813563861        0.03957755346096
N           -1.50742314215714       -0.79787720800255       -0.44679331824068
H            1.73666124107969       -1.51071390803769        0.41476381620543
H            0.78959754464673       -1.22814793809891       -1.04705385093739
H            2.52293093864394       -0.86406765645175       -1.02579136524942
H            2.13202223171780        0.92900593192403        0.63638260806068
H            1.21445571092261        1.22450748739988       -0.83994395041822
H            0.02172333590309       -0.11244287965207        1.62226179102051
H            0.00292976784138        1.63298270867518        1.36163478848389
H           -1.20624546507832        1.21130882934412       -0.83403975616061
H           -2.10505583439875        0.92354089289065        0.66753045504159
H           -2.38883291098553       -0.83135784749237       -0.94665573306397
H           -1.57765999689307       -1.43328597674107        0.34158725321527
16
 energy: -17.088094001154 gnorm: 0.000166645764 xtb: 6.7.1 (edcfbbe)
C            1.60666239489318       -0.85024629885762       -0.43997848233603
C            1.29990005483206        0.56699244672339        0.02744312147958
C            0.01729443528678        0.66492588360283        0.85513784457427
C           -1.27268765666109        0.55596138765027        0.03925214865250
N           -1.50794265175952       -0.79810936189741       -0.44647179529103
H            1.73816726614232       -1.51034586342556        0.41466077442554
H            0.78952730670779       -1.22844180829344       -1.04610111223752
H            2.52248616462675       -0.86355939671220       -1.02666423488425
H            2.13205169674383        0.92917381035289        0.63665000690792
H            1.21465459317480        1.22490318314917       -0.83970467153872
H            0.02168473097773       -0.11320661810441        1.62180320999811
H            0.00274162691804        1.63232619563897        1.36210213319467
H           -1.20547086561094        1.21070134698074       -0.83468386372788
H           -2.10491391925751        0.92431839471019        0.66676526376462
H           -2.38937406888825       -0.83114257945812       -0.94637778365639
H           -1.57901958204250       -1.43313399617715        0.34214447912712
16
 energy: -17.088094107297 gnorm: 0.000092005569 xtb: 6.7.1 (edcfbbe)
C            1.60692151591579       -0.85005303116598       -0.44002987695678
C            1.29994138084588        0.56701044938832        0.02761816527498
C            0.01725197587223        0.66459119236786        0.85517802336927
C           -1.27252198173383        0.55597205167891        0.03894221824822
N           -1.50835318047082       -0.79821884362501       -0.44615593691739
H            1.73953696549576       -1.50998121680692        0.41459293917464
H            0.78914949590079       -1.22858489241430       -1.04510482901932
H            2.52208431503663       -0.86311442348451       -1.02772283347392
H            2.13200852426052        0.92933187310643        0.63685635133870
H            1.21459702746457        1.22504568609217       -0.83945548968999
H            0.02153618124292       -0.11395669521636        1.62145563801449
H            0.00260431940134        1.63171465736245        1.36271911036533
H           -1.20464647525464        1.21024280305496       -0.83532045111731
H           -2.10479621663074        0.92507574322292        0.66592092484197
H           -2.38962336097238       -0.83122009434645       -0.94634793185746
H           -1.57992896029055       -1.43273853333196        0.34283101685709
16
 energy: -17.088094131074 gnorm: 0.000026176446 xtb: 6.7.1 (edcfbbe)
C            1.60699033034067       -0.84998442688635       -0.44006591152951
C            1.29994494235309        0.56700654991663        0.02771581674591
C            0.01718537599301        0.66443485009286        0.85519113923766
C           -1.27246996366531        0.55602200621221        0.03880617038756
N           -1.50851445784014       -0.79827238437506       -0.44594062546592
H            1.74014570218932       -1.50996830768134        0.41446350962311
H            0.78906368615048       -1.22867226578588       -1.04480864049469
H            2.52187924091430       -0.86284226747259       -1.02816148851719
H            2.13198429078219        0.92938216490338        0.63700106345938
H            1.21456833440184        1.22512835236210       -0.83931824544879
H            0.02134857874110       -0.11430554942335        1.62129868414578
H            0.00256698778537        1.63143625504775        1.36300508570026
H           -1.20425041849489        1.21005025013140       -0.83562931709584
H           -2.10479450664960        0.92551325383364        0.66547421567642
H           -2.38960769106628       -0.83136372444477       -0.94636511139955
H           -1.58027890585167       -1.43244803054809        0.34331069342791
