      -----------------------------------------------------------      
     |                   =====================                   |     
     |                           x T B                           |     
     |                   =====================                   |     
     |                         S. Grimme                         |     
     |          Mulliken Center for Theoretical Chemistry        |     
     |                    University of Bonn                     |     
      -----------------------------------------------------------      

   * xtb version 6.7.1 (edcfbbe) compiled by 'albert@albert-system' on 2024-07-22

   xtb is free software: you can redistribute it and/or modify it under
   the terms of the GNU Lesser General Public License as published by
   the Free Software Foundation, either version 3 of the License, or
   (at your option) any later version.
   
   xtb is distributed in the hope that it will be useful,
   but WITHOUT ANY WARRANTY; without even the implied warranty of
   MERCHANTABILITY or FITNESS FOR A PARTICULAR PURPOSE.  See the
   GNU Lesser General Public License for more details.
   
   Cite this work as:
   * C. Bannwarth, E. Caldeweyher, S. Ehlert, A. Hansen, P. Pracht,
     J. Seibert, S. Spicher, S. Grimme, WIREs Comput. Mol. Sci., 2020, 11,
     e01493. DOI: 10.1002/wcms.1493
   
   for GFN2-xTB:
   * C. Bannwarth, S. Ehlert and S. Grimme., J. Chem. Theory Comput., 2019,
     15, 1652-1671. DOI: 10.1021/acs.jctc.8b01176
   for GFN1-xTB:
   * S. Grimme, C. Bannwarth, P. Shushkov, J. Chem. Theory Comput., 2017,
     13, 1989-2009. DOI: 10.1021/acs.jctc.7b00118
   for GFN0-xTB:
   * P. Pracht, E. Caldeweyher, S. Ehlert, S. Grimme, ChemRxiv, 2019, preprint.
     DOI: 10.26434/chemrxiv.8326202.v1
   for GFN-FF:
   * S. Spicher and S. Grimme, Angew. Chem. Int. Ed., 2020, 59, 15665-15673.
     DOI: 10.1002/anie.202004239
   
   for ALPB and GBSA implicit solvation:
   * S. Ehlert, M. Stahn, S. Spicher, S. Grimme, J. Chem. Theory Comput.,
     2021, 17, 4250-4261. DOI: 10.1021/acs.jctc.1c00471
   
   for ddCOSMO and CPCM-X implicit solvation:
   * M. Stahn, S. Ehlert, S. Grimme, J. Phys. Chem. A,
     2023, XX, XXXX-XXXX. DOI: 10.1021/acs.jpca.3c04382
   
   for DFT-D4:
   * E. Caldeweyher, C. Bannwarth and S. Grimme, J. Chem. Phys., 2017,
     147, 034112. DOI: 10.1063/1.4993215
   * E. Caldeweyher, S. Ehlert, A. Hansen, H. Neugebauer, S. Spicher,
     C. Bannwarth and S. Grimme, J. Chem. Phys., 2019, 150, 154122.
     DOI: 10.1063/1.5090222
   * E. Caldeweyher, J.-M. Mewes, S. Ehlert and S. Grimme, Phys. Chem. Chem. Phys.
     2020, 22, 8499-8512. DOI: 10.1039/D0CP00502A
   
   for sTDA-xTB:
   * S. Grimme and C. Bannwarth, J. Chem. Phys., 2016, 145, 054103.
     DOI: 10.1063/1.4959605
   
   in the mass-spec context:
   * V. Asgeirsson, C. Bauer and S. Grimme, Chem. Sci., 2017, 8, 4879.
     DOI: 10.1039/c7sc00601b
   * J. Koopman and S. Grimme, ACS Omega 2019, 4, 12, 15120-15133.
     DOI: 10.1021/acsomega.9b02011
   
   for metadynamics refer to:
   * S. Grimme, J. Chem. Theory Comput., 2019, 155, 2847-2862
     DOI: 10.1021/acs.jctc.9b00143
   
   for SPH calculations refer to:
   * S. Spicher and S. Grimme, J. Chem. Theory Comput., 2021, 17, 1701-1714
     DOI: 10.1021/acs.jctc.0c01306
   
   for ONIOM refer to:
   * C. Plett, A. Katbashev, S. Ehlert, S. Grimme, M. Bursch,
     Phys. Chem. Chem. Phys., 2023, 25, 17860-17868. DOI: 10.1039/D3CP02178E
   
   for DIPRO refer to:
   * J. Kohn, N. Gildemeister, S. Grimme, D. Fazzi, A. Hansen,
     J. Chem. Phys., 2023, just accepted.
   
   for PTB refer to:
   * S. Grimme, M. Mueller, A. Hansen, J. Chem. Phys., 2023, 158, 124111.
     DOI: 10.1063/5.0137838
   
   with help from (in alphabetical order)
   P. Atkinson, C. Bannwarth, F. Bohle, G. Brandenburg, E. Caldeweyher
   M. Checinski, S. Dohm, S. Ehlert, S. Ehrlich, I. Gerasimov, C. Hölzer
   A. Katbashev, J. Kohn, J. Koopman, C. Lavigne, S. Lehtola, F. März, M. Müller,
   F. Musil, H. Neugebauer, J. Pisarek, C. Plett, P. Pracht, F. Pultar,
   J. Seibert, P. Shushkov, S. Spicher, M. Stahn, M. Steiner, T. Strunk,
   J. Stückrath, T. Rose, and J. Unsleber
   
 * started run on 2025/04/11 at 15:54:53.674     
   ID    Z sym.   atoms
    1    6 C      1, 2, 4-13, 15, 16
    2    1 H      3, 19-31
    3    8 O      14, 17, 18

           -------------------------------------------------
          |                Calculation Setup                |
           -------------------------------------------------

          program call               : /srv/scratch/z5358697/.xtb/bin/xtb solv.coord --gfn2 --sp --chrg 0 --norestart --parallel 1 --alpb water reference -I xtb_sp-xcontrol-inp
          hostname                   : k061
          coordinate file            : solv.coord
          omp threads                :                     1


           -------------------------------------------------
          |                 G F N 2 - x T B                 |
           -------------------------------------------------

        Reference                      10.1021/acs.jctc.8b01176
      * Hamiltonian:
        H0-scaling (s, p, d)           1.850000    2.230000    2.230000
        zeta-weighting                 0.500000
      * Dispersion:
        s8                             2.700000
        a1                             0.520000
        a2                             5.000000
        s9                             5.000000
      * Repulsion:
        kExp                           1.500000    1.000000
        rExp                           1.000000
      * Coulomb:
        alpha                          2.000000
        third order                    shell-resolved
        anisotropic                    true
        a3                             3.000000
        a5                             4.000000
        cn-shift                       1.200000
        cn-exp                         4.000000
        max-rad                        5.000000

      * Solvation model:               ALPB
        Solvent                        water
        Parameter file                 internal GFN2-xTB/ALPB
        Dielectric constant                8.0200E+01
        Reference state                gsolv=reference [X=1]
        Free energy shift                  2.8945E-03 Eh       1.8164E+00 kcal/mol
        Temperature                        2.9815E+02 K
        Density                            1.0000E+00 kg/L
        Solvent mass                       1.8000E+01 g/mol
        Interaction kernel             P16
        Born radius scaling (c1)           1.4744E+00
        Born radii integrator          GBOBC
        Born offset                        0.0000E+00 a0       0.0000E+00 AA
        H-bond correction              true
        Ion screening                  false
        Surface tension                    1.0000E-05 Eh       1.5569E+01 dyn/cm
        Grid points                               974 per atom

          ...................................................
          :                      SETUP                      :
          :.................................................:
          :  # basis functions                  82          :
          :  # atomic orbitals                  82          :
          :  # shells                           48          :
          :  # electrons                        88          :
          :  max. iterations                   250          :
          :  Hamiltonian                  GFN2-xTB          :
          :  restarted?                      false          :
          :  GBSA solvation                   true          :
          :  PC potential                    false          :
          :  electronic temp.          300.0000000     K    :
          :  accuracy                    1.0000000          :
          :  -> integral cutoff          0.2500000E+02      :
          :  -> integral neglect         0.1000000E-07      :
          :  -> SCF convergence          0.1000000E-05 Eh   :
          :  -> wf. convergence          0.1000000E-03 e    :
          :  Broyden damping             0.4000000          :
          :  net charge                          0          :
          :  unpaired electrons                  0          :
          ...................................................

 iter      E             dE          RMSdq      gap      omega  full diag
   1    -49.9862353 -0.499862E+02  0.432E+00    3.09       0.0  T
   2    -50.0440598 -0.578245E-01  0.235E+00    3.09       1.0  T
   3    -50.0429424  0.111741E-02  0.101E+00    3.04       1.0  T
   4    -50.0491556 -0.621321E-02  0.237E-01    3.06       1.0  T
   5    -50.0499597 -0.804170E-03  0.861E-02    3.07       1.0  T
   6    -50.0500141 -0.543906E-04  0.427E-02    3.07       1.0  T
   7    -50.0500202 -0.606544E-05  0.147E-02    3.08       1.2  T
   8    -50.0500216 -0.140520E-05  0.661E-03    3.08       2.7  T
   9    -50.0500223 -0.669550E-06  0.267E-03    3.08       6.7  T
  10    -50.0500223 -0.264360E-07  0.117E-03    3.08      15.3  T
  11    -50.0500223 -0.110801E-07  0.524E-04    3.08      34.3  T
  12    -50.0500223 -0.134399E-08  0.201E-04    3.08      89.4  T

   *** convergence criteria satisfied after 12 iterations ***

         #    Occupation            Energy/Eh            Energy/eV
      -------------------------------------------------------------
         1        2.0000           -0.7469042             -20.3243
       ...           ...                  ...                  ...
        38        2.0000           -0.4373270             -11.9003
        39        2.0000           -0.4316135             -11.7448
        40        2.0000           -0.4235133             -11.5244
        41        2.0000           -0.4178885             -11.3713
        42        2.0000           -0.4124448             -11.2232
        43        2.0000           -0.3929635             -10.6931
        44        2.0000           -0.3732158             -10.1557 (HOMO)
        45                         -0.2601651              -7.0795 (LUMO)
        46                         -0.2432621              -6.6195
        47                         -0.2259811              -6.1493
        48                         -0.1905683              -5.1856
        49                         -0.1461611              -3.9772
       ...                                ...                  ...
        82                          0.7009142              19.0728
      -------------------------------------------------------------
                  HL-Gap            0.1130508 Eh            3.0763 eV
             Fermi-level           -0.3166905 Eh           -8.6176 eV

 SCC (total)                   0 d,  0 h,  0 min,  0.046 sec
 SCC setup                      ...        0 min,  0.005 sec ( 10.063%)
 Dispersion                     ...        0 min,  0.000 sec (  0.727%)
 classical contributions        ...        0 min,  0.000 sec (  0.116%)
 integral evaluation            ...        0 min,  0.005 sec ( 10.771%)
 iterations                     ...        0 min,  0.019 sec ( 42.363%)
 molecular gradient             ...        0 min,  0.016 sec ( 35.400%)
 printout                       ...        0 min,  0.000 sec (  0.514%)

         :::::::::::::::::::::::::::::::::::::::::::::::::::::
         ::                     SUMMARY                     ::
         :::::::::::::::::::::::::::::::::::::::::::::::::::::
         :: total energy             -49.337612395577 Eh    ::
         :: total w/o Gsasa/hb       -49.334718527777 Eh    ::
         :: gradient norm              0.000046233993 Eh/a0 ::
         :: HOMO-LUMO gap              3.076267825830 eV    ::
         ::.................................................::
         :: SCC energy               -50.049954661180 Eh    ::
         :: -> isotropic ES            0.087437904321 Eh    ::
         :: -> anisotropic ES          0.003477573478 Eh    ::
         :: -> anisotropic XC          0.015385046987 Eh    ::
         :: -> dispersion             -0.030714006203 Eh    ::
         :: -> Gsolv                  -0.019795447763 Eh    ::
         ::    -> Gelec               -0.016901579964 Eh    ::
         ::    -> Gsasa                0.002037681651 Eh    ::
         ::    -> Ghb                 -0.007826098611 Eh    ::
         ::    -> Gshift               0.002894549160 Eh    ::
         :: repulsion energy           0.712342265603 Eh    ::
         :: add. restraining           0.000000000000 Eh    ::
         :: total charge               0.000000000000 e     ::
         :::::::::::::::::::::::::::::::::::::::::::::::::::::

           -------------------------------------------------
          |                Property Printout                |
           -------------------------------------------------

    * Orbital Energies and Occupations

         #    Occupation            Energy/Eh            Energy/eV
      -------------------------------------------------------------
         1        2.0000           -0.7469042             -20.3243
       ...           ...                  ...                  ...
        32        2.0000           -0.4701523             -12.7935
        33        2.0000           -0.4669087             -12.7052
        34        2.0000           -0.4643011             -12.6343
        35        2.0000           -0.4603531             -12.5268
        36        2.0000           -0.4516897             -12.2911
        37        2.0000           -0.4458042             -12.1310
        38        2.0000           -0.4373270             -11.9003
        39        2.0000           -0.4316135             -11.7448
        40        2.0000           -0.4235133             -11.5244
        41        2.0000           -0.4178885             -11.3713
        42        2.0000           -0.4124448             -11.2232
        43        2.0000           -0.3929635             -10.6931
        44        2.0000           -0.3732158             -10.1557 (HOMO)
        45                         -0.2601651              -7.0795 (LUMO)
        46                         -0.2432621              -6.6195
        47                         -0.2259811              -6.1493
        48                         -0.1905683              -5.1856
        49                         -0.1461611              -3.9772
        50                         -0.0588341              -1.6010
        51                          0.0255112               0.6942
        52                          0.0604902               1.6460
        53                          0.0827975               2.2530
        54                          0.0845691               2.3012
        55                          0.1050097               2.8575
       ...                                ...                  ...
        82                          0.7009142              19.0728
      -------------------------------------------------------------
                  HL-Gap            0.1130508 Eh            3.0763 eV
             Fermi-level           -0.3166905 Eh           -8.6176 eV

     #   Z          covCN         q      C6AA      α(0)
     1   6 C        3.756    -0.112    22.694     6.792
     2   6 C        3.856    -0.055    21.517     6.597
     3   1 H        0.924     0.070     2.091     2.261
     4   6 C        2.975     0.005    27.895     8.663
     5   6 C        2.919    -0.045    29.112     8.848
     6   6 C        2.918    -0.043    29.065     8.841
     7   6 C        2.987     0.009    27.799     8.649
     8   6 C        2.916    -0.082    30.052     8.989
     9   6 C        2.861     0.141    24.914     8.181
    10   6 C        2.916    -0.056    29.390     8.890
    11   6 C        2.917    -0.039    28.967     8.826
    12   6 C        2.986     0.003    27.940     8.671
    13   6 C        2.922    -0.042    29.041     8.837
    14   8 O        1.705    -0.301    19.008     5.886
    15   6 C        3.642     0.020    20.578     6.522
    16   6 C        2.697     0.371    20.718     7.450
    17   8 O        0.856    -0.460    22.909     6.417
    18   8 O        1.659    -0.422    21.270     6.226
    19   1 H        0.925     0.060     2.195     2.317
    20   1 H        0.925     0.051     2.310     2.377
    21   1 H        0.925     0.052     2.293     2.368
    22   1 H        0.926     0.050     2.326     2.385
    23   1 H        0.926     0.047     2.352     2.398
    24   1 H        0.926     0.048     2.348     2.396
    25   1 H        0.926     0.052     2.291     2.367
    26   1 H        0.926     0.045     2.386     2.415
    27   1 H        0.925     0.031     2.577     2.510
    28   1 H        0.924     0.055     2.255     2.348
    29   1 H        0.925     0.080     1.978     2.199
    30   1 H        0.924     0.055     2.254     2.348
    31   1 H        0.804     0.408     0.470     1.077

 Mol. C6AA /au·bohr⁶  :      11154.827340
 Mol. C8AA /au·bohr⁸  :     267685.146494
 Mol. α(0) /au        :        165.052861


Wiberg/Mayer (AO) data.
largest (>0.10) Wiberg bond orders for each atom

 ---------------------------------------------------------------------------
     #   Z sym  total        # sym  WBO       # sym  WBO       # sym  WBO
 ---------------------------------------------------------------------------
     1   6 C    3.988 --     2 C    0.993    19 H    0.985    21 H    0.985
                            20 H    0.984
     2   6 C    3.992 --     1 C    0.993     4 C    0.967    16 C    0.957
                             3 H    0.952
     3   1 H    0.995 --     2 C    0.952
     4   6 C    3.977 --    13 C    1.511     5 C    1.303     2 C    0.967
     5   6 C    3.990 --     6 C    1.552     4 C    1.303    22 H    0.967
     6   6 C    3.990 --     5 C    1.552     7 C    1.282    23 H    0.967
                            13 C    0.114
     7   6 C    3.989 --     6 C    1.282     8 C    1.279    12 C    1.250
     8   6 C    3.984 --     9 C    1.477     7 C    1.279    24 H    0.962
                            11 C    0.105
     9   6 C    3.931 --     8 C    1.477    10 C    1.244    14 O    1.060
    10   6 C    3.989 --    11 C    1.590     9 C    1.244    25 H    0.967
    11   6 C    3.989 --    10 C    1.590    12 C    1.259    26 H    0.967
                             8 C    0.105
    12   6 C    3.991 --    13 C    1.295    11 C    1.259     7 C    1.250
    13   6 C    3.991 --     4 C    1.511    12 C    1.295    27 H    0.966
                             6 C    0.114
    14   8 O    2.207 --     9 C    1.060    15 C    0.971
    15   6 C    3.931 --    29 H    0.978    28 H    0.976    30 H    0.976
                            14 O    0.971
    16   6 C    3.898 --    17 O    1.727    18 O    1.157     2 C    0.957
    17   8 O    2.000 --    16 C    1.727    18 O    0.158
    18   8 O    2.176 --    16 C    1.157    31 H    0.811    17 O    0.158
    19   1 H    0.996 --     1 C    0.985
    20   1 H    0.997 --     1 C    0.984
    21   1 H    0.997 --     1 C    0.985
    22   1 H    0.997 --     5 C    0.967
    23   1 H    0.997 --     6 C    0.967
    24   1 H    0.997 --     8 C    0.962
    25   1 H    0.997 --    10 C    0.967
    26   1 H    0.997 --    11 C    0.967
    27   1 H    0.999 --    13 C    0.966
    28   1 H    0.996 --    15 C    0.976
    29   1 H    0.993 --    15 C    0.978
    30   1 H    0.996 --    15 C    0.976
    31   1 H    0.834 --    18 O    0.811
 ---------------------------------------------------------------------------

Topologies differ in total number of bonds
Writing topology from bond orders to xtbtopo.mol

molecular dipole:
                 x           y           z       tot (Debye)
 q only:        1.005      -2.042       1.458
   full:        1.068      -2.228       1.598       7.478
molecular quadrupole (traceless):
                xx          xy          yy          xz          yz          zz
 q only:       -1.906      12.195      -4.101      -5.554      -1.081       6.008
  q+dip:       -0.774      14.307      -3.986      -6.634      -5.294       4.760
   full:       -1.837      13.970      -4.344      -6.402      -2.353       6.181


           -------------------------------------------------
          | TOTAL ENERGY              -49.337612395577 Eh   |
          | GRADIENT NORM               0.000046233993 Eh/α |
          | HOMO-LUMO GAP               3.076267825830 eV   |
           -------------------------------------------------

------------------------------------------------------------------------
 * finished run on 2025/04/11 at 15:54:53.772     
------------------------------------------------------------------------
 total:
 * wall-time:     0 d,  0 h,  0 min,  0.096 sec
 *  cpu-time:     0 d,  0 h,  0 min,  0.063 sec
 * ratio c/w:     0.652 speedup
 SCF:
 * wall-time:     0 d,  0 h,  0 min,  0.046 sec
 *  cpu-time:     0 d,  0 h,  0 min,  0.045 sec
 * ratio c/w:     0.976 speedup

