      -----------------------------------------------------------      
     |                   =====================                   |     
     |                           x T B                           |     
     |                   =====================                   |     
     |                         S. Grimme                         |     
     |          Mulliken Center for Theoretical Chemistry        |     
     |                    University of Bonn                     |     
      -----------------------------------------------------------      

   * xtb version 6.7.1 (edcfbbe) compiled by 'albert@albert-system' on 2024-07-22

   xtb is free software: you can redistribute it and/or modify it under
   the terms of the GNU Lesser General Public License as published by
   the Free Software Foundation, either version 3 of the License, or
   (at your option) any later version.
   
   xtb is distributed in the hope that it will be useful,
   but WITHOUT ANY WARRANTY; without even the implied warranty of
   MERCHANTABILITY or FITNESS FOR A PARTICULAR PURPOSE.  See the
   GNU Lesser General Public License for more details.
   
   Cite this work as:
   * C. Bannwarth, E. Caldeweyher, S. Ehlert, A. Hansen, P. Pracht,
     J. Seibert, S. Spicher, S. Grimme, WIREs Comput. Mol. Sci., 2020, 11,
     e01493. DOI: 10.1002/wcms.1493
   
   for GFN2-xTB:
   * C. Bannwarth, S. Ehlert and S. Grimme., J. Chem. Theory Comput., 2019,
     15, 1652-1671. DOI: 10.1021/acs.jctc.8b01176
   for GFN1-xTB:
   * S. Grimme, C. Bannwarth, P. Shushkov, J. Chem. Theory Comput., 2017,
     13, 1989-2009. DOI: 10.1021/acs.jctc.7b00118
   for GFN0-xTB:
   * P. Pracht, E. Caldeweyher, S. Ehlert, S. Grimme, ChemRxiv, 2019, preprint.
     DOI: 10.26434/chemrxiv.8326202.v1
   for GFN-FF:
   * S. Spicher and S. Grimme, Angew. Chem. Int. Ed., 2020, 59, 15665-15673.
     DOI: 10.1002/anie.202004239
   
   for ALPB and GBSA implicit solvation:
   * S. Ehlert, M. Stahn, S. Spicher, S. Grimme, J. Chem. Theory Comput.,
     2021, 17, 4250-4261. DOI: 10.1021/acs.jctc.1c00471
   
   for ddCOSMO and CPCM-X implicit solvation:
   * M. Stahn, S. Ehlert, S. Grimme, J. Phys. Chem. A,
     2023, XX, XXXX-XXXX. DOI: 10.1021/acs.jpca.3c04382
   
   for DFT-D4:
   * E. Caldeweyher, C. Bannwarth and S. Grimme, J. Chem. Phys., 2017,
     147, 034112. DOI: 10.1063/1.4993215
   * E. Caldeweyher, S. Ehlert, A. Hansen, H. Neugebauer, S. Spicher,
     C. Bannwarth and S. Grimme, J. Chem. Phys., 2019, 150, 154122.
     DOI: 10.1063/1.5090222
   * E. Caldeweyher, J.-M. Mewes, S. Ehlert and S. Grimme, Phys. Chem. Chem. Phys.
     2020, 22, 8499-8512. DOI: 10.1039/D0CP00502A
   
   for sTDA-xTB:
   * S. Grimme and C. Bannwarth, J. Chem. Phys., 2016, 145, 054103.
     DOI: 10.1063/1.4959605
   
   in the mass-spec context:
   * V. Asgeirsson, C. Bauer and S. Grimme, Chem. Sci., 2017, 8, 4879.
     DOI: 10.1039/c7sc00601b
   * J. Koopman and S. Grimme, ACS Omega 2019, 4, 12, 15120-15133.
     DOI: 10.1021/acsomega.9b02011
   
   for metadynamics refer to:
   * S. Grimme, J. Chem. Theory Comput., 2019, 155, 2847-2862
     DOI: 10.1021/acs.jctc.9b00143
   
   for SPH calculations refer to:
   * S. Spicher and S. Grimme, J. Chem. Theory Comput., 2021, 17, 1701-1714
     DOI: 10.1021/acs.jctc.0c01306
   
   for ONIOM refer to:
   * C. Plett, A. Katbashev, S. Ehlert, S. Grimme, M. Bursch,
     Phys. Chem. Chem. Phys., 2023, 25, 17860-17868. DOI: 10.1039/D3CP02178E
   
   for DIPRO refer to:
   * J. Kohn, N. Gildemeister, S. Grimme, D. Fazzi, A. Hansen,
     J. Chem. Phys., 2023, just accepted.
   
   for PTB refer to:
   * S. Grimme, M. Mueller, A. Hansen, J. Chem. Phys., 2023, 158, 124111.
     DOI: 10.1063/5.0137838
   
   with help from (in alphabetical order)
   P. Atkinson, C. Bannwarth, F. Bohle, G. Brandenburg, E. Caldeweyher
   M. Checinski, S. Dohm, S. Ehlert, S. Ehrlich, I. Gerasimov, C. Hölzer
   A. Katbashev, J. Kohn, J. Koopman, C. Lavigne, S. Lehtola, F. März, M. Müller,
   F. Musil, H. Neugebauer, J. Pisarek, C. Plett, P. Pracht, F. Pultar,
   J. Seibert, P. Shushkov, S. Spicher, M. Stahn, M. Steiner, T. Strunk,
   J. Stückrath, T. Rose, and J. Unsleber
   
 * started run on 2025/04/11 at 15:59:01.647     
   ID    Z sym.   atoms
    1    6 C      1-5, 8
    2    8 O      6, 7
    3    1 H      9-20

           -------------------------------------------------
          |                Calculation Setup                |
           -------------------------------------------------

          program call               : /srv/scratch/z5358697/.xtb/bin/xtb gas.coord --gfn2 --sp --chrg 0 --norestart --parallel 1
          hostname                   : k068
          coordinate file            : gas.coord
          omp threads                :                     1


           -------------------------------------------------
          |                 G F N 2 - x T B                 |
           -------------------------------------------------

        Reference                      10.1021/acs.jctc.8b01176
      * Hamiltonian:
        H0-scaling (s, p, d)           1.850000    2.230000    2.230000
        zeta-weighting                 0.500000
      * Dispersion:
        s8                             2.700000
        a1                             0.520000
        a2                             5.000000
        s9                             5.000000
      * Repulsion:
        kExp                           1.500000    1.000000
        rExp                           1.000000
      * Coulomb:
        alpha                          2.000000
        third order                    shell-resolved
        anisotropic                    true
        a3                             3.000000
        a5                             4.000000
        cn-shift                       1.200000
        cn-exp                         4.000000
        max-rad                        5.000000


          ...................................................
          :                      SETUP                      :
          :.................................................:
          :  # basis functions                  44          :
          :  # atomic orbitals                  44          :
          :  # shells                           28          :
          :  # electrons                        48          :
          :  max. iterations                   250          :
          :  Hamiltonian                  GFN2-xTB          :
          :  restarted?                      false          :
          :  GBSA solvation                  false          :
          :  PC potential                    false          :
          :  electronic temp.          300.0000000     K    :
          :  accuracy                    1.0000000          :
          :  -> integral cutoff          0.2500000E+02      :
          :  -> integral neglect         0.1000000E-07      :
          :  -> SCF convergence          0.1000000E-05 Eh   :
          :  -> wf. convergence          0.1000000E-03 e    :
          :  Broyden damping             0.4000000          :
          :  net charge                          0          :
          :  unpaired electrons                  0          :
          ...................................................

 iter      E             dE          RMSdq      gap      omega  full diag
   1    -27.3519874 -0.273520E+02  0.378E+00    6.02       0.0  T
   2    -27.4212995 -0.693121E-01  0.195E+00    4.77       1.0  T
   3    -27.4246318 -0.333232E-02  0.111E+00    5.26       1.0  T
   4    -27.4269320 -0.230022E-02  0.177E-01    4.97       1.0  T
   5    -27.4272256 -0.293609E-03  0.726E-02    5.04       1.0  T
   6    -27.4272298 -0.418858E-05  0.180E-02    5.04       1.2  T
   7    -27.4272307 -0.831053E-06  0.688E-03    5.04       3.2  T
   8    -27.4272308 -0.118052E-06  0.182E-03    5.04      12.3  T
   9    -27.4272308 -0.655218E-08  0.923E-04    5.04      24.2  T
  10    -27.4272308 -0.257120E-08  0.200E-04    5.04     111.9  T

   *** convergence criteria satisfied after 10 iterations ***

         #    Occupation            Energy/Eh            Energy/eV
      -------------------------------------------------------------
         1        2.0000           -0.7437208             -20.2377
       ...           ...                  ...                  ...
        18        2.0000           -0.4723993             -12.8546
        19        2.0000           -0.4577379             -12.4557
        20        2.0000           -0.4479275             -12.1887
        21        2.0000           -0.4409028             -11.9976
        22        2.0000           -0.4332041             -11.7881
        23        2.0000           -0.4287726             -11.6675
        24        2.0000           -0.4108375             -11.1795 (HOMO)
        25                         -0.2257826              -6.1439 (LUMO)
        26                          0.0037269               0.1014
        27                          0.0906142               2.4657
        28                          0.0973512               2.6491
        29                          0.1180841               3.2132
       ...                                ...                  ...
        44                          0.6306382              17.1605
      -------------------------------------------------------------
                  HL-Gap            0.1850549 Eh            5.0356 eV
             Fermi-level           -0.3183100 Eh           -8.6617 eV

 SCC (total)                   0 d,  0 h,  0 min,  0.028 sec
 SCC setup                      ...        0 min,  0.000 sec (  0.609%)
 Dispersion                     ...        0 min,  0.000 sec (  0.438%)
 classical contributions        ...        0 min,  0.000 sec (  0.078%)
 integral evaluation            ...        0 min,  0.002 sec (  5.754%)
 iterations                     ...        0 min,  0.021 sec ( 74.916%)
 molecular gradient             ...        0 min,  0.005 sec ( 17.599%)
 printout                       ...        0 min,  0.000 sec (  0.553%)

         :::::::::::::::::::::::::::::::::::::::::::::::::::::
         ::                     SUMMARY                     ::
         :::::::::::::::::::::::::::::::::::::::::::::::::::::
         :: total energy             -27.112368500497 Eh    ::
         :: gradient norm              0.026151461501 Eh/a0 ::
         :: HOMO-LUMO gap              5.035600781542 eV    ::
         ::.................................................::
         :: SCC energy               -27.427169998179 Eh    ::
         :: -> isotropic ES            0.047309330342 Eh    ::
         :: -> anisotropic ES          0.003139938450 Eh    ::
         :: -> anisotropic XC          0.007642797804 Eh    ::
         :: -> dispersion             -0.012694017517 Eh    ::
         :: repulsion energy           0.314801497682 Eh    ::
         :: add. restraining           0.000000000000 Eh    ::
         :: total charge               0.000000000000 e     ::
         :::::::::::::::::::::::::::::::::::::::::::::::::::::

           -------------------------------------------------
          |                Property Printout                |
           -------------------------------------------------

    * Orbital Energies and Occupations

         #    Occupation            Energy/Eh            Energy/eV
      -------------------------------------------------------------
         1        2.0000           -0.7437208             -20.2377
       ...           ...                  ...                  ...
        12        2.0000           -0.5243261             -14.2676
        13        2.0000           -0.5128979             -13.9567
        14        2.0000           -0.5021390             -13.6639
        15        2.0000           -0.4971259             -13.5275
        16        2.0000           -0.4851699             -13.2021
        17        2.0000           -0.4759486             -12.9512
        18        2.0000           -0.4723993             -12.8546
        19        2.0000           -0.4577379             -12.4557
        20        2.0000           -0.4479275             -12.1887
        21        2.0000           -0.4409028             -11.9976
        22        2.0000           -0.4332041             -11.7881
        23        2.0000           -0.4287726             -11.6675
        24        2.0000           -0.4108375             -11.1795 (HOMO)
        25                         -0.2257826              -6.1439 (LUMO)
        26                          0.0037269               0.1014
        27                          0.0906142               2.4657
        28                          0.0973512               2.6491
        29                          0.1180841               3.2132
        30                          0.1314600               3.5772
        31                          0.1400089               3.8098
        32                          0.1418900               3.8610
        33                          0.1517407               4.1291
        34                          0.1783749               4.8538
        35                          0.1896317               5.1601
       ...                                ...                  ...
        44                          0.6306382              17.1605
      -------------------------------------------------------------
                  HL-Gap            0.1850549 Eh            5.0356 eV
             Fermi-level           -0.3183100 Eh           -8.6617 eV

     #   Z          covCN         q      C6AA      α(0)
     1   6 C        3.751    -0.102    22.504     6.765
     2   6 C        3.800    -0.054    21.550     6.610
     3   6 C        3.803    -0.058    21.611     6.618
     4   6 C        3.803    -0.089    22.194     6.707
     5   6 C        2.716     0.359    20.903     7.484
     6   8 O        0.856    -0.420    22.084     6.300
     7   8 O        1.704    -0.265    18.399     5.791
     8   6 C        3.649     0.031    20.362     6.482
     9   1 H        0.925     0.034     2.535     2.490
    10   1 H        0.925     0.041     2.433     2.439
    11   1 H        0.925     0.032     2.555     2.500
    12   1 H        0.924     0.035     2.514     2.479
    13   1 H        0.924     0.032     2.556     2.500
    14   1 H        0.924     0.038     2.474     2.460
    15   1 H        0.924     0.058     2.223     2.332
    16   1 H        0.925     0.062     2.178     2.308
    17   1 H        0.924     0.067     2.117     2.275
    18   1 H        0.925     0.069     2.095     2.264
    19   1 H        0.924     0.064     2.154     2.295
    20   1 H        0.924     0.065     2.144     2.290

 Mol. C6AA /au·bohr⁶  :       3023.771602
 Mol. C8AA /au·bohr⁸  :      64072.829080
 Mol. α(0) /au        :         81.390154


Wiberg/Mayer (AO) data.
largest (>0.10) Wiberg bond orders for each atom

 ---------------------------------------------------------------------------
     #   Z sym  total        # sym  WBO       # sym  WBO       # sym  WBO
 ---------------------------------------------------------------------------
     1   6 C    3.997 --     2 C    1.020    10 H    0.987     9 H    0.987
                            11 H    0.985
     2   6 C    3.998 --     1 C    1.020     3 C    1.009    13 H    0.978
                            12 H    0.977
     3   6 C    3.993 --     2 C    1.009     4 C    0.995    14 H    0.978
                            15 H    0.973
     4   6 C    3.994 --     3 C    0.995     5 C    0.976    16 H    0.972
                            17 H    0.948
     5   6 C    3.913 --     6 O    1.743     7 O    1.133     4 C    0.976
     6   8 O    2.024 --     5 C    1.743     7 O    0.169
     7   8 O    2.303 --     5 C    1.133     8 C    0.953     6 O    0.169
     8   6 C    3.926 --    18 H    0.983    19 H    0.978    20 H    0.978
                             7 O    0.953
     9   1 H    0.999 --     1 C    0.987
    10   1 H    0.998 --     1 C    0.987
    11   1 H    0.999 --     1 C    0.985
    12   1 H    0.999 --     2 C    0.977
    13   1 H    0.999 --     2 C    0.978
    14   1 H    0.998 --     3 C    0.978
    15   1 H    0.997 --     3 C    0.973
    16   1 H    0.996 --     4 C    0.972
    17   1 H    0.995 --     4 C    0.948
    18   1 H    0.995 --     8 C    0.983
    19   1 H    0.996 --     8 C    0.978
    20   1 H    0.996 --     8 C    0.978
 ---------------------------------------------------------------------------

Topologies differ in total number of bonds
Writing topology from bond orders to xtbtopo.mol

molecular dipole:
                 x           y           z       tot (Debye)
 q only:        0.007      -0.298       0.652
   full:        0.068      -0.305       0.759       2.086
molecular quadrupole (traceless):
                xx          xy          yy          xz          yz          zz
 q only:        4.343      -4.359       0.778       0.545       2.901      -5.121
  q+dip:        3.923      -3.095       1.149       1.085       2.940      -5.072
   full:        4.434      -3.121       1.452       1.019       3.430      -5.886


           -------------------------------------------------
          | TOTAL ENERGY              -27.112368500497 Eh   |
          | GRADIENT NORM               0.026151461501 Eh/α |
          | HOMO-LUMO GAP               5.035600781542 eV   |
           -------------------------------------------------

------------------------------------------------------------------------
 * finished run on 2025/04/11 at 15:59:01.738     
------------------------------------------------------------------------
 total:
 * wall-time:     0 d,  0 h,  0 min,  0.090 sec
 *  cpu-time:     0 d,  0 h,  0 min,  0.022 sec
 * ratio c/w:     0.244 speedup
 SCF:
 * wall-time:     0 d,  0 h,  0 min,  0.028 sec
 *  cpu-time:     0 d,  0 h,  0 min,  0.014 sec
 * ratio c/w:     0.496 speedup

