
                                 *****************
                                 * O   R   C   A *
                                 *****************

                                            #,                                       
                                            ###                                      
                                            ####                                     
                                            #####                                    
                                            ######                                   
                                           ########,                                 
                                     ,,################,,,,,                         
                               ,,#################################,,                 
                          ,,##########################################,,             
                       ,#########################################, ''#####,          
                    ,#############################################,,   '####,        
                  ,##################################################,,,,####,       
                ,###########''''           ''''###############################       
              ,#####''   ,,,,##########,,,,          '''####'''          '####       
            ,##' ,,,,###########################,,,                        '##       
           ' ,,###''''                  '''############,,,                           
         ,,##''                                '''############,,,,        ,,,,,,###''
      ,#''                                            '''#######################'''  
     '                                                          ''''####''''         
             ,#######,   #######,   ,#######,      ##                                
            ,#'     '#,  ##    ##  ,#'     '#,    #''#        ,####,   ,####,        
            ##       ##  ##   ,#'  ##            #'  '#       #'       #'  '#        
            ##       ##  #######   ##           ,######,      #####,   #    #        
            '#,     ,#'  ##    ##  '#,     ,#' ,#      #,     #,   #   #,  ,#        
             '#######'   ##     ##  '#######'  #'      '#     '####' # '####'        



                #########################################################
                #                        -***-                          #
                #          Department of theory and spectroscopy        #
                #                                                       #
                #                      Frank Neese                      #
                #                                                       #
                #     Directorship, Architecture, Infrastructure        #
                #                    SHARK, DRIVERS                     #
                #        Core code/Algorithms in most modules           #
                #                                                       #
                #        Max Planck Institute fuer Kohlenforschung      #
                #                Kaiser Wilhelm Platz 1                 #
                #                 D-45470 Muelheim/Ruhr                 #
                #                      Germany                          #
                #                                                       #
                #                  All rights reserved                  #
                #                        -***-                          #
                #########################################################


                         Program Version 6.0.0  -   RELEASE  -


 With contributions from (in alphabetic order):
   Daniel Aravena         : Magnetic Suceptibility
   Michael Atanasov       : Ab Initio Ligand Field Theory (pilot matlab implementation)
   Alexander A. Auer      : GIAO ZORA, VPT2 properties, NMR spectrum
   Ute Becker             : All parallelization in ORCA, NUMFREQ, NUMCALC
   Giovanni Bistoni       : ED, misc. LED, open-shell LED, HFLD
   Martin Brehm           : Molecular dynamics
   Dmytro Bykov           : pre 5.0 version of the SCF Hessian
   Marcos Casanova-Páez   : Triplet and SCS-CIS(D). UHF-(DLPNO)-IP/EA/STEOM-CCSD. UHF-CVS-IP/STEOM-CCSD
   Vijay G. Chilkuri      : MRCI spin determinant printing, contributions to CSF-ICE
   Pauline Colinet        : FMM embedding
   Dipayan Datta          : RHF DLPNO-CCSD density
   Achintya Kumar Dutta   : EOM-CC, STEOM-CC
   Nicolas Foglia         : Exact transition moments, OPA infrastructure, MCD improvements
   Dmitry Ganyushin       : Spin-Orbit,Spin-Spin,Magnetic field MRCI
   Miquel Garcia          : C-PCM and meta-GGA Hessian, CCSD/C-PCM, Gaussian charge scheme
   Tiago L. C. Gouveia    : GS-ROHF, GS-ROCIS
   Yang Guo               : DLPNO-NEVPT2, F12-NEVPT2, CIM, IAO-localization
   Andreas Hansen         : Spin unrestricted coupled pair/coupled cluster methods
   Ingolf Harden          : AUTO-CI MPn and infrastructure 
   Benjamin Helmich-Paris : MC-RPA, TRAH-(SCF,CASSCF), AVAS, COSX integrals, SCF dyn. polar.
   Lee Huntington         : MR-EOM, pCC
   Robert Izsak           : Overlap fitted RIJCOSX, COSX-SCS-MP3, EOM
   Riya Kayal             : Wick's Theorem for AUTO-CI, AUTO-CI UHF-CCSDT
   Emily Kempfer          : AUTO-CI, RHF CISDT and CCSDT
   Christian Kollmar      : KDIIS, OOCD, Brueckner-CCSD(T), CCSD density, CASPT2, CASPT2-K, improved NEVPT2
   Axel Koslowski         : Symmetry handling
   Simone Kossmann        : Meta GGA functionals, TD-DFT gradient, OOMP2, (MP2 Hessian; deprecated post 5.0)
   Lucas Lang             : DCDCAS
   Marvin Lechner         : AUTO-CI (C++ implementation), FIC-MRCC
   Spencer Leger          : CASSCF response
   Dagmar Lenk            : GEPOL surface, SMD, ORCA-2-JSON
   Dimitrios Liakos       : Extrapolation schemes; Compound Job, initial MDCI parallelization
   Dimitrios Manganas     : Further ROCIS development; embedding schemes. LFT, Crystal Embedding
   Dimitrios Pantazis     : SARC Basis sets
   Anastasios Papadopoulos: AUTO-CI, single reference methods and gradients
   Taras Petrenko         : pre 6.0 DFT Hessian and TD-DFT gradient, (ASA, deprecated), ECA, 1-Electron XAS/XES, NRVS
   Peter Pinski           : DLPNO-MP2, DLPNO-MP2 Gradient
   Christoph Reimann      : Effective Core Potentials
   Marius Retegan         : Local ZFS, SOC
   Christoph Riplinger    : Optimizer, TS searches, QM/MM, DLPNO-CCSD(T), (RO)-DLPNO pert. Triples
   Michael Roemelt        : Original ROCIS implementation
   Masaaki Saitow         : Open-shell DLPNO-CCSD energy and density
   Barbara Sandhoefer     : DKH picture change effects
   Kantharuban Sivalingam : CASSCF convergence/infrastructure, NEVPT2 and variants, FIC-MRCI
   Bernardo de Souza      : ESD, SOC TD-DFT
   Georgi Stoychev        : AutoAux, RI-MP2 NMR, DLPNO-MP2 response, X2C
   Van Anh Tran           : RI-MP2 g-tensors
   Willem Van den Heuvel  : Paramagnetic NMR
   Zikuan Wang            : NOTCH, Electric field optimization 
   Frank Wennmohs         : Technical directorship and infrastructure
   Hang Xu                : AUTO-CI-Response properties 


 We gratefully acknowledge several colleagues who have allowed us to
 interface, adapt or use parts of their codes:
   Stefan Grimme, W. Hujo, H. Kruse, P. Pracht,  : VdW corrections, initial TS optimization,
                  C. Bannwarth, S. Ehlert,         DFT functionals, gCP, sTDA/sTD-DF
                  L. Wittmann, M. Mueller
   Ed Valeev, F. Pavosevic, A. Kumar             : LibInt (2-el integral package), F12 methods
   Garnet Chan, S. Sharma, J. Yang, R. Olivares  : DMRG
   Ulf Ekstrom                                   : XCFun DFT Library
   Mihaly Kallay                                 : mrcc  (arbitrary order and MRCC methods)
   Frank Weinhold                                : gennbo (NPA and NBO analysis)
   Simon Mueller                                 : openCOSMO-RS
   Christopher J. Cramer and Donald G. Truhlar   : smd solvation model
   Lars Goerigk                                  : TD-DFT with DH, B97 family of functionals
   V. Asgeirsson, H. Jonsson                     : NEB implementation
   FAccTs GmbH                                   : IRC, NEB, NEB-TS, DLPNO-Multilevel, CI-OPT
                                                   MM, QMMM, 2- and 3-layer-ONIOM, Crystal-QMMM,
                                                   LR-CPCM, SF, NACMEs, symmetry and pop. for TD-DFT,
                                                   nearIR, NL-DFT gradient (VV10), updates on ESD,
                                                   ML-optimized integration grids, MBIS, APM,
                                                   GOAT, DOCKER, SOLVATOR, interface openCOSMO-RS
   S Lehtola, MJT Oliveira, MAL Marques          : LibXC Library
   Liviu Ungur et al                             : ANISO software


 Your calculation uses the libint2 library for the computation of 2-el integrals
 For citations please refer to: http://libint.valeyev.net

 Your ORCA version has been built with support for libXC version: 6.2.2
 For citations please refer to: https://libxc.gitlab.io

 This ORCA versions uses:
   CBLAS   interface :  Fast vector & matrix operations
   LAPACKE interface :  Fast linear algebra routines
   SCALAPACK package :  Parallel linear algebra routines
   Shared memory     :  Shared parallel matrices
   BLAS/LAPACK       :  OpenBLAS 0.3.27  USE64BITINT DYNAMIC_ARCH NO_AFFINITY SkylakeX SINGLE_THREADED
        Core in use  :  SkylakeX
   Copyright (c) 2011-2014, The OpenBLAS Project


Your calculation utilizes the geometrical counterpoise correction gCP
Please cite in your paper:
H.Kruse, S. Grimme J.Chem.Phys., 136, (2012), 154101 
   

Your calculation utilizes the atom-pairwise dispersion correction
based on EEQ partial charges (D4)


Your calculation utilizes the SMD solvation module
Please cite in your paper:
A.V. Marenich, C.J. Cramer, D.G. Truhlar J. Phys. Chem. B, 113, (2009), 6378 

================================================================================

----- Orbital basis set information -----
Your calculation utilizes the basis: def2-mTZVPP
   Stefan Grimme, Andreas Hansen, Sebastian Ehlert, and Jan-Michael Mewes 
   J. Chem. Phys. 154, 064103 (2021). DOI: 10.1063/5.0040021

----- AuxJ basis set information -----
Your calculation utilizes the auxiliary basis: def2/J
   F. Weigend, Phys. Chem. Chem. Phys. 8, 1057 (2006).

================================================================================
                                        WARNINGS
                       Please study these warnings very carefully!
================================================================================

Using LibXC functional ID 497 : Re-regularized SCAN exchange by Furness et al
[ 1]  J. W. Furness, A. D. Kaplan, J. Ning, J. P. Perdew, and J. Sun.,  J. Phys. Chem. Lett. 11, 8208-8215 (2020)
[ 2]  J. W. Furness, A. D. Kaplan, J. Ning, J. P. Perdew, and J. Sun.,  J. Phys. Chem. Lett. 11, 9248-9248 (2020)
Using LibXC functional ID 498 : Re-regularized SCAN correlation by Furness et al
[ 1]  J. W. Furness, A. D. Kaplan, J. Ning, J. P. Perdew, and J. Sun.,  J. Phys. Chem. Lett. 11, 8208-8215 (2020)
[ 2]  J. W. Furness, A. D. Kaplan, J. Ning, J. P. Perdew, and J. Sun.,  J. Phys. Chem. Lett. 11, 9248-9248 (2020)
Using LibXC functional ID 497 : Re-regularized SCAN exchange by Furness et al
[ 1]  J. W. Furness, A. D. Kaplan, J. Ning, J. P. Perdew, and J. Sun.,  J. Phys. Chem. Lett. 11, 8208-8215 (2020)
[ 2]  J. W. Furness, A. D. Kaplan, J. Ning, J. P. Perdew, and J. Sun.,  J. Phys. Chem. Lett. 11, 9248-9248 (2020)
Using LibXC functional ID 498 : Re-regularized SCAN correlation by Furness et al
[ 1]  J. W. Furness, A. D. Kaplan, J. Ning, J. P. Perdew, and J. Sun.,  J. Phys. Chem. Lett. 11, 8208-8215 (2020)
[ 2]  J. W. Furness, A. D. Kaplan, J. Ning, J. P. Perdew, and J. Sun.,  J. Phys. Chem. Lett. 11, 9248-9248 (2020)

================================================================================
                                       INPUT FILE
================================================================================
NAME = sp_solv.inp
|  1> ! r2scan-3c def2/J RI DEFGRID2 scfconv6 printgap
|  2> %output
|  3>     printlevel normal
|  4> end
|  5> %cpcm
|  6>     smd true
|  7>     smdsolvent "water"
|  8> end
|  9> * xyz 0 1
| 10> C -3.4776128718 0.4217783518 -0.032155741
| 11> C -2.6070140012 -0.7318000728 0.4522483871
| 12> C -1.1916754007 -0.7035471413 -0.1247298166
| 13> C -0.3752635668 0.4992741577 0.3729107507
| 14> C 1.0148375447 0.4084319428 -0.1938598751
| 15> O 1.3547498989 0.8529725618 -1.2712837403
| 16> O 1.8245741018 -0.2586526288 0.6189753324
| 17> C 3.1791620231 -0.4924325081 0.2206157596
| 18> H -4.4971933882 0.2951355859 0.3227690993
| 19> H -3.1080799548 1.3745922511 0.3365661462
| 20> H -3.494177764 0.4549403817 -1.1191224254
| 21> H -2.552030481 -0.7152055462 1.5420789796
| 22> H -3.0725610026 -1.6739613563 0.1566710948
| 23> H -1.2394296561 -0.6720332455 -1.2154049359
| 24> H -0.6720783755 -1.6195573717 0.1645076054
| 25> H -0.3204225554 0.4826078508 1.4604815943
| 26> H -0.8281282682 1.4267044555 0.0267680528
| 27> H 3.3423997849 -1.5683207574 0.222460181
| 28> H 3.8280874642 -0.0096111088 0.9489026896
| 29> H 3.3483617779 -0.0797239691 -0.7745040174
| 30> *
| 31> 
| 32>                          ****END OF INPUT****
================================================================================

                       ****************************
                       * Single Point Calculation *
                       ****************************

---------------------------------
CARTESIAN COORDINATES (ANGSTROEM)
---------------------------------
  C     -3.477613    0.421778   -0.032156
  C     -2.607014   -0.731800    0.452248
  C     -1.191675   -0.703547   -0.124730
  C     -0.375264    0.499274    0.372911
  C      1.014838    0.408432   -0.193860
  O      1.354750    0.852973   -1.271284
  O      1.824574   -0.258653    0.618975
  C      3.179162   -0.492433    0.220616
  H     -4.497193    0.295136    0.322769
  H     -3.108080    1.374592    0.336566
  H     -3.494178    0.454940   -1.119122
  H     -2.552030   -0.715206    1.542079
  H     -3.072561   -1.673961    0.156671
  H     -1.239430   -0.672033   -1.215405
  H     -0.672078   -1.619557    0.164508
  H     -0.320423    0.482608    1.460482
  H     -0.828128    1.426704    0.026768
  H      3.342400   -1.568321    0.222460
  H      3.828087   -0.009611    0.948903
  H      3.348362   -0.079724   -0.774504

----------------------------
CARTESIAN COORDINATES (A.U.)
----------------------------
  NO LB      ZA    FRAG     MASS         X           Y           Z
   0 C     6.0000    0    12.011   -6.571736    0.797046   -0.060766
   1 C     6.0000    0    12.011   -4.926542   -1.382902    0.854626
   2 C     6.0000    0    12.011   -2.251940   -1.329511   -0.235705
   3 C     6.0000    0    12.011   -0.709145    0.943491    0.704699
   4 C     6.0000    0    12.011    1.917765    0.771825   -0.366342
   5 O     8.0000    0    15.999    2.560106    1.611885   -2.402378
   6 O     8.0000    0    15.999    3.447945   -0.488783    1.169694
   7 C     6.0000    0    12.011    6.007746   -0.930563    0.416903
   8 H     1.0000    0     1.008   -8.498464    0.557725    0.609945
   9 H     1.0000    0     1.008   -5.873420    2.597603    0.636018
  10 H     1.0000    0     1.008   -6.603039    0.859713   -2.114835
  11 H     1.0000    0     1.008   -4.822639   -1.351543    2.914107
  12 H     1.0000    0     1.008   -5.806299   -3.163329    0.296065
  13 H     1.0000    0     1.008   -2.342183   -1.269959   -2.296782
  14 H     1.0000    0     1.008   -1.270044   -3.060520    0.310874
  15 H     1.0000    0     1.008   -0.605511    0.911997    2.759910
  16 H     1.0000    0     1.008   -1.564936    2.696081    0.050584
  17 H     1.0000    0     1.008    6.316220   -2.963697    0.420389
  18 H     1.0000    0     1.008    7.234037   -0.018162    1.793166
  19 H     1.0000    0     1.008    6.327487   -0.150656   -1.463600

--------------------------------
INTERNAL COORDINATES (ANGSTROEM)
--------------------------------
 C      0   0   0     0.000000000000     0.00000000     0.00000000
 C      1   0   0     1.524248317865     0.00000000     0.00000000
 C      2   1   0     1.528687485966   113.25848933     0.00000000
 C      3   2   1     1.536539454125   112.59174966    66.53629646
 C      4   3   2     1.503948918837   108.77024033   177.41541286
 O      5   4   3     1.214083586818   124.82692748    87.36053133
 O      5   4   3     1.327168486712   111.31469321   269.21379482
 C      7   5   4     1.431171484393   119.28180055   177.54628537
 H      1   2   3     1.086993312693   110.10863331   174.03996483
 H      1   2   3     1.086445918372   111.19870456   293.81108180
 H      1   2   3     1.087598588118   110.44997821    54.35632171
 H      2   1   3     1.091342882029   109.54983706   122.26053087
 H      2   1   3     1.091681194471   108.87732698   239.87129684
 H      3   2   1     1.092174807619   109.69218089   305.08819064
 H      3   2   1     1.092114507311   108.96753408   187.01586041
 H      4   3   2     1.089080181697   109.76712954    57.99470504
 H      4   3   2     1.088589988178   110.05360364   296.06900315
 H      8   7   5     1.088202873434   107.63836172   237.93268539
 H      8   7   5     1.088403686202   107.79433423   118.88219488
 H      8   7   5     1.090513762299   109.81779619   358.44301205

---------------------------
INTERNAL COORDINATES (A.U.)
---------------------------
 C      0   0   0     0.000000000000     0.00000000     0.00000000
 C      1   0   0     2.880411880854     0.00000000     0.00000000
 C      2   1   0     2.888800692828   113.25848933     0.00000000
 C      3   2   1     2.903638762261   112.59174966    66.53629646
 C      4   3   2     2.842051576009   108.77024033   177.41541286
 O      5   4   3     2.294285482775   124.82692748    87.36053133
 O      5   4   3     2.507984973457   111.31469321   269.21379482
 C      7   5   4     2.704522156180   119.28180055   177.54628537
 H      1   2   3     2.054119670394   110.10863331   174.03996483
 H      1   2   3     2.053085245039   111.19870456   293.81108180
 H      1   2   3     2.055263475182   110.44997821    54.35632171
 H      2   1   3     2.062339165239   109.54983706   122.26053087
 H      2   1   3     2.062978483103   108.87732698   239.87129684
 H      3   2   1     2.063911276768   109.69218089   305.08819064
 H      3   2   1     2.063797325700   108.96753408   187.01586041
 H      4   3   2     2.058063281289   109.76712954    57.99470504
 H      4   3   2     2.057136949785   110.05360364   296.06900315
 H      8   7   5     2.056405408936   107.63836172   237.93268539
 H      8   7   5     2.056784890072   107.79433423   118.88219488
 H      8   7   5     2.060772356018   109.81779619   358.44301205

---------------------
BASIS SET INFORMATION
---------------------
There are 3 groups of distinct atoms

 Group   1 Type C   : 11s6p1d contracted to 5s3p1d pattern {62111/411/1}
 Group   2 Type O   : 11s6p2d contracted to 5s3p2d pattern {62111/411/11}
 Group   3 Type H   : 4s1p contracted to 2s1p pattern {31/1}

Atom   0C    basis set group =>   1
Atom   1C    basis set group =>   1
Atom   2C    basis set group =>   1
Atom   3C    basis set group =>   1
Atom   4C    basis set group =>   1
Atom   5O    basis set group =>   2
Atom   6O    basis set group =>   2
Atom   7C    basis set group =>   1
Atom   8H    basis set group =>   3
Atom   9H    basis set group =>   3
Atom  10H    basis set group =>   3
Atom  11H    basis set group =>   3
Atom  12H    basis set group =>   3
Atom  13H    basis set group =>   3
Atom  14H    basis set group =>   3
Atom  15H    basis set group =>   3
Atom  16H    basis set group =>   3
Atom  17H    basis set group =>   3
Atom  18H    basis set group =>   3
Atom  19H    basis set group =>   3
---------------------------------
AUXILIARY/J BASIS SET INFORMATION
---------------------------------
There are 3 groups of distinct atoms

 Group   1 Type C   : 12s5p4d2f1g contracted to 6s4p3d1f1g pattern {711111/2111/211/2/1}
 Group   2 Type O   : 12s5p4d2f1g contracted to 6s4p3d1f1g pattern {711111/2111/211/2/1}
 Group   3 Type H   : 5s2p1d contracted to 3s1p1d pattern {311/2/1}

Atom   0C    basis set group =>   1
Atom   1C    basis set group =>   1
Atom   2C    basis set group =>   1
Atom   3C    basis set group =>   1
Atom   4C    basis set group =>   1
Atom   5O    basis set group =>   2
Atom   6O    basis set group =>   2
Atom   7C    basis set group =>   1
Atom   8H    basis set group =>   3
Atom   9H    basis set group =>   3
Atom  10H    basis set group =>   3
Atom  11H    basis set group =>   3
Atom  12H    basis set group =>   3
Atom  13H    basis set group =>   3
Atom  14H    basis set group =>   3
Atom  15H    basis set group =>   3
Atom  16H    basis set group =>   3
Atom  17H    basis set group =>   3
Atom  18H    basis set group =>   3
Atom  19H    basis set group =>   3

Checking for AutoStart:
The File: sp_solv.gbw exists
Trying to determine its content:
     ... Fine, the file contains calculation information
     ... Fine, the calculation information was read
     ... Fine, the file contains a basis set
     ... Fine, the basis set was read
     ... Fine, the file contains a geometry
     ... Fine, the geometry was read
     ... Fine, the file contains a set of orbitals
     ... Fine, the orbitals can be read
     => possible old guess file was deleted
     => GBW file was renamed to GES file
     => GES file is set as startup file
     => Guess is set to MORead
     ... now leaving AutoStart

------------------------------------------------------------------------------
                             ORCA STARTUP CALCULATIONS
                           -- RI-GTO INTEGRALS CHOSEN --
------------------------------------------------------------------------------
------------------------------------------------------------------------------
                   ___                                                        
                  /   \      - P O W E R E D   B Y -                         
                 /     \                                                     
                 |  |  |   _    _      __       _____    __    __             
                 |  |  |  | |  | |    /  \     |  _  \  |  |  /  |          
                  \  \/   | |  | |   /    \    | | | |  |  | /  /          
                 / \  \   | |__| |  /  /\  \   | |_| |  |  |/  /          
                |  |  |   |  __  | /  /__\  \  |    /   |      \           
                |  |  |   | |  | | |   __   |  |    \   |  |\   \          
                \     /   | |  | | |  |  |  |  | |\  \  |  | \   \       
                 \___/    |_|  |_| |__|  |__|  |_| \__\ |__|  \__/        
                                                                              
                      - O R C A' S   B I G   F R I E N D -                    
                                      &                                       
                       - I N T E G R A L  F E E D E R -                       
                                                                              
 v1 FN, 2020, v2 2021, v3 2022-2024                                           
------------------------------------------------------------------------------


----------------------
SHARK INTEGRAL PACKAGE
----------------------

Number of atoms                             ...     20
Number of basis functions                   ...    222
Number of shells                            ...    110
Maximum angular momentum                    ...      2
Integral batch strategy                     ... SHARK/LIBINT Hybrid
RI-J (if used) integral strategy            ... SPLIT-RIJ (Revised 2003 algorithm where possible)
Printlevel                                  ...      1
Contraction scheme used                     ... SEGMENTED contraction
Prescreening option                         ... SCHWARTZ
   Thresh                                   ... 1.000e-10
   Tcut                                     ... 1.000e-11
   Tpresel                                  ... 1.000e-11 
Coulomb Range Separation                    ... NOT USED
Exchange Range Separation                   ... NOT USED
Multipole approximations                    ... NOT USED
Finite Nucleus Model                        ... NOT USED
CABS basis                                  ... NOT available
Auxiliary Coulomb fitting basis             ... AVAILABLE
   # of basis functions in Aux-J            ...    524
   # of shells in Aux-J                     ...    180
   Maximum angular momentum in Aux-J        ...      4
Auxiliary J/K fitting basis                 ... NOT available
Auxiliary Correlation fitting basis         ... NOT available
Auxiliary 'external' fitting basis          ... NOT available

Checking pre-screening integrals            ... done (  0.0 sec) Dimension = 110
Check shell pair data                       ... done (  0.0 sec)
Shell pair information
Shell pair cut-off parameter TPreSel        ...   1.0e-11
Total number of shell pairs                 ...      6105
Shell pairs after pre-screening             ...      5200
Total number of primitive shell pairs       ...     21533
Primitive shell pairs kept                  ...     12978
          la=0 lb=0:   1741 shell pairs
          la=1 lb=0:   1962 shell pairs
          la=1 lb=1:    577 shell pairs
          la=2 lb=0:    555 shell pairs
          la=2 lb=1:    316 shell pairs
          la=2 lb=2:     49 shell pairs

Calculating one electron integrals          ... done (  0.0 sec)
Calculating RI/J V-Matrix + Cholesky decomp.... done (  0.1 sec)
Calculating Nuclear repulsion               ... done (  0.0 sec) ENN=    385.928864520764 Eh

Diagonalization of the overlap matrix:
Smallest eigenvalue                        ... 1.138e-04
Time for diagonalization                   ...    0.005 sec
Threshold for overlap eigenvalues          ... 1.000e-07
Number of eigenvalues below threshold      ... 0
Time for construction of square roots      ...    0.016 sec
Total time needed                          ...    0.030 sec

-------------------
DFT GRID GENERATION
-------------------

General Integration Accuracy     IntAcc      ... 4.388
Radial Grid Type                 RadialGrid  ... OptM3 with GC (2021)
Angular Grid (max. ang.)         AngularGrid ... 4 (Lebedev-302)
Angular grid pruning method      GridPruning ... 4 (adaptive)
Weight generation scheme         WeightScheme... mBecke (2022)
Basis function cutoff            BFCut       ... 1.0000e-10
Integration weight cutoff        WCut        ... 1.0000e-14
Partially contracted basis set               ... off
Rotationally invariant grid construction     ... off
Angular grids for H and He will be reduced by one unit
Diffuse basis detected: some atoms will have their outermost
                        angular grid increased by 1.

Total number of grid points                  ...    87324
Total number of batches                      ...     1373
Average number of points per batch           ...       63
Average number of grid points per atom       ...     4366
Initializing property integral containers    ... done (  0.0 sec)

SHARK setup successfully completed in   1.2 seconds

Maximum memory used throughout the entire STARTUP-calculation: 39.2 MB
-------------------------------------------------------------------------------
                                 ORCA GUESS
                   Start orbitals & Density for SCF / CASSCF
-------------------------------------------------------------------------------

------------
SCF SETTINGS
------------
Hamiltonian:
 Density Functional     Method          .... DFT(GTOs)
  Functional kind                       .... Exchange
  Functional name                       .... Re-regularized SCAN exchange by Furness et al
  Functional family                     .... MGGA
  Functional refs                              
    [ 0] J. W. Furness, A. D. Kaplan, J. Ning, J. P. Perdew, and J. Sun.,  J. Phys. Chem. Lett. 11, 8208-8215 (2020), doi: 10.1021/acs.jpclett.0c02405
    [ 1] J. W. Furness, A. D. Kaplan, J. Ning, J. P. Perdew, and J. Sun.,  J. Phys. Chem. Lett. 11, 9248-9248 (2020), doi: 10.1021/acs.jpclett.0c03077
  Functional external parameters        .... 6
    Parameter  0 _c1        =  6.670000e-01 : c1 parameter        
    Parameter  1 _c2        =  8.000000e-01 : c2 parameter        
    Parameter  2 _d         =  1.240000e+00 : d parameter         
    Parameter  3 _k1        =  6.500000e-02 : k1 parameter        
    Parameter  4 _eta       =  1.000000e-03 : eta parameter       
    Parameter  5 _dp2       =  3.610000e-01 : dp2 parameter       
  Functional kind                       .... Correlation
  Functional name                       .... Re-regularized SCAN correlation by Furness et al
  Functional family                     .... MGGA
  Functional refs                              
    [ 0] J. W. Furness, A. D. Kaplan, J. Ning, J. P. Perdew, and J. Sun.,  J. Phys. Chem. Lett. 11, 8208-8215 (2020), doi: 10.1021/acs.jpclett.0c02405
    [ 1] J. W. Furness, A. D. Kaplan, J. Ning, J. P. Perdew, and J. Sun.,  J. Phys. Chem. Lett. 11, 9248-9248 (2020), doi: 10.1021/acs.jpclett.0c03077
  Functional external parameters        .... 1
    Parameter  0 _eta       =  1.000000e-03 : Regularization parameter
 Gradients option       PostSCFGGA      .... off
 RI-approximation to the Coulomb term is turned on
   Number of AuxJ basis functions       .... 524


General Settings:
 Integral files         IntName         .... sp_solv
 Hartree-Fock type      HFTyp           .... RHF
 Total Charge           Charge          ....    0
 Multiplicity           Mult            ....    1
 Number of Electrons    NEL             ....   64
 Basis Dimension        Dim             ....  222
 Nuclear Repulsion      ENuc            ....    385.9288645208 Eh

Convergence Acceleration:
 AO-DIIS                CNVDIIS         .... on
   Start iteration      DIISMaxIt       ....    12
   Startup error        DIISStart       ....  0.200000
   # of expansion vecs  DIISMaxEq       ....     5
   Bias factor          DIISBfac        ....   1.050
   Max. coefficient     DIISMaxC        ....  10.000
 MO-DIIS                CNVKDIIS        .... off
 Trust-Rad. Augm. Hess. CNVTRAH         .... auto
   Auto Start mean grad. ratio tolernc. ....  1.125000
   Auto Start start iteration           ....     1
   Auto Start num. interpolation iter.  ....    10
   Max. Number of Micro iterations      ....    24
   Max. Number of Macro iterations      .... Maxiter - #DIIS iter
   Number of Davidson start vectors     ....     2
   Converg. threshold    (grad. norm)   ....   3.330e-04
   Grad. Scal. Fac. for Micro threshold ....   0.100
   Minimum threshold for Micro iter.    ....   1.000e-02
   NR start threshold (gradient norm)   ....   1.000e-04
   Initial trust radius                 ....   0.400
   Minimum AH scaling param. (alpha)    ....   1.000
   Maximum AH scaling param. (alpha)    .... 1000.000
   Quad. conv. algorithm                .... NR
   White noise on init. David. guess    .... on
   Maximum white noise                  ....   0.010
   Pseudo random numbers                .... off
   Inactive MOs                         .... canonical
   Orbital update algorithm             .... Taylor
   Preconditioner                       .... Diag
   Full preconditioner red. dimension   ....   250
   COSX micro iterations for RIJONX calc.... off
 SOSCF                  CNVSOSCF        .... on
   Start iteration      SOSCFMaxIt      ....   150
   Startup grad/error   SOSCFStart      ....  0.003300
   Hessian update       SOSCFHessUp     .... L-BFGS
 Level Shifting         CNVShift        .... on
   Level shift para.    LevelShift      ....    0.2500
   Turn off err/grad.   ShiftErr        ....    0.0010
 Zerner damping         CNVZerner       .... off
 Static damping         CNVDamp         .... on
   Fraction old density DampFac         ....    0.7000
   Max. Damping (<1)    DampMax         ....    0.9800
   Min. Damping (>=0)   DampMin         ....    0.0000
   Turn off err/grad.   DampErr         ....    0.1000

SCF Procedure:
 Maximum # iterations   MaxIter         ....   125
 SCF integral mode      SCFMode         .... Direct
   Integral package                     .... SHARK and LIBINT hybrid scheme
 Reset frequency        DirectResetFreq ....    20
 Integral Threshold     Thresh          ....  1.000e-10 Eh
 Primitive CutOff       TCut            ....  1.000e-11 Eh

Convergence Tolerance:
 Convergence Check Mode ConvCheckMode   .... Total+1el-Energy
 Convergence forced     ConvForced      .... 0
 Energy Change          TolE            ....  1.000e-06 Eh
 1-El. energy change                    ....  1.000e-03 Eh
 Orbital Gradient       TolG            ....  3.330e-04
 Orbital Rotation angle TolX            ....  3.330e-04
 DIIS Error             TolErr          ....  1.000e-06

---------------------
INITIAL GUESS: MOREAD
---------------------
Guess MOs are being read from file: sp_solv.ges
Input Geometry matches current geometry (good)
Atom 0: N(Shells)= 9 and 6 - projection required
Input basis set needs projection
NBasis(read)= 136
NBasis(calc)= 222
Basis set overlap was calculated
Using GuessMode=FMatrix for the initial guess
C*T matrix was formed
Effective Fockian was calculated
Effective Fockian was diagonalized
Initial density was built
                      ------------------
                      INITIAL GUESS DONE (   0.0 sec)
                      ------------------
             **** ENERGY FILE WAS UPDATED (sp_solv.en.tmp) ****
Finished Guess after   0.3 sec
Maximum memory used throughout the entire GUESS-calculation: 14.9 MB

-------------------------------------------------------------------------------------------
                                      ORCA LEAN-SCF
                              memory conserving SCF solver
-------------------------------------------------------------------------------------------

--------------------
CPCM SOLVATION MODEL
--------------------
CPCM parameters:
  Epsilon                                         ...      78.3550
  Refrac                                          ...       1.3328
  Rsolv                                           ...       1.3000
  Surface type                                    ... GAUSSIAN VDW
  Discretization scheme                           ... Constant charge density
    Threshold for H atoms                         ...       5.0000 (charges/Ang^2)
    Threshold for non-H atoms                     ...       5.0000 (charges/Ang^2)
  Epsilon function type                           ...         CPCM
Solvent:                                          ... WATER
SMD-CDS solvent descriptors:
  Soln                                            ...       1.3328
  Soln25                                          ...       1.3323
  Sola                                            ...       0.0000
  Solb                                            ...       0.0000
  Solg                                            ...       0.0000
  Solc                                            ...       0.0000
  Solh                                            ...       0.0000
Radii:
  Scheme                                          ... Element-dependent radii
  Radius for C  used is    3.4960 Bohr (=   1.8500 Ang.)
  Radius for O  used is    2.8724 Bohr (=   1.5200 Ang.)
  Radius for H  used is    2.2677 Bohr (=   1.2000 Ang.)
Calculating surface                               ...        done! (  0.0s)
Cavity surface points                             ...         1479
Cavity Volume                                     ...     878.7501
Cavity Surface-area                               ...     584.3763
Calculating surface distance matrix               ...        done! (  0.0s)
Performing Cholesky decomposition & store         ...        done! (  0.1s)
Overall time for CPCM initialization              ...                 0.1s

----------------------------------------D-I-I-S--------------------------------------------
Iteration    Energy (Eh)           Delta-E    RMSDP     MaxDP     DIISErr   Damp  Time(sec)
-------------------------------------------------------------------------------------------
               ***  Starting incremental Fock matrix formation  ***
    1    -386.0492412516191507     0.00e+00  3.80e-03  1.35e-01  6.26e-01  0.700   3.3
    2    -386.1082642978684589    -5.90e-02  3.03e-03  9.41e-02  4.41e-01  0.700   3.1
    3    -386.1500297334231391    -4.18e-02  2.21e-03  6.67e-02  3.10e-01  0.700   3.0
    4    -386.1793868209017546    -2.94e-02  1.58e-03  4.71e-02  2.17e-01  0.700   2.9
                               ***Turning on AO-DIIS***
    5    -386.2000007136144859    -2.06e-02  1.14e-03  3.40e-02  1.52e-01  0.700   2.9
    6    -386.2144537414260412    -1.45e-02  8.11e-04  2.41e-02  1.06e-01  0.700   2.9
    7    -386.2245992510331689    -1.01e-02  5.72e-04  1.70e-02  7.42e-02  0.700   2.8
    8    -386.2317098637831805    -7.11e-03  1.34e-03  3.97e-02  5.21e-02  0.000   2.7
                              *** Initializing SOSCF ***
---------------------------------------S-O-S-C-F--------------------------------------
Iteration    Energy (Eh)           Delta-E    RMSDP     MaxDP     MaxGrad    Time(sec)
--------------------------------------------------------------------------------------
    9    -386.2483345060074953    -1.66e-02  1.14e-05  2.75e-04  1.77e-04     2.9
               *** Restarting incremental Fock matrix formation ***
   10    -386.2483346323224396    -1.26e-07  7.01e-06  1.71e-04  5.89e-05     3.2
                  *** Gradient check signals convergence ***

               *****************************************************
               *                     SUCCESS                       *
               *           SCF CONVERGED AFTER  10 CYCLES          *
               *****************************************************


SMD CDS free energy correction energy :                 5.49729     Kcal/mol
Total Energy after SMD CDS correction =              -386.239574149 Eh
             **** ENERGY FILE WAS UPDATED (sp_solv.en.tmp) ****

----------------
TOTAL SCF ENERGY
----------------

Total Energy       :       -386.23957414904879 Eh          -10510.11314 eV

Components:
Nuclear Repulsion  :        385.92886452076448 Eh           10501.65830 eV
Electronic Energy  :       -772.16139989860028 Eh          -21011.57990 eV
One Electron Energy:      -1289.12294689663258 Eh          -35078.81876 eV
Two Electron Energy:        516.96154699803230 Eh           14067.23886 eV
CPCM Dielectric    :         -0.01579925448667 Eh              -0.42992 eV
SMD CDS (Gcds)     :          0.00876048327367 Eh               0.23838 eV

Virial components:
Potential Energy   :       -770.88561562421648 Eh          -20976.86404 eV
Kinetic Energy     :        384.64604147516769 Eh           10466.75091 eV
Virial Ratio       :          2.00414285473411

DFT components:
N(Alpha)           :       32.000032115522 electrons
N(Beta)            :       32.000032115522 electrons
N(Total)           :       64.000064231045 electrons
E(X)               :      -52.086020117888 Eh       
E(C)               :       -2.037999617505 Eh       
E(XC)              :      -54.124019735393 Eh       

CPCM Solvation Model Properties:
Surface-charge          :         -0.04763945354358
Corrected charge        :          0.00000000000000
Outlying charge corr.   :          0.00017002341310 Eh               0.00463 eV
Free-energy (cav+disp)  :          0.00876048327367 Eh               0.23838 eV

---------------
SCF CONVERGENCE
---------------

  Last Energy change         ...    1.2631e-07  Tolerance :   1.0000e-06
  Last MAX-Density change    ...    1.7070e-04  Tolerance :   1.0000e-05
  Last RMS-Density change    ...    7.0088e-06  Tolerance :   1.0000e-06
  Last DIIS Error            ...    1.7672e-04  Tolerance :   1.0000e-06
  Last Orbital Gradient      ...    5.8941e-05  Tolerance :   3.3300e-04
  Last Orbital Rotation      ...    1.3758e-04  Tolerance :   3.3300e-04


----------------
ORBITAL ENERGIES
----------------

  NO   OCC          E(Eh)            E(eV) 
   0   2.0000     -19.004121      -517.1284 
   1   2.0000     -18.942530      -515.4525 
   2   2.0000     -10.162289      -276.5300 
   3   2.0000     -10.074721      -274.1471 
   4   2.0000     -10.034653      -273.0568 
   5   2.0000     -10.028373      -272.8859 
   6   2.0000     -10.020058      -272.6596 
   7   2.0000     -10.008375      -272.3417 
   8   2.0000      -1.078606       -29.3504 
   9   2.0000      -0.988576       -26.9005 
  10   2.0000      -0.773271       -21.0418 
  11   2.0000      -0.722306       -19.6549 
  12   2.0000      -0.676945       -18.4206 
  13   2.0000      -0.616585       -16.7781 
  14   2.0000      -0.542112       -14.7516 
  15   2.0000      -0.529029       -14.3956 
  16   2.0000      -0.471892       -12.8408 
  17   2.0000      -0.458115       -12.4660 
  18   2.0000      -0.449883       -12.2419 
  19   2.0000      -0.423195       -11.5157 
  20   2.0000      -0.405783       -11.0419 
  21   2.0000      -0.394701       -10.7404 
  22   2.0000      -0.375033       -10.2052 
  23   2.0000      -0.361249        -9.8301 
  24   2.0000      -0.345571        -9.4035 
  25   2.0000      -0.330008        -8.9800 
  26   2.0000      -0.320048        -8.7090 
  27   2.0000      -0.298559        -8.1242 
  28   2.0000      -0.295624        -8.0443 
  29   2.0000      -0.290031        -7.8922 
  30   2.0000      -0.276986        -7.5372 
  31   2.0000      -0.250192        -6.8081 
  32   0.0000      -0.021403        -0.5824 
  33   0.0000       0.070926         1.9300 
  34   0.0000       0.102815         2.7977 
  35   0.0000       0.107867         2.9352 
  36   0.0000       0.124973         3.4007 
  37   0.0000       0.130586         3.5534 
  38   0.0000       0.144064         3.9202 
  39   0.0000       0.147234         4.0064 
  40   0.0000       0.154641         4.2080 
  41   0.0000       0.164427         4.4743 
  42   0.0000       0.175211         4.7677 
*Only the first 10 virtual orbitals were printed.

                    ********************************
                    * MULLIKEN POPULATION ANALYSIS *
                    ********************************

-----------------------
MULLIKEN ATOMIC CHARGES
-----------------------
   0 C :   -0.529589
   1 C :   -0.227063
   2 C :   -0.259294
   3 C :   -0.371392
   4 C :    0.450619
   5 O :   -0.519988
   6 O :   -0.214526
   7 C :   -0.318945
   8 H :    0.158354
   9 H :    0.160107
  10 H :    0.157651
  11 H :    0.146301
  12 H :    0.156066
  13 H :    0.161429
  14 H :    0.157082
  15 H :    0.177148
  16 H :    0.180518
  17 H :    0.175195
  18 H :    0.175252
  19 H :    0.185072
Sum of atomic charges:   -0.0000000

--------------------------------
MULLIKEN REDUCED ORBITAL CHARGES
--------------------------------
  0 C s       :     3.345520  s :     3.345520
      pz      :     1.076493  p :     3.157050
      px      :     1.073630
      py      :     1.006928
      dz2     :     0.007997  d :     0.027018
      dxz     :     0.002816
      dyz     :     0.003449
      dx2y2   :     0.007640
      dxy     :     0.005116

  1 C s       :     3.201705  s :     3.201705
      pz      :     1.044225  p :     2.988274
      px      :     0.928480
      py      :     1.015568
      dz2     :     0.010394  d :     0.037084
      dxz     :     0.005514
      dyz     :     0.003319
      dx2y2   :     0.008651
      dxy     :     0.009205

  2 C s       :     3.209214  s :     3.209214
      pz      :     1.059465  p :     3.013239
      px      :     0.959881
      py      :     0.993893
      dz2     :     0.010629  d :     0.036841
      dxz     :     0.005345
      dyz     :     0.003254
      dx2y2   :     0.007484
      dxy     :     0.010130

  3 C s       :     3.275212  s :     3.275212
      pz      :     1.061477  p :     3.061660
      px      :     0.956387
      py      :     1.043795
      dz2     :     0.008695  d :     0.034520
      dxz     :     0.005697
      dyz     :     0.004149
      dx2y2   :     0.009805
      dxy     :     0.006175

  4 C s       :     3.127314  s :     3.127314
      pz      :     0.748596  p :     2.296876
      px      :     0.820962
      py      :     0.727318
      dz2     :     0.029373  d :     0.125191
      dxz     :     0.039744
      dyz     :     0.023752
      dx2y2   :     0.016708
      dxy     :     0.015614

  5 O s       :     3.830811  s :     3.830811
      pz      :     1.370329  p :     4.664272
      px      :     1.767988
      py      :     1.525955
      dz2     :     0.009525  d :     0.024905
      dxz     :     0.003502
      dyz     :     0.007023
      dx2y2   :     0.001373
      dxy     :     0.003483

  6 O s       :     3.700619  s :     3.700619
      pz      :     1.638040  p :     4.482973
      px      :     1.213575
      py      :     1.631359
      dz2     :     0.008441  d :     0.030933
      dxz     :     0.004445
      dyz     :     0.006981
      dx2y2   :     0.006262
      dxy     :     0.004805

  7 C s       :     3.339858  s :     3.339858
      pz      :     1.103668  p :     2.936993
      px      :     0.718605
      py      :     1.114720
      dz2     :     0.007208  d :     0.042094
      dxz     :     0.009978
      dyz     :     0.003354
      dx2y2   :     0.013017
      dxy     :     0.008537

  8 H s       :     0.823283  s :     0.823283
      pz      :     0.004439  p :     0.018363
      px      :     0.010168
      py      :     0.003755

  9 H s       :     0.821465  s :     0.821465
      pz      :     0.004491  p :     0.018428
      px      :     0.004590
      py      :     0.009347

 10 H s       :     0.824100  s :     0.824100
      pz      :     0.011005  p :     0.018249
      px      :     0.003612
      py      :     0.003632

 11 H s       :     0.835796  s :     0.835796
      pz      :     0.011071  p :     0.017903
      px      :     0.003373
      py      :     0.003459

 12 H s       :     0.826035  s :     0.826035
      pz      :     0.004012  p :     0.017899
      px      :     0.004821
      py      :     0.009067

 13 H s       :     0.820794  s :     0.820794
      pz      :     0.011111  p :     0.017777
      px      :     0.003292
      py      :     0.003374

 14 H s       :     0.825065  s :     0.825065
      pz      :     0.003939  p :     0.017853
      px      :     0.005101
      py      :     0.008813

 15 H s       :     0.804832  s :     0.804832
      pz      :     0.011547  p :     0.018020
      px      :     0.003138
      py      :     0.003335

 16 H s       :     0.801340  s :     0.801340
      pz      :     0.003970  p :     0.018141
      px      :     0.004823
      py      :     0.009348

 17 H s       :     0.806935  s :     0.806935
      pz      :     0.003598  p :     0.017870
      px      :     0.002515
      py      :     0.011757

 18 H s       :     0.806897  s :     0.806897
      pz      :     0.006981  p :     0.017852
      px      :     0.005743
      py      :     0.005128

 19 H s       :     0.796252  s :     0.796252
      pz      :     0.011013  p :     0.018676
      px      :     0.002760
      py      :     0.004903


------------------------
MULLIKEN OVERLAP CHARGES
------------------------
B(  0-C ,  1-C ) :   0.4329 B(  0-C ,  2-C ) :  -0.2138 B(  0-C ,  8-H ) :   0.7925 
B(  0-C ,  9-H ) :   0.8512 B(  0-C , 10-H ) :   0.8508 B(  0-C , 11-H ) :  -0.0699 
B(  0-C , 12-H ) :  -0.0554 B(  1-C ,  2-C ) :   0.4736 B(  1-C ,  3-C ) :  -0.1890 
B(  1-C ,  8-H ) :  -0.0722 B(  1-C ,  9-H ) :  -0.0884 B(  1-C , 10-H ) :  -0.0976 
B(  1-C , 11-H ) :   0.8739 B(  1-C , 12-H ) :   0.8363 B(  1-C , 13-H ) :  -0.0637 
B(  1-C , 14-H ) :  -0.0660 B(  2-C ,  3-C ) :   0.3462 B(  2-C , 11-H ) :  -0.1122 
B(  2-C , 12-H ) :  -0.1075 B(  2-C , 13-H ) :   0.8424 B(  2-C , 14-H ) :   0.8174 
B(  2-C , 15-H ) :  -0.0579 B(  2-C , 16-H ) :  -0.0673 B(  3-C ,  4-C ) :   0.5275 
B(  3-C ,  5-O ) :  -0.1204 B(  3-C ,  6-O ) :  -0.0660 B(  3-C , 13-H ) :  -0.0604 
B(  3-C , 14-H ) :  -0.0579 B(  3-C , 15-H ) :   0.8477 B(  3-C , 16-H ) :   0.8513 
B(  4-C ,  5-O ) :   0.9940 B(  4-C ,  6-O ) :   0.3778 B(  4-C ,  7-C ) :  -0.2077 
B(  4-C , 15-H ) :  -0.0932 B(  4-C , 16-H ) :  -0.0717 B(  4-C , 19-H ) :  -0.0527 
B(  5-O ,  6-O ) :  -0.2152 B(  6-O ,  7-C ) :   0.3589 B(  6-O , 17-H ) :  -0.0716 
B(  6-O , 18-H ) :  -0.0722 B(  6-O , 19-H ) :  -0.0580 B(  7-C , 17-H ) :   0.7897 
B(  7-C , 18-H ) :   0.7978 B(  7-C , 19-H ) :   0.8450 


                     *******************************
                     * LOEWDIN POPULATION ANALYSIS *
                     *******************************

----------------------
LOEWDIN ATOMIC CHARGES
----------------------
   0 C :   -0.432686
   1 C :   -0.313559
   2 C :   -0.280887
   3 C :   -0.225192
   4 C :    0.364157
   5 O :   -0.501002
   6 O :   -0.604970
   7 C :   -0.040588
   8 H :    0.154168
   9 H :    0.152704
  10 H :    0.153866
  11 H :    0.156273
  12 H :    0.157749
  13 H :    0.163992
  14 H :    0.165333
  15 H :    0.185888
  16 H :    0.183779
  17 H :    0.184588
  18 H :    0.184321
  19 H :    0.192065

-------------------------------
LOEWDIN REDUCED ORBITAL CHARGES
-------------------------------
  0 C s       :     2.972760  s :     2.972760
      pz      :     1.151418  p :     3.397016
      px      :     1.128636
      py      :     1.116962
      dz2     :     0.019524  d :     0.062910
      dxz     :     0.006352
      dyz     :     0.007677
      dx2y2   :     0.017266
      dxy     :     0.012091

  1 C s       :     2.938101  s :     2.938101
      pz      :     1.129749  p :     3.295579
      px      :     1.057859
      py      :     1.107972
      dz2     :     0.023870  d :     0.079879
      dxz     :     0.011311
      dyz     :     0.006682
      dx2y2   :     0.018216
      dxy     :     0.019800

  2 C s       :     2.933613  s :     2.933613
      pz      :     1.130702  p :     3.267794
      px      :     1.056188
      py      :     1.080904
      dz2     :     0.024031  d :     0.079479
      dxz     :     0.010841
      dyz     :     0.006733
      dx2y2   :     0.016120
      dxy     :     0.021755

  3 C s       :     2.923647  s :     2.923647
      pz      :     1.116628  p :     3.228389
      px      :     1.002388
      py      :     1.109373
      dz2     :     0.020733  d :     0.073157
      dxz     :     0.011218
      dyz     :     0.008001
      dx2y2   :     0.019080
      dxy     :     0.014124

  4 C s       :     2.739380  s :     2.739380
      pz      :     0.923199  p :     2.624624
      px      :     0.949559
      py      :     0.751866
      dz2     :     0.063584  d :     0.271839
      dxz     :     0.087832
      dyz     :     0.055497
      dx2y2   :     0.033559
      dxy     :     0.031368

  5 O s       :     3.545958  s :     3.545958
      pz      :     1.491219  p :     4.734980
      px      :     1.728057
      py      :     1.515704
      dz2     :     0.060706  d :     0.220063
      dxz     :     0.065625
      dyz     :     0.050274
      dx2y2   :     0.022190
      dxy     :     0.021269

  6 O s       :     3.465654  s :     3.465654
      pz      :     1.644996  p :     4.668522
      px      :     1.381050
      py      :     1.642475
      dz2     :     0.079174  d :     0.470794
      dxz     :     0.118564
      dyz     :     0.047321
      dx2y2   :     0.108730
      dxy     :     0.117005

  7 C s       :     2.907505  s :     2.907505
      pz      :     1.102074  p :     3.031783
      px      :     0.820926
      py      :     1.108783
      dz2     :     0.017984  d :     0.101300
      dxz     :     0.024961
      dyz     :     0.007590
      dx2y2   :     0.031548
      dxy     :     0.019217

  8 H s       :     0.801914  s :     0.801914
      pz      :     0.010200  p :     0.043918
      px      :     0.025151
      py      :     0.008567

  9 H s       :     0.802943  s :     0.802943
      pz      :     0.010420  p :     0.044354
      px      :     0.010763
      py      :     0.023171

 10 H s       :     0.802399  s :     0.802399
      pz      :     0.027563  p :     0.043735
      px      :     0.008018
      py      :     0.008153

 11 H s       :     0.800353  s :     0.800353
      pz      :     0.027417  p :     0.043374
      px      :     0.007861
      py      :     0.008096

 12 H s       :     0.798851  s :     0.798851
      pz      :     0.009494  p :     0.043400
      px      :     0.011571
      py      :     0.022336

 13 H s       :     0.792271  s :     0.792271
      pz      :     0.028124  p :     0.043737
      px      :     0.007861
      py      :     0.007752

 14 H s       :     0.790931  s :     0.790931
      pz      :     0.009405  p :     0.043737
      px      :     0.012528
      py      :     0.021803

 15 H s       :     0.769691  s :     0.769691
      pz      :     0.029169  p :     0.044421
      px      :     0.007176
      py      :     0.008076

 16 H s       :     0.771615  s :     0.771615
      pz      :     0.009764  p :     0.044606
      px      :     0.011411
      py      :     0.023432

 17 H s       :     0.774170  s :     0.774170
      pz      :     0.008095  p :     0.041241
      px      :     0.004894
      py      :     0.028252

 18 H s       :     0.774417  s :     0.774417
      pz      :     0.017386  p :     0.041262
      px      :     0.011824
      py      :     0.012051

 19 H s       :     0.762639  s :     0.762639
      pz      :     0.027279  p :     0.045296
      px      :     0.006181
      py      :     0.011836


---------------------------------
LOEWDIN BOND ORDERS (THRESH 0.050000)
---------------------------------
B(  0-C ,  1-C ) :   1.1421 B(  0-C ,  2-C ) :   0.0644 B(  0-C ,  8-H ) :   0.9292 
B(  0-C ,  9-H ) :   0.9272 B(  0-C , 10-H ) :   0.9290 B(  1-C ,  2-C ) :   1.1105 
B(  1-C ,  3-C ) :   0.0661 B(  1-C , 11-H ) :   0.8939 B(  1-C , 12-H ) :   0.8914 
B(  2-C ,  3-C ) :   1.0618 B(  2-C ,  4-C ) :   0.0860 B(  2-C , 13-H ) :   0.8852 
B(  2-C , 14-H ) :   0.8843 B(  3-C ,  4-C ) :   0.9317 B(  3-C ,  5-O ) :   0.1829 
B(  3-C ,  6-O ) :   0.1865 B(  3-C , 15-H ) :   0.8602 B(  3-C , 16-H ) :   0.8635 
B(  4-C ,  5-O ) :   2.1396 B(  4-C ,  6-O ) :   1.4692 B(  4-C ,  7-C ) :   0.0869 
B(  5-O ,  6-O ) :   0.4553 B(  5-O ,  7-C ) :   0.0745 B(  6-O ,  7-C ) :   1.3506 
B(  6-O , 17-H ) :   0.1000 B(  6-O , 18-H ) :   0.1000 B(  6-O , 19-H ) :   0.0948 
B(  7-C , 17-H ) :   0.8613 B(  7-C , 18-H ) :   0.8613 B(  7-C , 19-H ) :   0.8393 


------------------------------------------
LOEWDIN REDUCED ORBITAL POPULATIONS PER MO
-------------------------------------------
THRESHOLD FOR PRINTING IS 0.1%%
                      0         1         2         3         4         5   
                 -19.00412 -18.94253 -10.16229 -10.07472 -10.03465 -10.02837
                   2.00000   2.00000   2.00000   2.00000   2.00000   2.00000
                  --------  --------  --------  --------  --------  --------
 2 C  s               0.0       0.0       0.0       0.0       0.0      99.7
 3 C  s               0.0       0.0       0.0       0.0      99.7       0.0
 4 C  s               0.0       0.0      98.9       0.0       0.0       0.0
 5 O  s               0.0      99.9       0.0       0.0       0.0       0.0
 5 O  pz              0.0       0.0       0.2       0.0       0.0       0.0
 5 O  dz2             0.0       0.0       0.2       0.0       0.0       0.0
 5 O  dyz             0.0       0.0       0.1       0.0       0.0       0.0
 6 O  s              99.9       0.0       0.0       0.0       0.0       0.0
 6 O  dxz             0.0       0.0       0.1       0.1       0.0       0.0
 6 O  dx2y2           0.0       0.0       0.0       0.2       0.0       0.0
 7 C  s               0.0       0.0       0.0      99.4       0.0       0.0

                      6         7         8         9        10        11   
                 -10.02006 -10.00837  -1.07861  -0.98858  -0.77327  -0.72231
                   2.00000   2.00000   2.00000   2.00000   2.00000   2.00000
                  --------  --------  --------  --------  --------  --------
 0 C  s               0.0      99.7       0.0       0.0       5.1      11.9
 0 C  pz              0.0       0.0       0.0       0.0       0.1       0.1
 0 C  px              0.0       0.0       0.0       0.0       1.0       0.4
 0 C  py              0.0       0.0       0.0       0.0       0.8       0.8
 1 C  s              99.7       0.0       0.0       0.0      13.4      13.6
 1 C  pz              0.0       0.0       0.0       0.0       0.4       0.2
 1 C  px              0.0       0.0       0.0       0.0       1.3       0.4
 1 C  py              0.0       0.1       0.0       0.0       0.4       0.5
 2 C  s               0.0       0.0       0.1       0.0      20.7       1.0
 2 C  pz              0.0       0.0       0.0       0.0       0.6       0.0
 2 C  px              0.1       0.0       0.2       0.0       0.1       5.0
 2 C  py              0.0       0.0       0.1       0.0       1.1       0.5
 3 C  s               0.0       0.0       1.0       0.2      18.1       5.2
 3 C  pz              0.0       0.0       0.2       0.3       0.2       0.0
 3 C  px              0.0       0.0       1.9       0.1       0.4       2.5
 3 C  py              0.0       0.0       0.0       0.0       1.5       0.1
 4 C  s               0.0       0.0      17.0       3.2       2.2       3.8
 4 C  pz              0.0       0.0       0.0      18.3       1.8       3.7
 4 C  px              0.0       0.0       4.3       0.2       5.6       2.4
 4 C  py              0.0       0.0       0.5       5.3       0.1       0.4
 4 C  dz2             0.0       0.0       0.2       0.6       0.0       0.0
 4 C  dxz             0.0       0.0       0.1       0.8       0.0       0.0
 4 C  dyz             0.0       0.0       0.7       0.1       0.0       0.0
 4 C  dxy             0.0       0.0       0.1       0.3       0.0       0.0
 5 O  s               0.0       0.0      14.2      41.0       0.9       1.3
 5 O  pz              0.0       0.0       2.6       2.4       0.2       0.4
 5 O  px              0.0       0.0       0.1       0.4       0.2       0.2
 5 O  py              0.0       0.0       0.5       0.4       0.0       0.0
 5 O  dz2             0.0       0.0       0.6       0.1       0.0       0.2
 5 O  dxz             0.0       0.0       0.0       0.2       0.3       0.3
 5 O  dyz             0.0       0.0       0.7       0.1       0.0       0.1
 6 O  s               0.0       0.0      40.1      18.7       0.2       0.0
 6 O  pz              0.0       0.0       2.2       0.4       0.0       0.1
 6 O  px              0.0       0.0       0.0       0.5       2.9      12.7
 6 O  py              0.0       0.0       0.6       0.2       0.3       1.6
 6 O  dz2             0.0       0.0       0.0       0.4       0.1       0.0
 6 O  dxz             0.0       0.0       0.1       0.3       0.2       0.5
 6 O  dyz             0.0       0.0       0.4       0.5       0.0       0.0
 6 O  dx2y2           0.0       0.0       0.1       0.2       0.0       0.1
 6 O  dxy             0.0       0.0       0.2       0.0       0.1       0.1
 7 C  s               0.0       0.0       4.1       2.0       1.5      10.0
 7 C  pz              0.0       0.0       0.1       0.4       0.0       0.1
 7 C  px              0.0       0.0       4.8       1.6       0.1       0.2
 7 C  py              0.0       0.0       0.3       0.0       0.0       0.0
 7 C  dx2y2           0.0       0.0       0.2       0.1       0.0       0.0
 8 H  s               0.0       0.0       0.0       0.0       0.6       1.9
 8 H  px              0.0       0.0       0.0       0.0       0.0       0.1
 9 H  s               0.0       0.0       0.0       0.0       0.7       1.8
 9 H  py              0.0       0.0       0.0       0.0       0.0       0.1
10 H  s               0.0       0.0       0.0       0.0       0.7       1.8
10 H  pz              0.0       0.0       0.0       0.0       0.1       0.2
11 H  s               0.0       0.0       0.0       0.0       1.7       2.1
11 H  pz              0.0       0.0       0.0       0.0       0.2       0.2
12 H  s               0.0       0.0       0.0       0.0       1.7       2.2
12 H  py              0.0       0.0       0.0       0.0       0.1       0.2
13 H  s               0.0       0.0       0.0       0.0       2.6       0.2
13 H  pz              0.0       0.0       0.0       0.0       0.3       0.0
14 H  s               0.0       0.0       0.0       0.0       2.7       0.1
14 H  py              0.0       0.0       0.0       0.0       0.2       0.0
15 H  s               0.0       0.0       0.1       0.0       2.5       1.1
15 H  pz              0.0       0.0       0.0       0.0       0.2       0.1
16 H  s               0.0       0.0       0.1       0.0       2.4       0.7
16 H  py              0.0       0.0       0.0       0.0       0.2       0.0
17 H  s               0.0       0.0       0.2       0.2       0.2       1.9
17 H  py              0.0       0.0       0.0       0.0       0.0       0.2
18 H  s               0.0       0.0       0.2       0.2       0.2       1.9
19 H  s               0.0       0.0       0.4       0.1       0.2       1.7
19 H  pz              0.0       0.0       0.0       0.0       0.0       0.1

                     12        13        14        15        16        17   
                  -0.67695  -0.61658  -0.54211  -0.52903  -0.47189  -0.45812
                   2.00000   2.00000   2.00000   2.00000   2.00000   2.00000
                  --------  --------  --------  --------  --------  --------
 0 C  s              11.1      14.1       4.0       1.2       0.0       0.1
 0 C  pz              0.0       0.1       1.4       0.7       0.1       0.1
 0 C  px              0.0       0.8       0.7       0.5       0.4       0.7
 0 C  py              0.1       1.2       4.1       0.9       1.1       0.0
 1 C  s               2.9       2.7      10.3       2.4       0.3       0.0
 1 C  pz              0.0       0.0       2.9       1.8       0.5       0.6
 1 C  px              3.8       6.0       0.7       0.2       1.8       0.1
 1 C  py              0.6       4.1       2.8       0.1       2.1       0.2
 2 C  s               4.4      10.3       4.7       3.1       0.0       0.0
 2 C  pz              0.0       0.0       2.4       2.4       3.4       1.5
 2 C  px              2.4       1.3       2.9       1.0       0.1       1.4
 2 C  py              0.5       3.5       0.1       1.5       2.2       1.4
 3 C  s               7.5       6.5       0.0       3.0       1.7       0.0
 3 C  pz              0.2       0.1       0.9       1.3       8.9       3.0
 3 C  px              0.7       1.6       2.9       0.5      10.1       1.9
 3 C  py              0.1       3.5       1.3       3.8       0.3       4.2
 3 C  dxz             0.0       0.0       0.0       0.0       0.2       0.0
 4 C  s               0.7       1.0       2.4       2.0       2.3       1.2
 4 C  pz              0.8       0.5       1.3       0.4       0.9       2.3
 4 C  px              3.1       3.9       0.2       1.4      11.7       1.5
 4 C  py              0.7       0.6       0.2       2.6       0.5       3.0
 4 C  dz2             0.0       0.0       0.0       0.0       0.0       0.1
 4 C  dxz             0.1       0.1       0.0       0.0       0.0       0.0
 5 O  s               0.0       0.4       1.1       1.7       2.3      10.3
 5 O  pz              0.1       0.2       1.7       1.5       2.8      25.0
 5 O  px              0.1       0.5       0.0       0.4      12.6       0.6
 5 O  py              0.0       0.0       0.1       1.8       0.4       1.8
 5 O  dz2             0.1       0.0       0.2       0.0       0.0       0.2
 5 O  dxz             0.0       0.3       0.0       0.1       1.0       0.0
 5 O  dyz             0.0       0.0       0.0       0.3       0.0       0.1
 5 O  dx2y2           0.1       0.1       0.0       0.0       0.0       0.0
 5 O  dxy             0.0       0.0       0.0       0.0       0.3       0.0
 6 O  s               0.8       0.7       2.3       4.0       0.4       0.7
 6 O  pz              0.3       0.1       1.6       8.7       3.7       4.9
 6 O  px             11.1       0.2       2.8       6.9       0.2      10.2
 6 O  py              1.9       0.0       2.5       2.8       5.5       4.1
 6 O  dz2             0.4       0.3       0.1       0.0       0.2       0.2
 6 O  dxz             0.3       0.0       0.0       0.1       1.1       0.0
 6 O  dyz             0.1       0.0       0.0       0.0       0.0       0.2
 6 O  dx2y2           1.3       0.5       0.3       0.3       0.1       0.4
 6 O  dxy             0.1       0.4       0.3       0.0       0.4       0.1
 7 C  s              16.7       3.4       3.3       3.6       0.0       0.5
 7 C  pz              0.0       0.0       1.4       5.0       3.8       0.1
 7 C  px              0.3       0.7       4.9       7.0       0.1       3.3
 7 C  py              0.1       0.0       0.0       0.0       3.0       4.3
 7 C  dxz             0.0       0.0       0.1       0.2       0.0       0.0
 7 C  dx2y2           0.0       0.0       0.2       0.2       0.0       0.1
 8 H  s               2.3       4.2       1.5       0.5       0.1       0.3
 8 H  px              0.2       0.3       0.1       0.0       0.0       0.0
 9 H  s               2.0       4.2       2.3       0.5       0.5       0.0
 9 H  py              0.1       0.2       0.1       0.0       0.0       0.0
10 H  s               2.1       3.7       2.6       1.0       0.0       0.0
10 H  pz              0.2       0.3       0.2       0.1       0.0       0.0
11 H  s               0.5       0.7       5.6       2.0       0.0       0.1
11 H  pz              0.0       0.1       0.4       0.1       0.0       0.0
12 H  s               0.6       0.9       5.2       0.9       1.6       0.0
12 H  py              0.1       0.0       0.2       0.0       0.1       0.0
13 H  s               0.9       2.6       3.2       2.5       0.7       0.5
13 H  pz              0.1       0.2       0.2       0.2       0.0       0.0
14 H  s               0.9       3.4       1.7       2.2       0.2       1.0
14 H  px              0.0       0.1       0.0       0.0       0.0       0.0
14 H  py              0.1       0.2       0.1       0.1       0.0       0.0
15 H  s               1.2       1.8       0.2       2.1       5.0       0.9
15 H  pz              0.1       0.2       0.0       0.1       0.2       0.0
16 H  s               1.7       2.6       0.0       2.8       1.3       2.6
16 H  py              0.1       0.1       0.0       0.1       0.1       0.1
17 H  s               4.1       1.1       1.4       1.7       0.9       2.9
17 H  py              0.3       0.1       0.1       0.1       0.0       0.1
18 H  s               4.0       1.2       1.7       1.4       0.1       0.4
18 H  pz              0.1       0.0       0.1       0.1       0.0       0.0
18 H  px              0.1       0.0       0.0       0.0       0.0       0.0
19 H  s               3.3       0.9       2.8       5.2       2.2       0.0
19 H  pz              0.2       0.1       0.1       0.2       0.1       0.0

                     18        19        20        21        22        23   
                  -0.44988  -0.42319  -0.40578  -0.39470  -0.37503  -0.36125
                   2.00000   2.00000   2.00000   2.00000   2.00000   2.00000
                  --------  --------  --------  --------  --------  --------
 0 C  s               0.0       0.3       0.1       0.0       0.0       0.0
 0 C  pz              0.9       3.7       2.6       8.5       6.4       6.6
 0 C  px              0.0       3.4      11.3       0.2       0.2      13.0
 0 C  py              0.0       2.5       4.3       0.2       5.3       3.1
 1 C  s               0.1       0.2       0.1       0.1       0.1       0.3
 1 C  pz              2.1      10.9       2.2       5.4       3.4       0.4
 1 C  px              0.1       0.4       5.2       2.8       0.6       3.9
 1 C  py              0.4       0.0      12.4       0.8       0.1       0.5
 2 C  s               0.5       0.2       0.1       0.0       0.3       0.2
 2 C  pz              1.3      11.2       0.1       1.7       0.8       3.3
 2 C  px              0.6       5.8       2.1       3.4       0.0       1.1
 2 C  py              1.4       4.5       5.2       2.7       4.3       0.8
 2 C  dx2y2           0.0       0.0       0.0       0.0       0.0       0.1
 3 C  s               0.3       0.1       1.0       0.1       0.3       0.2
 3 C  pz              0.1       4.0       1.7      12.5       2.3       0.0
 3 C  px              1.2       0.5       1.7       0.0       0.9       8.3
 3 C  py              0.5       6.2       0.1       0.9       5.1       1.3
 3 C  dxz             0.0       0.0       0.0       0.0       0.0       0.2
 3 C  dx2y2           0.0       0.0       0.0       0.0       0.0       0.1
 4 C  s               0.0       0.3       0.2       0.1       0.1       0.3
 4 C  pz              4.6       1.7       0.1       1.5       3.1       0.2
 4 C  px              0.2       0.1       0.2       2.5       0.1       6.7
 4 C  py              9.4       0.7       0.0       2.1       7.3       0.0
 4 C  dz2             0.0       0.0       0.1       0.0       0.2       0.0
 4 C  dxz             0.1       0.1       0.1       0.1       0.0       0.0
 4 C  dx2y2           0.0       0.0       0.1       0.1       0.0       0.0
 4 C  dxy             0.1       0.1       0.0       0.0       0.0       0.0
 5 O  s               0.6       1.7       0.1       0.8       0.1       0.1
 5 O  pz              0.0       7.8       0.9      10.5       0.2       1.7
 5 O  px              0.2       0.3       1.0       0.1       0.2       2.2
 5 O  py              8.7       0.8       0.1       0.2      16.9       0.3
 5 O  dz2             0.4       0.1       0.0       0.2       0.1       0.0
 5 O  dyz             0.4       0.0       0.0       0.1       0.2       0.0
 5 O  dx2y2           0.1       0.0       0.0       0.1       0.1       0.1
 5 O  dxy             0.0       0.0       0.1       0.0       0.2       0.0
 6 O  s               0.2       0.2       0.4       0.0       0.0       0.0
 6 O  pz             13.8       0.3       3.0       0.3       0.1       0.1
 6 O  px              0.1       2.6       4.1       0.7       0.0       1.9
 6 O  py             18.4       0.6       0.0       1.3       0.1       0.3
 6 O  dz2             0.6       0.0       0.0       0.0       0.1       0.0
 6 O  dxz             0.0       0.1       0.5       0.1       0.7       0.2
 6 O  dyz             0.1       0.1       0.0       0.0       0.0       0.0
 6 O  dx2y2           0.0       0.1       0.0       0.4       0.9       0.3
 6 O  dxy             0.1       0.1       0.0       1.1       0.6       0.0
 7 C  s               0.1       0.0       0.2       0.0       0.0       0.1
 7 C  pz              6.3       1.9       4.8       0.3       7.2       5.4
 7 C  px              4.7       0.1       4.4       0.0       1.8       2.3
 7 C  py              8.9       1.6       1.9      14.6       4.9       4.7
 8 H  s               0.0       2.3       3.4       0.7       0.5       9.2
 8 H  px              0.0       0.1       0.1       0.0       0.0       0.2
 9 H  s               0.0       1.1       3.7       0.0       3.5       1.7
 9 H  pz              0.0       0.0       0.0       0.0       0.0       0.1
 9 H  py              0.0       0.0       0.1       0.0       0.1       0.0
10 H  s               0.4       0.5       1.2       3.5       2.3       3.4
11 H  s               0.9       2.7       1.2       2.3       1.1       0.0
12 H  s               0.0       0.9       6.4       0.1       0.3       0.4
12 H  py              0.0       0.1       0.1       0.0       0.0       0.0
13 H  s               1.0       3.1       0.0       0.5       0.6       2.2
14 H  s               0.3       5.8       2.0       0.5       1.8       0.1
14 H  py              0.0       0.2       0.0       0.0       0.0       0.0
15 H  s               0.0       1.1       2.0       5.0       1.9       0.0
15 H  pz              0.0       0.0       0.1       0.1       0.1       0.0
16 H  s               0.1       3.9       0.0       0.0       1.4       3.1
16 H  py              0.0       0.1       0.0       0.0       0.0       0.1
17 H  s               1.6       0.8       1.7       6.7       2.2       3.0
17 H  py              0.0       0.0       0.0       0.1       0.0       0.1
18 H  s               6.9       0.5       2.4       0.7       6.5       1.2
18 H  pz              0.1       0.0       0.0       0.0       0.1       0.0
18 H  px              0.1       0.0       0.0       0.0       0.1       0.0
18 H  py              0.0       0.0       0.1       0.0       0.0       0.1
19 H  s               0.1       0.5       1.6       1.5       0.9       3.5

                     24        25        26        27        28        29   
                  -0.34557  -0.33001  -0.32005  -0.29856  -0.29562  -0.29003
                   2.00000   2.00000   2.00000   2.00000   2.00000   2.00000
                  --------  --------  --------  --------  --------  --------
 0 C  s               0.2       0.0       0.0       0.0       0.5       0.1
 0 C  pz              0.8      14.4       0.0       3.8       5.1       2.2
 0 C  px              0.5       4.1       3.4      10.8       4.4       0.0
 0 C  py             14.0       0.4       0.3       0.2       4.4      11.4
 0 C  dz2             0.0       0.2       0.0       0.2       0.2       0.2
 0 C  dyz             0.1       0.0       0.0       0.0       0.0       0.1
 0 C  dx2y2           0.0       0.1       0.1       0.4       0.0       0.1
 0 C  dxy             0.2       0.0       0.0       0.0       0.0       0.1
 1 C  s               0.2       0.0       0.0       0.2       0.2       0.0
 1 C  pz              0.5       2.6       0.0       5.1      12.0       4.9
 1 C  px              2.2       1.9       0.9      14.8       2.6       0.4
 1 C  py             12.0       0.8       0.0       0.6       2.5      14.3
 1 C  dz2             0.0       0.0       0.0       0.1       0.6       0.3
 1 C  dxz             0.0       0.0       0.0       0.2       0.0       0.0
 1 C  dx2y2           0.0       0.1       0.1       0.4       0.0       0.1
 1 C  dxy             0.0       0.1       0.0       0.0       0.1       0.5
 2 C  s               0.3       0.2       0.1       0.6       0.0       0.2
 2 C  pz              0.3      12.1       0.3       2.7      10.2       0.8
 2 C  px              0.8       0.7       0.8      18.6       2.0       0.2
 2 C  py              6.6       3.3       0.4       0.2       3.5       9.5
 2 C  dz2             0.0       0.2       0.0       0.0       0.7       0.1
 2 C  dx2y2           0.0       0.0       0.0       0.2       0.0       0.0
 2 C  dxy             0.0       0.1       0.0       0.0       0.1       0.6
 3 C  s               0.1       0.1       0.1       0.1       0.0       0.5
 3 C  pz              0.7      13.2       0.0       0.2       2.1       0.8
 3 C  px              1.0       3.1       2.2       1.0       1.0       0.5
 3 C  py             13.3       1.2       0.2       0.1       0.6      10.4
 3 C  dz2             0.0       0.4       0.0       0.0       0.2       0.0
 3 C  dx2y2           0.1       0.0       0.0       0.2       0.1       0.0
 3 C  dxy             0.3       0.0       0.0       0.0       0.0       0.1
 4 C  s               0.0       0.0       0.3       0.3       0.0       0.0
 4 C  pz              0.8       0.6       2.5       0.3       0.0       0.0
 4 C  px              0.2       0.1       0.0       1.1       0.1       0.1
 4 C  py              2.9       0.5       0.6       0.3       0.0       0.0
 4 C  dz2             0.1       0.2       0.4       0.0       0.1       0.0
 4 C  dxz             0.1       0.2       0.0       0.1       0.0       0.0
 4 C  dyz             0.0       0.1       0.2       0.0       0.1       0.0
 4 C  dx2y2           0.0       0.0       0.2       0.0       0.0       0.0
 4 C  dxy             0.3       0.0       0.0       0.1       0.0       0.2
 5 O  s               0.0       0.1       0.6       0.1       0.0       0.0
 5 O  pz              2.7       0.1       3.6       2.9       0.5       0.7
 5 O  px              0.8       0.1       2.1       5.6       0.2       1.2
 5 O  py              6.6       5.6       0.8       0.0       2.0       0.3
 5 O  dz2             0.1       0.0       0.3       0.1       0.0       0.0
 5 O  dyz             0.0       0.0       0.1       0.0       0.0       0.0
 5 O  dx2y2           0.0       0.0       0.1       0.0       0.0       0.0
 6 O  s               0.1       0.0       3.9       0.2       0.1       0.0
 6 O  pz              0.4       0.5      24.6       3.8       0.3       1.0
 6 O  px              1.1       0.1       6.1       0.4       0.8       0.1
 6 O  py              0.5       0.8       3.3       0.2       2.5       0.4
 6 O  dz2             0.1       0.1       0.8       0.1       0.0       0.0
 6 O  dxz             0.3       0.1       0.9       0.0       0.1       0.0
 6 O  dx2y2           0.1       0.1       0.2       0.1       0.0       0.0
 6 O  dxy             0.4       0.0       0.7       0.2       0.4       0.0
 7 C  s               0.0       0.0       0.2       0.1       0.0       0.0
 7 C  pz              1.6       0.1      14.2       0.2       0.1       0.1
 7 C  px              1.4       0.0       1.6       0.2       0.3       0.0
 7 C  py              1.4       0.8       2.6       0.0       0.5       0.2
 7 C  dz2             0.0       0.0       0.4       0.0       0.0       0.0
 7 C  dxz             0.1       0.0       0.3       0.0       0.0       0.0
 7 C  dyz             0.0       0.0       0.1       0.0       0.0       0.0
 8 H  s               0.0       0.3       1.9       9.8       0.2       0.0
 8 H  pz              0.0       0.2       0.0       0.0       0.1       0.0
 8 H  py              0.1       0.0       0.0       0.0       0.1       0.1
 9 H  s               4.7       3.8       0.8       0.7       0.0       7.9
 9 H  py              0.0       0.1       0.0       0.0       0.0       0.0
10 H  s               0.4       7.6       0.0       3.0       3.6       2.3
10 H  pz              0.0       0.1       0.0       0.0       0.0       0.0
10 H  py              0.1       0.0       0.0       0.0       0.1       0.1
11 H  s               0.1       1.3       0.0       2.9      10.1       4.2
11 H  px              0.0       0.0       0.0       0.2       0.0       0.0
11 H  py              0.1       0.0       0.0       0.0       0.0       0.1
12 H  s               2.4       0.1       0.2       1.8       0.1      13.3
12 H  pz              0.0       0.0       0.0       0.1       0.1       0.0
12 H  px              0.1       0.0       0.0       0.1       0.0       0.1
13 H  s               0.4       6.2       0.0       0.7       9.6       0.8
13 H  px              0.0       0.0       0.0       0.2       0.0       0.0
14 H  s               1.6       0.0       0.1       1.7       7.9       4.5
14 H  pz              0.0       0.1       0.0       0.1       0.0       0.1
14 H  px              0.1       0.0       0.0       0.1       0.0       0.0
15 H  s               0.4       8.5       0.0       0.0       2.4       0.2
15 H  pz              0.0       0.1       0.0       0.0       0.0       0.0
[...]
 3 C  dxz             1.7       0.1       0.1       0.0       0.0       0.0
 3 C  dyz             1.4       0.0       0.1       0.1       0.0       0.0
 3 C  dx2y2           6.0       0.0       0.1       0.0       0.0       0.0
 3 C  dxy             1.0       0.0       0.0       0.1       0.0       0.0
 4 C  s               1.3       0.3       2.0       6.1       0.9       0.6
 4 C  pz              0.7       0.8       3.1       5.4       0.0       0.0
 4 C  px              0.4       0.3       2.6       0.8       0.0       0.0
 4 C  py              0.3       0.3       1.9       0.8       0.0       0.0
 4 C  dz2             1.4       0.0       0.0       3.2       0.0       0.0
 4 C  dxz             2.9       1.0       7.3       0.8       0.0       0.0
 4 C  dyz             1.3       0.3       2.5       2.5       0.0       0.0
 4 C  dx2y2           5.6       0.0       0.0       0.0       0.0       0.0
 4 C  dxy             0.0       0.4       3.0       0.1       0.0       0.0
 5 O  s               0.8       1.2       0.4      19.3       0.0       0.0
 5 O  pz              0.5       0.9       0.1      16.8       0.0       0.0
 5 O  px              4.0       0.1       0.3       2.0       0.0       0.0
 5 O  py              1.4       0.2       0.0       3.0       0.0       0.0
 5 O  dz2             0.0       1.3       0.4      15.2       0.0       0.0
 5 O  dxz             8.1       0.0       0.9       6.5       0.0       0.0
 5 O  dyz             3.4       0.9       0.2      10.3       0.0       0.0
 5 O  dx2y2           0.6       0.1       0.9       0.1       0.0       0.0
 5 O  dxy             1.6       0.0       0.0       1.1       0.0       0.0
 6 O  s               4.3      23.0       6.5       1.7       0.0       0.1
 6 O  pz              2.8       3.8       4.0       0.3       0.0       0.0
 6 O  px              0.0       9.9      20.5       0.3       0.0       0.0
 6 O  py              1.0       0.0       5.8       0.1       0.0       0.0
 6 O  dz2             1.7       3.5       0.6       0.2       0.0       0.0
 6 O  dxz             0.5       0.7      16.6       0.1       0.0       0.0
 6 O  dyz             1.6       0.5       7.2       0.1       0.0       0.0
 6 O  dx2y2           0.2      16.4       0.5       1.3       0.0       0.0
 6 O  dxy             0.0       6.2       5.2       0.4       0.0       0.0
 7 C  s               0.1       1.7       0.5       0.2       0.3      78.3
 7 C  pz              0.0       0.3       0.3       0.0       0.0       0.0
 7 C  px              0.0       7.4       1.6       0.2       0.0       0.0
 7 C  py              0.0       0.4       0.0       0.0       0.0       0.0
 7 C  dz2             0.3       1.4       0.8       0.1       0.0       0.0
 7 C  dxz             0.6       3.6       0.3       0.1       0.0       0.0
 7 C  dyz             0.0       0.0       0.2       0.0       0.0       0.0
 7 C  dx2y2           0.0       8.2       1.4       0.2       0.0       0.0
 7 C  dxy             0.2       1.0       0.2       0.0       0.0       0.0
 9 H  py              0.2       0.0       0.0       0.0       0.0       0.0
11 H  px              0.1       0.0       0.0       0.0       0.0       0.0
12 H  s               0.6       0.0       0.0       0.0       0.0       0.0
12 H  pz              0.2       0.0       0.0       0.0       0.0       0.0
12 H  py              1.4       0.0       0.0       0.0       0.0       0.0
13 H  s               0.8       0.0       0.0       0.0       0.0       0.0
13 H  pz              2.1       0.0       0.0       0.0       0.0       0.0
14 H  pz              0.2       0.0       0.0       0.0       0.0       0.0
14 H  py              0.2       0.0       0.0       0.0       0.0       0.0
15 H  s               0.3       0.0       0.0       0.0       0.0       0.0
15 H  pz              0.4       0.0       0.0       0.0       0.0       0.0
16 H  s               4.1       0.0       0.0       0.0       0.0       0.0
16 H  pz              0.6       0.0       0.0       0.0       0.0       0.0
16 H  px              1.1       0.0       0.0       0.0       0.0       0.0
16 H  py              7.5       0.0       0.0       0.0       0.0       0.0
17 H  s               0.1       0.4       0.0       0.0       0.0       0.0
17 H  px              0.0       0.3       0.0       0.0       0.0       0.0
17 H  py              0.2       0.8       0.1       0.0       0.0       0.0
18 H  s               0.0       0.4       0.0       0.0       0.0       0.0
18 H  pz              0.0       0.8       0.0       0.0       0.0       0.0
18 H  py              0.0       0.4       0.0       0.0       0.0       0.0
19 H  s               0.1       0.1       0.2       0.0       0.0       0.0
19 H  pz              0.1       0.1       0.2       0.0       0.0       0.0
19 H  px              0.6       0.1       0.0       0.0       0.0       0.0
19 H  py              0.1       0.1       0.1       0.0       0.0       0.0

                    216       217       218       219       220       221   
                  21.99571  22.02918  22.07177  22.28095  43.68642  43.72454
                   0.00000   0.00000   0.00000   0.00000   0.00000   0.00000
                  --------  --------  --------  --------  --------  --------
 0 C  s              25.2       3.1       0.6       0.0       0.0       0.0
 1 C  s              26.5      62.3       8.1       1.2       0.0       0.0
 2 C  s              42.0      29.0       0.2       4.0       0.0       0.0
 3 C  s               2.2       4.9      69.9       0.5       0.0       0.0
 4 C  s               3.4       0.1       0.7      93.2       0.0       0.0
 5 O  s               0.0       0.0       0.0       0.2      93.6       6.2
 5 O  pz              0.0       0.0       0.0       0.1       0.0       0.0
 6 O  s               0.0       0.0       0.0       0.1       6.3      93.6
 7 C  s               0.3       0.4      20.1       0.1       0.0       0.0



                      *****************************
                      * MAYER POPULATION ANALYSIS *
                      *****************************

  NA   - Mulliken gross atomic population
  ZA   - Total nuclear charge
  QA   - Mulliken gross atomic charge
  VA   - Mayer's total valence
  BVA  - Mayer's bonded valence
  FA   - Mayer's free valence

  ATOM       NA         ZA         QA         VA         BVA        FA
  0 C      6.5296     6.0000    -0.5296     3.7974     3.7974    -0.0000
  1 C      6.2271     6.0000    -0.2271     3.6095     3.6095     0.0000
  2 C      6.2593     6.0000    -0.2593     3.6409     3.6409    -0.0000
  3 C      6.3714     6.0000    -0.3714     3.8522     3.8522    -0.0000
  4 C      5.5494     6.0000     0.4506     3.7812     3.7812    -0.0000
  5 O      8.5200     8.0000    -0.5200     1.8924     1.8924    -0.0000
  6 O      8.2145     8.0000    -0.2145     1.9598     1.9598     0.0000
  7 C      6.3189     6.0000    -0.3189     3.7106     3.7106    -0.0000
  8 H      0.8416     1.0000     0.1584     0.9584     0.9584    -0.0000
  9 H      0.8399     1.0000     0.1601     0.9588     0.9588    -0.0000
 10 H      0.8423     1.0000     0.1577     0.9604     0.9604    -0.0000
 11 H      0.8537     1.0000     0.1463     0.9633     0.9633     0.0000
 12 H      0.8439     1.0000     0.1561     0.9572     0.9572     0.0000
 13 H      0.8386     1.0000     0.1614     0.9592     0.9592    -0.0000
 14 H      0.8429     1.0000     0.1571     0.9593     0.9593    -0.0000
 15 H      0.8229     1.0000     0.1771     0.9556     0.9556    -0.0000
 16 H      0.8195     1.0000     0.1805     0.9527     0.9527    -0.0000
 17 H      0.8248     1.0000     0.1752     0.9507     0.9507    -0.0000
 18 H      0.8247     1.0000     0.1753     0.9509     0.9509    -0.0000
 19 H      0.8149     1.0000     0.1851     0.9584     0.9584    -0.0000

  Mayer bond orders larger than 0.100000
B(  0-C ,  1-C ) :   0.8873 B(  0-C ,  8-H ) :   0.9671 B(  0-C ,  9-H ) :   0.9777 
B(  0-C , 10-H ) :   0.9797 B(  1-C ,  2-C ) :   0.8900 B(  1-C , 11-H ) :   0.9822 
B(  1-C , 12-H ) :   0.9679 B(  2-C ,  3-C ) :   0.9045 B(  2-C , 13-H ) :   0.9687 
B(  2-C , 14-H ) :   0.9581 B(  3-C ,  4-C ) :   0.9867 B(  3-C , 15-H ) :   0.9672 
B(  3-C , 16-H ) :   0.9604 B(  4-C ,  5-O ) :   1.7825 B(  4-C ,  6-O ) :   1.0650 
B(  6-O ,  7-C ) :   0.8286 B(  7-C , 17-H ) :   0.9547 B(  7-C , 18-H ) :   0.9555 
B(  7-C , 19-H ) :   0.9651 

-------
TIMINGS
-------

Total SCF time: 0 days 0 hours 0 min 30 sec 

Total time                  ....      30.019 sec
Sum of individual times     ....      29.461 sec  ( 98.1%)

SCF preparation             ....       0.319 sec  (  1.1%)
Fock matrix formation       ....      28.144 sec  ( 93.8%)
  Startup                   ....       0.062 sec  (  0.2% of F)
  Split-RI-J                ....       4.538 sec  ( 16.1% of F)
  XC integration            ....      18.043 sec  ( 64.1% of F)
    Basis function eval.    ....       3.254 sec  ( 18.0% of XC)
    Density eval.           ....       5.457 sec  ( 30.2% of XC)
    XC-Functional eval.     ....       2.389 sec  ( 13.2% of XC)
    XC-Potential eval.      ....       5.892 sec  ( 32.7% of XC)
  CPCM terms                ....       4.941 sec  ( 17.6% of F)
Diagonalization             ....       0.000 sec  (  0.0%)
Density matrix formation    ....       0.271 sec  (  0.9%)
Total Energy calculation    ....       0.045 sec  (  0.1%)
Population analysis         ....       0.128 sec  (  0.4%)
Orbital Transformation      ....       0.060 sec  (  0.2%)
Orbital Orthonormalization  ....       0.000 sec  (  0.0%)
DIIS solution               ....       0.443 sec  (  1.5%)
  MO trafo                  ....       0.000 sec  (  0.0 % of DIIS)
  Orb grad                  ....       0.000 sec  (  0.0 % of DIIS)
  Energy W gradient         ....       0.000 sec  (  0.0 % of DIIS)
  DIIS error                ....       0.015 sec  (  3.4 % of DIIS)
  DIIS work                 ....       0.375 sec  ( 84.7 % of DIIS)
  Form Q                    ....       0.000 sec  (  0.0 % of DIIS)
  Form QpQm                 ....       0.000 sec  (  0.0 % of DIIS)
  Exp/Cayley                ....       0.000 sec  (  0.0 % of DIIS)
  Orb update                ....       0.000 sec  (  0.0 % of DIIS)
  Wake-sleep                ....       0.021 sec  (  4.9 % of DIIS)
SOSCF solution              ....       0.053 sec  (  0.2%)
  MO trafo                  ....       0.041 sec  ( 78.9 % of SOSCF)
  Orb grad                  ....       0.001 sec  (  1.0 % of SOSCF)
  Rot update                ....       0.000 sec  (  0.1 % of SOSCF)
  Step                      ....       0.010 sec  ( 19.8 % of SOSCF)
Finished LeanSCF after  30.1 sec

Maximum memory used throughout the entire LEANSCF-calculation: 29.8 MB


-------------------------------------------------------------------------------
                          DFT DISPERSION CORRECTION                            
                                                                               
                                DFTD4 V3.4.0                                   
-------------------------------------------------------------------------------
The R2SCAN3C composite method is recognized
Using three-body term ABC
Active option DFTDOPT                   ...         5   

-------------------------   ----------------
Dispersion correction           -0.005045411
-------------------------   ----------------

------------------   -----------------
gCP correction             0.012105626
------------------   -----------------

-------------------------   --------------------
FINAL SINGLE POINT ENERGY      -386.232513933826
-------------------------   --------------------


------------------------------------------------------------------------------
                              ORCA PROPERTY CALCULATIONS
------------------------------------------------------------------------------

GBWName                                 ... sp_solv.gbw
Number of atoms                         ...     20
Number of basis functions               ...    222
Max core memory                         ...   1024 MB

Electric properties:
Dipole moment                           ... YES
Quadrupole moment                       ...  NO
Static polarizability (Dipole/Dipole)   ...  NO
Static polarizability (Dipole/Quad.)    ...  NO
Static polarizability (Quad./Quad.)     ...  NO
Static polarizability (Velocity)        ...  NO

Atomic electric properties:
Dipole moment                           ...  NO
Quadrupole moment                       ...  NO
Static polarizability                   ...  NO

Choice of electric origin               ... Center of mass
Position of electric origin             ...    -0.000036    -0.000008     0.000008

General magnetic properties:
Magnetizability                         ...  NO

EPR properties:
g-Tensor (aka g-matrix)                 ...  NO
Zero-Field splitting spin-orbit         ...  NO
Zero-field splitting spin-spin          ...  NO
Hyperfine couplings                     ...  NO (   0 nuclei)
Quadrupole couplings                    ...  NO (   0 nuclei)
Contact density                         ...  NO (   0 nuclei)

NMR properties:
Chemical shifts                         ...  NO (   0 nuclei)
Spin-rotation constants                 ...  NO (   0 nuclei)
Spin-spin couplings                     ...  NO (   0 nuclei,    0 pairs)

Choice of magnetic origin               ... GIAO
Position of magnetic origin             ...     0.000000     0.000000     0.000000

Properties with geometric perturbations:
SCF Hessian                             ...  NO
IR spectrum                             ...  NO
VCD spectrum                            ...  NO
X-ray spectroscopy properties:
SCF XES/XAS/RIXS spectra                ...  NO


-------------
DIPOLE MOMENT
-------------

Method             : SCF
Type of density    : Electron Density
Multiplicity       :   1
Irrep              :   0
Energy             :  -386.2395741490487922 Eh
Relativity type    : 
Basis              : AO
                                X                 Y                 Z
Electronic contribution:      8.574366885       1.482653416      -0.947006282
Nuclear contribution   :     -8.645207729      -2.153129466       1.934372163
                        -----------------------------------------
Total Dipole Moment    :     -0.070840844      -0.670476050       0.987365881
                        -----------------------------------------
Magnitude (a.u.)       :      1.195595225
Magnitude (Debye)      :      3.038961552



--------------------
Rotational spectrum 
--------------------
 
Rotational constants in cm-1:             0.178504             0.028802             0.026687 
Rotational constants in MHz :          5351.411832           863.470189           800.053071 

Dipole components along the rotational axes: 
x,y,z [a.u.] :    -0.110381    -1.162921     0.254713 
x,y,z [Debye]:    -0.280566    -2.955911     0.647428 

 

Dipole moment calculation done in   0.0 sec 

Maximum memory used throughout the entire PROP-calculation: 13.6 MB

--------------------------------
SUGGESTED CITATIONS FOR THIS RUN
--------------------------------

Below you find a list of papers that are relevant to this ORCA run
We neither can nor want to force you to cite these papers, but we appreciate if you do
You receive ORCA, which is the product of decades of hard work by many enthusiastic individuals, for free
The only thing we kindly ask in return is that you cite our papers,
We deeply appreciate it, if you show your appreciation for ORCA by not just citing the generic ORCA reference.

Please note that relegating all ORCA citations to the supporting information does *not* help us.
SI sections are not indexed - citations you put there will not count into any citation statistics
But we need these citations in order to attract the funding resources that allow us to do what we are doing

Therefore, if you are a happy ORCA user, please consider citing a few of the papers listed below in the main body of your paper

In addition to the list printed below, the program has created the file sp_solv.bibtex that contains the list in bibtex format
You can import this file easily into all common literature databanks and citation aid programs


List of essential papers. We consider these as the minimum necessary citations

  1. Neese,F.
     Software update: the ORCA program system, version 5.0
     WIRES Comput. Molec. Sci., 2022 12(1)e1606
     doi.org/10.1002/wcms.1606
  2. Grimme,S.; Hansen,A.; Ehlert,S.; Mewes,J.
     r2SCAN-3c: A 'Swiss army knife' composite electronic-structure method
     J. Chem. Phys., 2021 154 064103
     doi.org/10.1063/5.0040021

List of papers to cite with high priority. The work reported in these papers was absolutely
necessary for this run to complete.
Our perspective: the developers of density functionals and basis sets usually get cited in chemistry papers
Good! But without the algorithms to do something with them, the functionals or basis sets would not do anything.
Hence, in our opinion, the algorithm design and method developments papers are equally worthy of getting cited

  1. Neese,F.
     An improvement of the resolution of the identity approximation for the formation of the Coulomb matrix
     J. Comp. Chem., 2003 24(14)1740-1747
     doi.org/10.1002/jcc.10318
  2. Garcia-Rates,M.; Neese,F.
     Effect of the Solute Cavity on the Solvation Energy and its Derivatives within the Framework of the Gaussian Charge Scheme
     J. Comput. Chem., 2020 41 922-939
     doi.org/10.1002/jcc.26139
  3. Neese,F.
     The SHARK Integral Generation and Digestion System
     J. Comp. Chem., 2022  1-16
     doi.org/10.1002/jcc.26942
  4. Lehtola,S.; Steigemann,C.; Oliveira,M.; Marques,M.
     Recent developments in Libxc - A comprehensive library of functionals for density functional theory
     Software X, 2018 7 
     doi.org/10.1016/j.softx.2017.11.002
  5. Caldeweyher,E.; Bannwarth,C.; Grimme,S.
     Extension of the D3 dispersion coefficient model
     J. Chem. Phys., 2017 147 034112-XXXX
     doi.org/10.1063/1.4993215
  6. Caldeweyher,E.; Ehlert,S.; Hansen,A.; Neugebauer,H.; Spicher,S.; Bannwarth,C.; Grimme,S.
     A generally applicable atomic-charge dependent London dispersion correction
     J. Chem. Phys., 2019 150 154122-XXXX
     doi.org/10.1063/1.5090222
  7. Caldeweyher,E.; Mewes,J.; Ehlert,S.; Grimme,S.
     Extension and evaluation of the D4 London-dispersion model for periodic systems
     Phys. Chem. Chem. Phys., 2020 22(16)8499-8512
     doi.org/10.1039/D0CP00502A

List of suggested additional citations. These are papers that are important in the 'surrounding' of 
of this run, or papers that preceded the highly important papers. If you like your results we are grateful for a citation.

  1. Neese,F.
     The ORCA program system
     WIRES Comput. Molec. Sci., 2012 2(1)73-78
     doi.org/10.1002/wcms.81
  2. Neese,F.
     Software update: the ORCA program system, version 4.0
     WIRES Comput. Molec. Sci., 2018 8(1)1-6
     doi.org/10.1002/wcms.1327
  3. Neese,F.; Wennmohs,F.; Becker,U.; Riplinger,C.
     The ORCA quantum chemistry program package
     J. Chem. Phys., 2020 152 Art. No. L224108
     doi.org/10.1063/5.0004608

List of optional additional citations

  1. Neese,F.
     Approximate second-order SCF convergence for spin unrestricted wavefunctions
     Chem. Phys. Lett., 2000 325(1-3)93-98
     doi.org/10.1016/s0009-2614(00)00662-x

Timings for individual modules:

Sum of individual times          ...       31.793 sec (=   0.530 min)
Startup calculation              ...        1.195 sec (=   0.020 min)   3.8 %
SCF iterations                   ...       30.490 sec (=   0.508 min)  95.9 %
Property calculations            ...        0.108 sec (=   0.002 min)   0.3 %
                             ****ORCA TERMINATED NORMALLY****
TOTAL RUN TIME: 0 days 0 hours 0 minutes 32 seconds 569 msec
