      -----------------------------------------------------------      
     |                   =====================                   |     
     |                           x T B                           |     
     |                   =====================                   |     
     |                         S. Grimme                         |     
     |          Mulliken Center for Theoretical Chemistry        |     
     |                    University of Bonn                     |     
      -----------------------------------------------------------      

   * xtb version 6.7.1 (edcfbbe) compiled by 'albert@albert-system' on 2024-07-22

   xtb is free software: you can redistribute it and/or modify it under
   the terms of the GNU Lesser General Public License as published by
   the Free Software Foundation, either version 3 of the License, or
   (at your option) any later version.
   
   xtb is distributed in the hope that it will be useful,
   but WITHOUT ANY WARRANTY; without even the implied warranty of
   MERCHANTABILITY or FITNESS FOR A PARTICULAR PURPOSE.  See the
   GNU Lesser General Public License for more details.
   
   Cite this work as:
   * C. Bannwarth, E. Caldeweyher, S. Ehlert, A. Hansen, P. Pracht,
     J. Seibert, S. Spicher, S. Grimme, WIREs Comput. Mol. Sci., 2020, 11,
     e01493. DOI: 10.1002/wcms.1493
   
   for GFN2-xTB:
   * C. Bannwarth, S. Ehlert and S. Grimme., J. Chem. Theory Comput., 2019,
     15, 1652-1671. DOI: 10.1021/acs.jctc.8b01176
   for GFN1-xTB:
   * S. Grimme, C. Bannwarth, P. Shushkov, J. Chem. Theory Comput., 2017,
     13, 1989-2009. DOI: 10.1021/acs.jctc.7b00118
   for GFN0-xTB:
   * P. Pracht, E. Caldeweyher, S. Ehlert, S. Grimme, ChemRxiv, 2019, preprint.
     DOI: 10.26434/chemrxiv.8326202.v1
   for GFN-FF:
   * S. Spicher and S. Grimme, Angew. Chem. Int. Ed., 2020, 59, 15665-15673.
     DOI: 10.1002/anie.202004239
   
   for ALPB and GBSA implicit solvation:
   * S. Ehlert, M. Stahn, S. Spicher, S. Grimme, J. Chem. Theory Comput.,
     2021, 17, 4250-4261. DOI: 10.1021/acs.jctc.1c00471
   
   for ddCOSMO and CPCM-X implicit solvation:
   * M. Stahn, S. Ehlert, S. Grimme, J. Phys. Chem. A,
     2023, XX, XXXX-XXXX. DOI: 10.1021/acs.jpca.3c04382
   
   for DFT-D4:
   * E. Caldeweyher, C. Bannwarth and S. Grimme, J. Chem. Phys., 2017,
     147, 034112. DOI: 10.1063/1.4993215
   * E. Caldeweyher, S. Ehlert, A. Hansen, H. Neugebauer, S. Spicher,
     C. Bannwarth and S. Grimme, J. Chem. Phys., 2019, 150, 154122.
     DOI: 10.1063/1.5090222
   * E. Caldeweyher, J.-M. Mewes, S. Ehlert and S. Grimme, Phys. Chem. Chem. Phys.
     2020, 22, 8499-8512. DOI: 10.1039/D0CP00502A
   
   for sTDA-xTB:
   * S. Grimme and C. Bannwarth, J. Chem. Phys., 2016, 145, 054103.
     DOI: 10.1063/1.4959605
   
   in the mass-spec context:
   * V. Asgeirsson, C. Bauer and S. Grimme, Chem. Sci., 2017, 8, 4879.
     DOI: 10.1039/c7sc00601b
   * J. Koopman and S. Grimme, ACS Omega 2019, 4, 12, 15120-15133.
     DOI: 10.1021/acsomega.9b02011
   
   for metadynamics refer to:
   * S. Grimme, J. Chem. Theory Comput., 2019, 155, 2847-2862
     DOI: 10.1021/acs.jctc.9b00143
   
   for SPH calculations refer to:
   * S. Spicher and S. Grimme, J. Chem. Theory Comput., 2021, 17, 1701-1714
     DOI: 10.1021/acs.jctc.0c01306
   
   for ONIOM refer to:
   * C. Plett, A. Katbashev, S. Ehlert, S. Grimme, M. Bursch,
     Phys. Chem. Chem. Phys., 2023, 25, 17860-17868. DOI: 10.1039/D3CP02178E
   
   for DIPRO refer to:
   * J. Kohn, N. Gildemeister, S. Grimme, D. Fazzi, A. Hansen,
     J. Chem. Phys., 2023, just accepted.
   
   for PTB refer to:
   * S. Grimme, M. Mueller, A. Hansen, J. Chem. Phys., 2023, 158, 124111.
     DOI: 10.1063/5.0137838
   
   with help from (in alphabetical order)
   P. Atkinson, C. Bannwarth, F. Bohle, G. Brandenburg, E. Caldeweyher
   M. Checinski, S. Dohm, S. Ehlert, S. Ehrlich, I. Gerasimov, C. Hölzer
   A. Katbashev, J. Kohn, J. Koopman, C. Lavigne, S. Lehtola, F. März, M. Müller,
   F. Musil, H. Neugebauer, J. Pisarek, C. Plett, P. Pracht, F. Pultar,
   J. Seibert, P. Shushkov, S. Spicher, M. Stahn, M. Steiner, T. Strunk,
   J. Stückrath, T. Rose, and J. Unsleber
   
 * started run on 2025/04/11 at 18:21:53.781     
   ID    Z sym.   atoms
    1    6 C      1-7, 9-15, 18, 19
    2    8 O      8, 16, 20
    3    7 N      17
    4    1 H      21-33

           -------------------------------------------------
          |                Calculation Setup                |
           -------------------------------------------------

          program call               : /srv/scratch/z5358697/.xtb/bin/xtb xtb_rrho.coord --gfn2 --ohess vtight --chrg 0 --enso --norestart -I rrho-xcontrol-inp --parallel 1 --alpb water
          hostname                   : k030
          coordinate file            : xtb_rrho.coord
          omp threads                :                     1


           -------------------------------------------------
          |                 G F N 2 - x T B                 |
           -------------------------------------------------

        Reference                      10.1021/acs.jctc.8b01176
      * Hamiltonian:
        H0-scaling (s, p, d)           1.850000    2.230000    2.230000
        zeta-weighting                 0.500000
      * Dispersion:
        s8                             2.700000
        a1                             0.520000
        a2                             5.000000
        s9                             5.000000
      * Repulsion:
        kExp                           1.500000    1.000000
        rExp                           1.000000
      * Coulomb:
        alpha                          2.000000
        third order                    shell-resolved
        anisotropic                    true
        a3                             3.000000
        a5                             4.000000
        cn-shift                       1.200000
        cn-exp                         4.000000
        max-rad                        5.000000

      * Solvation model:               ALPB
        Solvent                        water
        Parameter file                 internal GFN2-xTB/ALPB
        Dielectric constant                8.0200E+01
        Reference state                gsolv [1 M gas/solution]
        Free energy shift                  1.0808E-03 Eh       6.7819E-01 kcal/mol
        Temperature                        2.9815E+02 K
        Density                            1.0000E+00 kg/L
        Solvent mass                       1.8000E+01 g/mol
        Interaction kernel             P16
        Born radius scaling (c1)           1.4744E+00
        Born radii integrator          GBOBC
        Born offset                        0.0000E+00 a0       0.0000E+00 AA
        H-bond correction              true
        Ion screening                  false
        Surface tension                    1.0000E-05 Eh       1.5569E+01 dyn/cm
        Grid points                               974 per atom

          ...................................................
          :                      SETUP                      :
          :.................................................:
          :  # basis functions                  93          :
          :  # atomic orbitals                  93          :
          :  # shells                           53          :
          :  # electrons                       100          :
          :  max. iterations                   250          :
          :  Hamiltonian                  GFN2-xTB          :
          :  restarted?                      false          :
          :  GBSA solvation                   true          :
          :  PC potential                    false          :
          :  electronic temp.          300.0000000     K    :
          :  accuracy                    1.0000000          :
          :  -> integral cutoff          0.2500000E+02      :
          :  -> integral neglect         0.1000000E-07      :
          :  -> SCF convergence          0.1000000E-05 Eh   :
          :  -> wf. convergence          0.1000000E-03 e    :
          :  Broyden damping             0.4000000          :
          :  net charge                          0          :
          :  unpaired electrons                  0          :
          ...................................................

 iter      E             dE          RMSdq      gap      omega  full diag
   1    -56.6951451 -0.566951E+02  0.526E+00    1.00       0.0  T
   2    -56.7833014 -0.881563E-01  0.302E+00    1.59       1.0  T
   3    -56.7738081  0.949332E-02  0.159E+00    1.29       1.0  T
   4    -56.7985494 -0.247413E-01  0.503E-01    1.41       1.0  T
   5    -56.8052087 -0.665927E-02  0.122E-01    1.34       1.0  T
   6    -56.8053873 -0.178589E-03  0.571E-02    1.36       1.0  T
   7    -56.8054081 -0.208262E-04  0.237E-02    1.35       1.0  T
   8    -56.8054099 -0.179476E-05  0.920E-03    1.35       1.9  T
   9    -56.8054107 -0.755973E-06  0.430E-03    1.36       4.0  T
  10    -56.8054108 -0.153680E-06  0.157E-03    1.35      11.1  T
  11    -56.8054108 -0.882638E-08  0.835E-04    1.35      20.9  T
  12    -56.8054108 -0.370081E-08  0.340E-04    1.35      51.2  T

   *** convergence criteria satisfied after 12 iterations ***

         #    Occupation            Energy/Eh            Energy/eV
      -------------------------------------------------------------
         1        2.0000           -0.7134718             -19.4146
       ...           ...                  ...                  ...
        44        2.0000           -0.4286945             -11.6654
        45        2.0000           -0.4236979             -11.5294
        46        2.0000           -0.4232622             -11.5176
        47        2.0000           -0.4207047             -11.4480
        48        2.0000           -0.4096519             -11.1472
        49        2.0000           -0.3910912             -10.6421
        50        2.0000           -0.3754324             -10.2160 (HOMO)
        51                         -0.3256440              -8.8612 (LUMO)
        52                         -0.2746506              -7.4736
        53                         -0.2453002              -6.6750
        54                         -0.2342990              -6.3756
        55                         -0.1890057              -5.1431
       ...                                ...                  ...
        93                          0.6894842              18.7618
      -------------------------------------------------------------
                  HL-Gap            0.0497884 Eh            1.3548 eV
             Fermi-level           -0.3505382 Eh           -9.5386 eV

 SCC (total)                   0 d,  0 h,  0 min,  0.060 sec
 SCC setup                      ...        0 min,  0.003 sec (  4.507%)
 Dispersion                     ...        0 min,  0.000 sec (  0.725%)
 classical contributions        ...        0 min,  0.000 sec (  0.098%)
 integral evaluation            ...        0 min,  0.006 sec ( 10.088%)
 iterations                     ...        0 min,  0.034 sec ( 56.249%)
 molecular gradient             ...        0 min,  0.017 sec ( 27.954%)
 printout                       ...        0 min,  0.000 sec (  0.349%)

         :::::::::::::::::::::::::::::::::::::::::::::::::::::
         ::                     SUMMARY                     ::
         :::::::::::::::::::::::::::::::::::::::::::::::::::::
         :: total energy             -56.017327559683 Eh    ::
         :: total w/o Gsasa/hb       -56.012743803690 Eh    ::
         :: gradient norm              0.034999348143 Eh/a0 ::
         :: HOMO-LUMO gap              1.354811628670 eV    ::
         ::.................................................::
         :: SCC energy               -56.805372637618 Eh    ::
         :: -> isotropic ES            0.111352909311 Eh    ::
         :: -> anisotropic ES         -0.002679117135 Eh    ::
         :: -> anisotropic XC          0.020420786490 Eh    ::
         :: -> dispersion             -0.036613440986 Eh    ::
         :: -> Gsolv                  -0.022940787738 Eh    ::
         ::    -> Gelec               -0.018357031745 Eh    ::
         ::    -> Gsasa                0.001319078969 Eh    ::
         ::    -> Ghb                 -0.006983594660 Eh    ::
         ::    -> Gshift               0.001080759698 Eh    ::
         :: repulsion energy           0.788045077935 Eh    ::
         :: add. restraining           0.000000000000 Eh    ::
         :: total charge              -0.000000000000 e     ::
         :::::::::::::::::::::::::::::::::::::::::::::::::::::

      ----------------------------------------------------------- 
     |                   =====================                   |
     |                        A N C O P T                        |
     |                   =====================                   |
     |               Approximate Normal Coordinate               |
     |                Rational Function Optimizer                |
      ----------------------------------------------------------- 
      ----------------------------------------------------------- 
     |                   =====================                   |
     |                        A N C O P T                        |
     |                   =====================                   |
     |               Approximate Normal Coordinate               |
     |                Rational Function Optimizer                |
      ----------------------------------------------------------- 

          ...................................................
          :                      SETUP                      :
          :.................................................:
          :   optimization level         verytight          :
          :   max. optcycles                   660          :
          :   ANC micro-cycles                  20          :
          :   degrees of freedom                93          :
          :.................................................:
          :   RF solver                   davidson          :
          :   write xtbopt.log                true          :
          :   linear?                        false          :
          :   energy convergence         0.1000000E-06 Eh   :
          :   grad. convergence          0.2000000E-03 Eh/α :
          :   maxmium RF displ.          1.0000000          :
          :   Hlow (freq-cutoff)         0.1000000E-01      :
          :   Hmax (freq-cutoff)         5.0000000          :
          :   S6 in model hess.         20.0000000          :
          ...................................................

generating ANC from exact Hessian ...
Using Lindh-Hessian (1995)
 Shifting diagonal of input Hessian by   9.376402994743594E-003
 Lowest  eigenvalues of input Hessian
    0.000000    0.000000    0.000000    0.000000    0.000000    0.000000
    0.010000    0.010491    0.011486    0.011844    0.012888    0.015993
    0.017381    0.018919    0.020780    0.023930    0.024806    0.027173
 Highest eigenvalues
    1.922753    1.942308    2.018980    2.053589    2.083018    2.194481
 

........................................................................
.............................. CYCLE    1 ..............................
........................................................................

 iter      E             dE          RMSdq      gap      omega  full diag
   1    -56.8054108 -0.568054E+02  0.125E-04    1.35       0.0  T
   2    -56.8054108 -0.529710E-10  0.824E-05    1.35     211.3  T
   3    -56.8054108 -0.104805E-10  0.570E-05    1.35     305.2  T
     SCC iter.                  ...        0 min,  0.005 sec
     gradient                   ...        0 min,  0.017 sec
 * total energy  :   -56.0173276 Eh     change       -0.1451603E-08 Eh
   gradient norm :     0.0350030 Eh/α   predicted     0.0000000E+00 (-100.00%)
   displ. norm   :     0.1660966 α      lambda       -0.2647636E-02
   maximum displ.:     0.0944767 α      in ANC's #18, #7, #15, ...

........................................................................
.............................. CYCLE    2 ..............................
........................................................................

 iter      E             dE          RMSdq      gap      omega  full diag
   1    -56.8287539 -0.568288E+02  0.965E-02    1.35       0.0  T
   2    -56.8287739 -0.200397E-04  0.559E-02    1.35       1.0  T
   3    -56.8287712  0.278091E-05  0.221E-02    1.36       1.0  T
   4    -56.8287770 -0.589172E-05  0.429E-03    1.35       4.1  T
   5    -56.8287773 -0.263191E-06  0.197E-03    1.35       8.8  T
   6    -56.8287773 -0.289750E-07  0.103E-03    1.35      17.0  T
   7    -56.8287774 -0.123456E-07  0.417E-04    1.35      41.7  T
   8    -56.8287774 -0.110570E-08  0.182E-04    1.35      95.6  T
     SCC iter.                  ...        0 min,  0.012 sec
     gradient                   ...        0 min,  0.017 sec
 * total energy  :   -56.0191267 Eh     change       -0.1799169E-02 Eh
   gradient norm :     0.0156915 Eh/α   predicted    -0.1360402E-02 ( -24.39%)
   displ. norm   :     0.1467346 α      lambda       -0.8239268E-03
   maximum displ.:     0.0791853 α      in ANC's #7, #18, #4, ...

........................................................................
.............................. CYCLE    3 ..............................
........................................................................

 iter      E             dE          RMSdq      gap      omega  full diag
   1    -56.8392837 -0.568393E+02  0.676E-02    1.34       0.0  T
   2    -56.8392958 -0.121263E-04  0.382E-02    1.34       1.0  T
   3    -56.8392946  0.120371E-05  0.174E-02    1.34       1.0  T
   4    -56.8392974 -0.276327E-05  0.440E-03    1.35       4.0  T
   5    -56.8392979 -0.507117E-06  0.167E-03    1.34      10.4  T
   6    -56.8392979 -0.251890E-07  0.946E-04    1.35      18.4  T
   7    -56.8392979 -0.740523E-08  0.306E-04    1.34      56.8  T
     SCC iter.                  ...        0 min,  0.010 sec
     gradient                   ...        0 min,  0.017 sec
 * total energy  :   -56.0196187 Eh     change       -0.4919265E-03 Eh
   gradient norm :     0.0054695 Eh/α   predicted    -0.4208979E-03 ( -14.44%)
   displ. norm   :     0.0932753 α      lambda       -0.1633555E-03
   maximum displ.:     0.0540259 α      in ANC's #7, #4, #2, ...

........................................................................
.............................. CYCLE    4 ..............................
........................................................................

 iter      E             dE          RMSdq      gap      omega  full diag
   1    -56.8391267 -0.568391E+02  0.345E-02    1.33       0.0  T
   2    -56.8391285 -0.176614E-05  0.199E-02    1.34       1.0  T
   3    -56.8391273  0.122389E-05  0.973E-03    1.34       1.8  T
   4    -56.8391290 -0.168102E-05  0.253E-03    1.34       6.9  T
   5    -56.8391291 -0.163957E-06  0.880E-04    1.34      19.8  T
   6    -56.8391291 -0.299043E-08  0.459E-04    1.34      37.9  T
     SCC iter.                  ...        0 min,  0.009 sec
     gradient                   ...        0 min,  0.017 sec
 * total energy  :   -56.0197379 Eh     change       -0.1192738E-03 Eh
   gradient norm :     0.0040459 Eh/α   predicted    -0.8238915E-04 ( -30.92%)
   displ. norm   :     0.1449440 α      lambda       -0.1492290E-03
   maximum displ.:     0.0863538 α      in ANC's #4, #7, #2, ...

........................................................................
.............................. CYCLE    5 ..............................
........................................................................

 iter      E             dE          RMSdq      gap      omega  full diag
   1    -56.8368367 -0.568368E+02  0.465E-02    1.33       0.0  T
   2    -56.8368383 -0.158646E-05  0.273E-02    1.33       1.0  T
   3    -56.8368355  0.275678E-05  0.115E-02    1.33       1.5  T
   4    -56.8368389 -0.340905E-05  0.245E-03    1.33       7.1  T
   5    -56.8368390 -0.118477E-06  0.107E-03    1.33      16.3  T
   6    -56.8368390 -0.435136E-08  0.498E-04    1.33      35.0  T
   7    -56.8368390 -0.178363E-08  0.132E-04    1.33     131.4  T
     SCC iter.                  ...        0 min,  0.010 sec
     gradient                   ...        0 min,  0.017 sec
 * total energy  :   -56.0198382 Eh     change       -0.1002388E-03 Eh
   gradient norm :     0.0042410 Eh/α   predicted    -0.7618371E-04 ( -24.00%)
   displ. norm   :     0.1375814 α      lambda       -0.8644988E-04
   maximum displ.:     0.0929398 α      in ANC's #4, #7, #2, ...

........................................................................
.............................. CYCLE    6 ..............................
........................................................................

 iter      E             dE          RMSdq      gap      omega  full diag
   1    -56.8352398 -0.568352E+02  0.404E-02    1.33       0.0  T
   2    -56.8352404 -0.595426E-06  0.239E-02    1.33       1.0  T
   3    -56.8352395  0.963390E-06  0.619E-03    1.33       2.8  T
   4    -56.8352407 -0.118655E-05  0.148E-03    1.33      11.7  T
   5    -56.8352407 -0.337395E-07  0.780E-04    1.33      22.3  T
   6    -56.8352407 -0.334393E-08  0.356E-04    1.33      49.0  T
     SCC iter.                  ...        0 min,  0.008 sec
     gradient                   ...        0 min,  0.017 sec
 * total energy  :   -56.0199034 Eh     change       -0.6521214E-04 Eh
   gradient norm :     0.0038018 Eh/α   predicted    -0.4405520E-04 ( -32.44%)
   displ. norm   :     0.1437034 α      lambda       -0.8182363E-04
   maximum displ.:     0.0971438 α      in ANC's #4, #1, #2, ...

........................................................................
.............................. CYCLE    7 ..............................
........................................................................

 iter      E             dE          RMSdq      gap      omega  full diag
   1    -56.8350065 -0.568350E+02  0.423E-02    1.33       0.0  T
   2    -56.8350068 -0.361039E-06  0.251E-02    1.33       1.0  T
   3    -56.8350069 -0.389994E-07  0.217E-03    1.33       8.0  T
   4    -56.8350070 -0.800320E-07  0.101E-03    1.33      17.3  T
   5    -56.8350070 -0.589976E-08  0.592E-04    1.33      29.4  T
   6    -56.8350070 -0.167851E-08  0.264E-04    1.33      65.9  T
     SCC iter.                  ...        0 min,  0.009 sec
     gradient                   ...        0 min,  0.017 sec
 * total energy  :   -56.0199675 Eh     change       -0.6408417E-04 Eh
   gradient norm :     0.0026635 Eh/α   predicted    -0.4175820E-04 ( -34.84%)
   displ. norm   :     0.1667756 α      lambda       -0.7333612E-04
   maximum displ.:     0.1107433 α      in ANC's #4, #1, #2, ...

........................................................................
.............................. CYCLE    8 ..............................
........................................................................

 iter      E             dE          RMSdq      gap      omega  full diag
   1    -56.8357661 -0.568358E+02  0.494E-02    1.34       0.0  T
   2    -56.8357665 -0.336912E-06  0.294E-02    1.34       1.0  T
   3    -56.8357663  0.156372E-06  0.333E-03    1.34       5.2  T
   4    -56.8357666 -0.289977E-06  0.136E-03    1.34      12.8  T
   5    -56.8357666 -0.243266E-07  0.732E-04    1.34      23.8  T
   6    -56.8357666 -0.255348E-08  0.273E-04    1.34      63.7  T
     SCC iter.                  ...        0 min,  0.009 sec
     gradient                   ...        0 min,  0.017 sec
 * total energy  :   -56.0200221 Eh     change       -0.5466253E-04 Eh
   gradient norm :     0.0025060 Eh/α   predicted    -0.3768898E-04 ( -31.05%)
   displ. norm   :     0.1513908 α      lambda       -0.4864734E-04
   maximum displ.:     0.0978672 α      in ANC's #4, #1, #2, ...

........................................................................
.............................. CYCLE    9 ..............................
........................................................................

 iter      E             dE          RMSdq      gap      omega  full diag
   1    -56.8367296 -0.568367E+02  0.444E-02    1.34       0.0  T
   2    -56.8367298 -0.229193E-06  0.265E-02    1.34       1.0  T
   3    -56.8367294  0.465854E-06  0.429E-03    1.34       4.1  T
   4    -56.8367300 -0.606545E-06  0.112E-03    1.34      15.5  T
   5    -56.8367300 -0.997345E-08  0.657E-04    1.34      26.5  T
   6    -56.8367300 -0.221139E-08  0.254E-04    1.34      68.6  T
     SCC iter.                  ...        0 min,  0.009 sec
     gradient                   ...        0 min,  0.017 sec
 * total energy  :   -56.0200590 Eh     change       -0.3684055E-04 Eh
   gradient norm :     0.0026941 Eh/α   predicted    -0.2488322E-04 ( -32.46%)
   displ. norm   :     0.1601407 α      lambda       -0.4114633E-04
   maximum displ.:     0.0997750 α      in ANC's #4, #1, #2, ...

........................................................................
.............................. CYCLE   10 ..............................
........................................................................

 iter      E             dE          RMSdq      gap      omega  full diag
   1    -56.8373702 -0.568374E+02  0.460E-02    1.34       0.0  T
   2    -56.8373705 -0.243987E-06  0.275E-02    1.34       1.0  T
   3    -56.8373700  0.482175E-06  0.433E-03    1.34       4.0  T
   4    -56.8373706 -0.631949E-06  0.114E-03    1.34      15.3  T
   5    -56.8373706 -0.841302E-08  0.685E-04    1.34      25.4  T
   6    -56.8373706 -0.297380E-08  0.256E-04    1.34      68.0  T
     SCC iter.                  ...        0 min,  0.008 sec
     gradient                   ...        0 min,  0.017 sec
 * total energy  :   -56.0200901 Eh     change       -0.3116727E-04 Eh
   gradient norm :     0.0026593 Eh/α   predicted    -0.2110117E-04 ( -32.30%)
   displ. norm   :     0.1508885 α      lambda       -0.3490674E-04
   maximum displ.:     0.0869986 α      in ANC's #4, #1, #2, ...

........................................................................
.............................. CYCLE   11 ..............................
........................................................................

 iter      E             dE          RMSdq      gap      omega  full diag
   1    -56.8376494 -0.568376E+02  0.429E-02    1.34       0.0  T
   2    -56.8376497 -0.244270E-06  0.256E-02    1.34       1.0  T
   3    -56.8376494  0.243805E-06  0.339E-03    1.34       5.1  T
   4    -56.8376498 -0.359958E-06  0.113E-03    1.34      15.4  T
   5    -56.8376498 -0.112502E-07  0.656E-04    1.34      26.5  T
   6    -56.8376498 -0.217857E-08  0.247E-04    1.34      70.4  T
     SCC iter.                  ...        0 min,  0.009 sec
     gradient                   ...        0 min,  0.017 sec
 * total energy  :   -56.0201152 Eh     change       -0.2506303E-04 Eh
   gradient norm :     0.0021059 Eh/α   predicted    -0.1785095E-04 ( -28.78%)
   displ. norm   :     0.1158685 α      lambda       -0.1967176E-04
   maximum displ.:     0.0700663 α      in ANC's #1, #4, #2, ...

........................................................................
.............................. CYCLE   12 ..............................
........................................................................

 iter      E             dE          RMSdq      gap      omega  full diag
   1    -56.8372865 -0.568373E+02  0.335E-02    1.34       0.0  T
   2    -56.8372867 -0.154012E-06  0.200E-02    1.34       1.0  T
   3    -56.8372867 -0.283622E-07  0.139E-03    1.34      12.6  T
   4    -56.8372867 -0.287275E-07  0.719E-04    1.34      24.2  T
   5    -56.8372867 -0.194135E-08  0.411E-04    1.34      42.4  T
     SCC iter.                  ...        0 min,  0.007 sec
     gradient                   ...        0 min,  0.017 sec
 * total energy  :   -56.0201288 Eh     change       -0.1365082E-04 Eh
   gradient norm :     0.0012249 Eh/α   predicted    -0.9971499E-05 ( -26.95%)
   displ. norm   :     0.0917329 α      lambda       -0.1261533E-04
   maximum displ.:     0.0662082 α      in ANC's #1, #2, #10, ...

........................................................................
.............................. CYCLE   13 ..............................
........................................................................

 iter      E             dE          RMSdq      gap      omega  full diag
   1    -56.8373577 -0.568374E+02  0.287E-02    1.34       0.0  T
   2    -56.8373580 -0.309094E-06  0.172E-02    1.34       1.0  T
   3    -56.8373580  0.374105E-07  0.227E-03    1.34       7.7  T
   4    -56.8373581 -0.919125E-07  0.104E-03    1.34      16.8  T
   5    -56.8373581 -0.195194E-07  0.533E-04    1.34      32.7  T
   6    -56.8373581 -0.189072E-08  0.174E-04    1.34     100.1  T
     SCC iter.                  ...        0 min,  0.009 sec
     gradient                   ...        0 min,  0.017 sec
 * total energy  :   -56.0201334 Eh     change       -0.4572168E-05 Eh
   gradient norm :     0.0022925 Eh/α   predicted    -0.6335992E-05 (  38.58%)
   displ. norm   :     0.0496792 α      lambda       -0.9996928E-05
   maximum displ.:     0.0286204 α      in ANC's #1, #2, #4, ...

........................................................................
.............................. CYCLE   14 ..............................
........................................................................

 iter      E             dE          RMSdq      gap      omega  full diag
   1    -56.8368275 -0.568368E+02  0.154E-02    1.34       0.0  T
   2    -56.8368275 -0.477944E-07  0.922E-03    1.34       1.9  T
   3    -56.8368275  0.159545E-07  0.114E-03    1.34      15.2  T
   4    -56.8368275 -0.337752E-07  0.468E-04    1.34      37.2  T
   5    -56.8368275 -0.283017E-08  0.273E-04    1.34      63.8  T
     SCC iter.                  ...        0 min,  0.008 sec
     gradient                   ...        0 min,  0.018 sec
 * total energy  :   -56.0201394 Eh     change       -0.5968990E-05 Eh
   gradient norm :     0.0009953 Eh/α   predicted    -0.5013416E-05 ( -16.01%)
   displ. norm   :     0.0244295 α      lambda       -0.4243636E-05
   maximum displ.:     0.0171084 α      in ANC's #4, #7, #6, ...

........................................................................
.............................. CYCLE   15 ..............................
........................................................................

 iter      E             dE          RMSdq      gap      omega  full diag
   1    -56.8369851 -0.568370E+02  0.888E-03    1.34       0.0  T
   2    -56.8369851 -0.362909E-07  0.520E-03    1.34       3.3  T
   3    -56.8369851  0.553602E-08  0.760E-04    1.34      22.9  T
   4    -56.8369851 -0.108274E-07  0.207E-04    1.34      84.0  T
     SCC iter.                  ...        0 min,  0.006 sec
     gradient                   ...        0 min,  0.018 sec
 * total energy  :   -56.0201436 Eh     change       -0.4192688E-05 Eh
   gradient norm :     0.0004721 Eh/α   predicted    -0.2124723E-05 ( -49.32%)
   displ. norm   :     0.0312914 α      lambda       -0.2636762E-05
   maximum displ.:     0.0258565 α      in ANC's #4, #1, #5, ...

........................................................................
.............................. CYCLE   16 ..............................
........................................................................

 iter      E             dE          RMSdq      gap      omega  full diag
   1    -56.8371910 -0.568372E+02  0.111E-02    1.34       0.0  T
   2    -56.8371911 -0.142006E-07  0.653E-03    1.34       2.7  T
   3    -56.8371910  0.644383E-08  0.626E-04    1.34      27.8  T
   4    -56.8371911 -0.111850E-07  0.184E-04    1.34      94.6  T
     SCC iter.                  ...        0 min,  0.006 sec
     gradient                   ...        0 min,  0.018 sec
 * total energy  :   -56.0201463 Eh     change       -0.2730060E-05 Eh
   gradient norm :     0.0002983 Eh/α   predicted    -0.1325083E-05 ( -51.46%)
   displ. norm   :     0.0307579 α      lambda       -0.1691108E-05
   maximum displ.:     0.0207291 α      in ANC's #1, #4, #2, ...

........................................................................
.............................. CYCLE   17 ..............................
........................................................................

 iter      E             dE          RMSdq      gap      omega  full diag
   1    -56.8372160 -0.568372E+02  0.111E-02    1.34       0.0  T
   2    -56.8372161 -0.692428E-08  0.652E-03    1.34       2.7  T
   3    -56.8372160  0.591263E-08  0.567E-04    1.34      30.7  T
   4    -56.8372161 -0.102731E-07  0.160E-04    1.34     108.8  T
     SCC iter.                  ...        0 min,  0.006 sec
     gradient                   ...        0 min,  0.018 sec
 * total energy  :   -56.0201482 Eh     change       -0.1849297E-05 Eh
   gradient norm :     0.0003384 Eh/α   predicted    -0.8479994E-06 ( -54.14%)
   displ. norm   :     0.0288623 α      lambda       -0.1455095E-05
   maximum displ.:     0.0202525 α      in ANC's #1, #4, #2, ...

........................................................................
.............................. CYCLE   18 ..............................
........................................................................

 iter      E             dE          RMSdq      gap      omega  full diag
   1    -56.8372140 -0.568372E+02  0.106E-02    1.34       0.0  T
   2    -56.8372140 -0.759791E-08  0.622E-03    1.34       2.8  T
   3    -56.8372140 -0.104058E-08  0.297E-04    1.34      58.6  T
   4    -56.8372140 -0.194019E-08  0.142E-04    1.34     122.9  T
     SCC iter.                  ...        0 min,  0.006 sec
     gradient                   ...        0 min,  0.017 sec
 * total energy  :   -56.0201498 Eh     change       -0.1627207E-05 Eh
   gradient norm :     0.0003027 Eh/α   predicted    -0.7308584E-06 ( -55.09%)
   displ. norm   :     0.0230317 α      lambda       -0.1106721E-05
   maximum displ.:     0.0173127 α      in ANC's #1, #4, #2, ...

........................................................................
.............................. CYCLE   19 ..............................
........................................................................

 iter      E             dE          RMSdq      gap      omega  full diag
   1    -56.8371743 -0.568372E+02  0.808E-03    1.34       0.0  T
   2    -56.8371743 -0.364969E-08  0.475E-03    1.34       3.7  T
   3    -56.8371743  0.160151E-08  0.342E-04    1.34      50.9  T
   4    -56.8371743 -0.333996E-08  0.108E-04    1.34     160.9  T
     SCC iter.                  ...        0 min,  0.006 sec
     gradient                   ...        0 min,  0.017 sec
 * total energy  :   -56.0201512 Eh     change       -0.1406101E-05 Eh
   gradient norm :     0.0002541 Eh/α   predicted    -0.5554401E-06 ( -60.50%)
   displ. norm   :     0.0248954 α      lambda       -0.1169450E-05
   maximum displ.:     0.0187745 α      in ANC's #1, #4, #7, ...

........................................................................
.............................. CYCLE   20 ..............................
........................................................................

 iter      E             dE          RMSdq      gap      omega  full diag
   1    -56.8371317 -0.568371E+02  0.851E-03    1.34       0.0  T
   2    -56.8371317 -0.472847E-08  0.502E-03    1.34       3.5  T
   3    -56.8371317 -0.138105E-08  0.240E-04    1.34      72.4  T
   4    -56.8371317 -0.780865E-09  0.131E-04    1.34     132.5  T
     SCC iter.                  ...        0 min,  0.006 sec
     gradient                   ...        0 min,  0.017 sec
 * total energy  :   -56.0201527 Eh     change       -0.1455055E-05 Eh
   gradient norm :     0.0002392 Eh/α   predicted    -0.5866284E-06 ( -59.68%)
   displ. norm   :     0.0277289 α      lambda       -0.1105462E-05
   maximum displ.:     0.0215920 α      in ANC's #1, #4, #7, ...
 * RMSD in coord.:     0.2517926 α      energy gain  -0.2825091E-02 Eh

generating ANC from exact Hessian ...
Using Lindh-Hessian (1995)
 Shifting diagonal of input Hessian by   9.323893316189285E-003
 Lowest  eigenvalues of input Hessian
    0.000000    0.000000    0.000000    0.000000    0.000000    0.000000
    0.010000    0.010512    0.011505    0.011960    0.012999    0.016301
    0.017582    0.019369    0.021214    0.024535    0.025355    0.028021
 Highest eigenvalues
    1.966542    1.987352    2.064387    2.108935    2.136813    2.247990
 

........................................................................
.............................. CYCLE   21 ..............................
........................................................................

 iter      E             dE          RMSdq      gap      omega  full diag
   1    -56.8370837 -0.568371E+02  0.891E-03    1.34       0.0  T
   2    -56.8370837 -0.678355E-08  0.526E-03    1.34       3.3  T
   3    -56.8370837 -0.187006E-08  0.273E-04    1.34      63.8  T
   4    -56.8370837 -0.860453E-09  0.152E-04    1.34     114.9  T
     SCC iter.                  ...        0 min,  0.006 sec
     gradient                   ...        0 min,  0.018 sec
 * total energy  :   -56.0201539 Eh     change       -0.1293125E-05 Eh
   gradient norm :     0.0001974 Eh/α   predicted     0.0000000E+00 (-100.00%)
   displ. norm   :     0.0082332 α      lambda       -0.4422285E-07
   maximum displ.:     0.0070027 α      in ANC's #1, #5, #4, ...

........................................................................
.............................. CYCLE   22 ..............................
........................................................................

 iter      E             dE          RMSdq      gap      omega  full diag
   1    -56.8371711 -0.568372E+02  0.231E-03    1.34       0.0  T
   2    -56.8371711 -0.144282E-08  0.136E-03    1.34      12.8  T
   3    -56.8371711  0.153269E-08  0.261E-04    1.34      66.7  T
   4    -56.8371711 -0.191518E-08  0.695E-05    1.34     250.5  T
     SCC iter.                  ...        0 min,  0.006 sec
     gradient                   ...        0 min,  0.017 sec
 * total energy  :   -56.0201545 Eh     change       -0.5118258E-06 Eh
   gradient norm :     0.0001253 Eh/α   predicted    -0.2125707E-06 ( -58.47%)
   displ. norm   :     0.0148169 α      lambda       -0.5830207E-06
   maximum displ.:     0.0114519 α      in ANC's #1, #5, #4, ...

........................................................................
.............................. CYCLE   23 ..............................
........................................................................

 iter      E             dE          RMSdq      gap      omega  full diag
   1    -56.8372311 -0.568372E+02  0.401E-03    1.34       0.0  T
   2    -56.8372311 -0.213264E-08  0.236E-03    1.34       7.4  T
   3    -56.8372311  0.230471E-08  0.342E-04    1.34      50.9  T
   4    -56.8372311 -0.319841E-08  0.856E-05    1.34     203.3  T
     SCC iter.                  ...        0 min,  0.006 sec
     gradient                   ...        0 min,  0.018 sec
 * total energy  :   -56.0201552 Eh     change       -0.7283405E-06 Eh
   gradient norm :     0.0002205 Eh/α   predicted    -0.2920305E-06 ( -59.90%)
   displ. norm   :     0.0205434 α      lambda       -0.6575166E-06
   maximum displ.:     0.0156600 α      in ANC's #1, #5, #4, ...

........................................................................
.............................. CYCLE   24 ..............................
........................................................................

 iter      E             dE          RMSdq      gap      omega  full diag
   1    -56.8371710 -0.568372E+02  0.558E-03    1.34       0.0  T
   2    -56.8371710 -0.350509E-08  0.328E-03    1.34       5.3  T
   3    -56.8371710  0.189573E-10  0.242E-04    1.34      71.8  T
   4    -56.8371710 -0.142426E-08  0.101E-04    1.34     172.8  T
     SCC iter.                  ...        0 min,  0.006 sec
     gradient                   ...        0 min,  0.018 sec
 * total energy  :   -56.0201560 Eh     change       -0.8363211E-06 Eh
   gradient norm :     0.0001888 Eh/α   predicted    -0.3295612E-06 ( -60.59%)
   displ. norm   :     0.0200697 α      lambda       -0.5535185E-06
   maximum displ.:     0.0158459 α      in ANC's #1, #5, #4, ...

........................................................................
.............................. CYCLE   25 ..............................
........................................................................

 iter      E             dE          RMSdq      gap      omega  full diag
   1    -56.8371520 -0.568372E+02  0.517E-03    1.34       0.0  T
   2    -56.8371520 -0.326058E-08  0.305E-03    1.34       5.7  T
   3    -56.8371520  0.298849E-08  0.367E-04    1.34      47.4  T
   4    -56.8371520 -0.430703E-08  0.107E-04    1.34     162.9  T
     SCC iter.                  ...        0 min,  0.006 sec
     gradient                   ...        0 min,  0.018 sec
 * total energy  :   -56.0201567 Eh     change       -0.7258772E-06 Eh
   gradient norm :     0.0001120 Eh/α   predicted    -0.2815670E-06 ( -61.21%)
   displ. norm   :     0.0165580 α      lambda       -0.4215783E-06
   maximum displ.:     0.0136605 α      in ANC's #1, #2, #4, ...

........................................................................
.............................. CYCLE   26 ..............................
........................................................................

 iter      E             dE          RMSdq      gap      omega  full diag
   1    -56.8371459 -0.568371E+02  0.410E-03    1.34       0.0  T
   2    -56.8371459 -0.252268E-08  0.242E-03    1.34       7.2  T
   3    -56.8371459  0.275835E-08  0.339E-04    1.34      51.3  T
   4    -56.8371459 -0.360515E-08  0.989E-05    1.34     176.0  T
     SCC iter.                  ...        0 min,  0.006 sec
     gradient                   ...        0 min,  0.017 sec
 * total energy  :   -56.0201573 Eh     change       -0.5722203E-06 Eh
   gradient norm :     0.0000693 Eh/α   predicted    -0.2137680E-06 ( -62.64%)
   displ. norm   :     0.0134285 α      lambda       -0.3375291E-06
   maximum displ.:     0.0113734 α      in ANC's #1, #2, #3, ...

........................................................................
.............................. CYCLE   27 ..............................
........................................................................

 iter      E             dE          RMSdq      gap      omega  full diag
   1    -56.8371337 -0.568371E+02  0.340E-03    1.34       0.0  T
   2    -56.8371337 -0.119577E-08  0.200E-03    1.34       8.7  T
   3    -56.8371337  0.482295E-09  0.186E-04    1.34      93.5  T
   4    -56.8371337 -0.930271E-09  0.675E-05    1.34     258.0  T
     SCC iter.                  ...        0 min,  0.006 sec
     gradient                   ...        0 min,  0.017 sec
 * total energy  :   -56.0201578 Eh     change       -0.4618540E-06 Eh
   gradient norm :     0.0000803 Eh/α   predicted    -0.1690482E-06 ( -63.40%)
   displ. norm   :     0.0128250 α      lambda       -0.3084459E-06
   maximum displ.:     0.0107792 α      in ANC's #1, #2, #3, ...

........................................................................
.............................. CYCLE   28 ..............................
........................................................................

 iter      E             dE          RMSdq      gap      omega  full diag
   1    -56.8371412 -0.568371E+02  0.349E-03    1.34       0.0  T
   2    -56.8371412 -0.100999E-08  0.206E-03    1.34       8.5  T
   3    -56.8371412 -0.265061E-09  0.107E-04    1.34     162.1  T
   4    -56.8371412 -0.202185E-09  0.559E-05    1.34     311.5  T
     SCC iter.                  ...        0 min,  0.006 sec
     gradient                   ...        0 min,  0.016 sec
 * total energy  :   -56.0201582 Eh     change       -0.4346709E-06 Eh
   gradient norm :     0.0000941 Eh/α   predicted    -0.1584776E-06 ( -63.54%)
   displ. norm   :     0.0132995 α      lambda       -0.3156663E-06
   maximum displ.:     0.0110126 α      in ANC's #1, #2, #3, ...

........................................................................
.............................. CYCLE   29 ..............................
........................................................................

 iter      E             dE          RMSdq      gap      omega  full diag
   1    -56.8371421 -0.568371E+02  0.391E-03    1.34       0.0  T
   2    -56.8371421 -0.100330E-08  0.230E-03    1.34       7.6  T
   3    -56.8371421 -0.298527E-09  0.110E-04    1.34     158.1  T
   4    -56.8371421 -0.211408E-09  0.565E-05    1.34     307.9  T
     SCC iter.                  ...        0 min,  0.006 sec
     gradient                   ...        0 min,  0.017 sec
 * total energy  :   -56.0201587 Eh     change       -0.4467822E-06 Eh
   gradient norm :     0.0000860 Eh/α   predicted    -0.1628177E-06 ( -63.56%)
   displ. norm   :     0.0154060 α      lambda       -0.3520097E-06
   maximum displ.:     0.0123603 α      in ANC's #1, #3, #2, ...

........................................................................
.............................. CYCLE   30 ..............................
........................................................................

 iter      E             dE          RMSdq      gap      omega  full diag
   1    -56.8371369 -0.568371E+02  0.469E-03    1.34       0.0  T
   2    -56.8371369 -0.137710E-08  0.276E-03    1.34       6.3  T
   3    -56.8371369 -0.546457E-09  0.115E-04    1.34     151.4  T
   4    -56.8371369 -0.176890E-09  0.670E-05    1.34     259.8  T
     SCC iter.                  ...        0 min,  0.006 sec
     gradient                   ...        0 min,  0.017 sec
 * total energy  :   -56.0201592 Eh     change       -0.4916541E-06 Eh
   gradient norm :     0.0000733 Eh/α   predicted    -0.1801045E-06 ( -63.37%)
   displ. norm   :     0.0175216 α      lambda       -0.3737099E-06
   maximum displ.:     0.0138915 α      in ANC's #1, #3, #2, ...

........................................................................
.............................. CYCLE   31 ..............................
........................................................................

 iter      E             dE          RMSdq      gap      omega  full diag
   1    -56.8371525 -0.568372E+02  0.538E-03    1.34       0.0  T
   2    -56.8371526 -0.167339E-08  0.317E-03    1.34       5.5  T
   3    -56.8371526 -0.600679E-09  0.141E-04    1.34     123.6  T
   4    -56.8371526 -0.345835E-09  0.793E-05    1.34     219.4  T
     SCC iter.                  ...        0 min,  0.006 sec
     gradient                   ...        0 min,  0.019 sec
 * total energy  :   -56.0201597 Eh     change       -0.5157121E-06 Eh
   gradient norm :     0.0000532 Eh/α   predicted    -0.1890623E-06 ( -63.34%)
   displ. norm   :     0.0184471 α      lambda       -0.3479047E-06
   maximum displ.:     0.0146003 α      in ANC's #1, #3, #2, ...

........................................................................
.............................. CYCLE   32 ..............................
........................................................................

 iter      E             dE          RMSdq      gap      omega  full diag
   1    -56.8371529 -0.568372E+02  0.556E-03    1.34       0.0  T
   2    -56.8371529 -0.176561E-08  0.327E-03    1.34       5.3  T
   3    -56.8371529 -0.931941E-09  0.111E-04    1.34     156.4  T
   4    -56.8371529 -0.513012E-10  0.706E-05    1.34     246.4  T
     SCC iter.                  ...        0 min,  0.007 sec
     gradient                   ...        0 min,  0.018 sec
 * total energy  :   -56.0201601 Eh     change       -0.4756297E-06 Eh
   gradient norm :     0.0000410 Eh/α   predicted    -0.1745696E-06 ( -63.30%)
   displ. norm   :     0.0166442 α      lambda       -0.2718955E-06
   maximum displ.:     0.0133633 α      in ANC's #1, #2, #3, ...

........................................................................
.............................. CYCLE   33 ..............................
........................................................................

 iter      E             dE          RMSdq      gap      omega  full diag
   1    -56.8371559 -0.568372E+02  0.487E-03    1.34       0.0  T
   2    -56.8371559 -0.138851E-08  0.287E-03    1.34       6.1  T
   3    -56.8371559 -0.638373E-09  0.113E-04    1.34     154.6  T
   4    -56.8371559 -0.140133E-09  0.677E-05    1.34     257.0  T
     SCC iter.                  ...        0 min,  0.006 sec
     gradient                   ...        0 min,  0.017 sec
 * total energy  :   -56.0201605 Eh     change       -0.3725438E-06 Eh
   gradient norm :     0.0000368 Eh/α   predicted    -0.1362697E-06 ( -63.42%)
   displ. norm   :     0.0126641 α      lambda       -0.1816334E-06
   maximum displ.:     0.0104787 α      in ANC's #1, #2, #3, ...

........................................................................
.............................. CYCLE   34 ..............................
........................................................................

 iter      E             dE          RMSdq      gap      omega  full diag
   1    -56.8371564 -0.568372E+02  0.358E-03    1.34       0.0  T
   2    -56.8371564 -0.779409E-09  0.211E-03    1.34       8.3  T
   3    -56.8371564 -0.327475E-09  0.894E-05    1.34     194.8  T
   4    -56.8371564 -0.103007E-09  0.529E-05    1.34     329.0  T
     SCC iter.                  ...        0 min,  0.006 sec
     gradient                   ...        0 min,  0.018 sec
 * total energy  :   -56.0201608 Eh     change       -0.2581359E-06 Eh
   gradient norm :     0.0000339 Eh/α   predicted    -0.9244961E-07 ( -64.19%)
   displ. norm   :     0.0086893 α      lambda       -0.1172948E-06
   maximum displ.:     0.0074645 α      in ANC's #1, #2, #3, ...

........................................................................
.............................. CYCLE   35 ..............................
........................................................................

 iter      E             dE          RMSdq      gap      omega  full diag
   1    -56.8371560 -0.568372E+02  0.233E-03    1.34       0.0  T
   2    -56.8371560 -0.358163E-09  0.137E-03    1.34      12.7  T
   3    -56.8371560 -0.653273E-10  0.796E-05    1.34     218.7  T
   4    -56.8371560 -0.130505E-09  0.380E-05    1.34     457.6  T
     SCC iter.                  ...        0 min,  0.006 sec
     gradient                   ...        0 min,  0.018 sec
 * total energy  :   -56.0201610 Eh     change       -0.1745293E-06 Eh
   gradient norm :     0.0000315 Eh/α   predicted    -0.6136500E-07 ( -64.84%)
   displ. norm   :     0.0064425 α      lambda       -0.8887118E-07
   maximum displ.:     0.0057002 α      in ANC's #1, #2, #3, ...

........................................................................
.............................. CYCLE   36 ..............................
........................................................................

 iter      E             dE          RMSdq      gap      omega  full diag
   1    -56.8371569 -0.568372E+02  0.162E-03    1.34       0.0  T
   2    -56.8371569 -0.190674E-09  0.957E-04    1.34      18.2  T
   3    -56.8371569 -0.758433E-10  0.432E-05    1.34     402.8  T
     SCC iter.                  ...        0 min,  0.005 sec
     gradient                   ...        0 min,  0.016 sec
 * total energy  :   -56.0201611 Eh     change       -0.1334050E-06 Eh
   gradient norm :     0.0000296 Eh/α   predicted    -0.4637985E-07 ( -65.23%)
   displ. norm   :     0.0052175 α      lambda       -0.6924572E-07
   maximum displ.:     0.0045923 α      in ANC's #1, #2, #3, ...

........................................................................
.............................. CYCLE   37 ..............................
........................................................................

 iter      E             dE          RMSdq      gap      omega  full diag
   1    -56.8371571 -0.568372E+02  0.127E-03    1.34       0.0  T
   2    -56.8371571 -0.140503E-09  0.748E-04    1.34      23.3  T
   3    -56.8371571 -0.407496E-10  0.406E-05    1.34     428.9  T
     SCC iter.                  ...        0 min,  0.005 sec
     gradient                   ...        0 min,  0.017 sec
 * total energy  :   -56.0201612 Eh     change       -0.1059590E-06 Eh
   gradient norm :     0.0000271 Eh/α   predicted    -0.3950632E-07 ( -62.72%)
   displ. norm   :     0.0056262 α      lambda       -0.7138723E-07
   maximum displ.:     0.0050289 α      in ANC's #1, #2, #4, ...

........................................................................
.............................. CYCLE   38 ..............................
........................................................................

 iter      E             dE          RMSdq      gap      omega  full diag
   1    -56.8371569 -0.568372E+02  0.128E-03    1.34       0.0  T
   2    -56.8371569 -0.155403E-09  0.754E-04    1.34      23.1  T
   3    -56.8371569 -0.479830E-10  0.396E-05    1.34     439.5  T
     SCC iter.                  ...        0 min,  0.004 sec
     gradient                   ...        0 min,  0.017 sec
 * total energy  :   -56.0201613 Eh     change       -0.1129359E-06 Eh
   gradient norm :     0.0000252 Eh/α   predicted    -0.3829645E-07 ( -66.09%)
   displ. norm   :     0.0047412 α      lambda       -0.6166167E-07
   maximum displ.:     0.0042070 α      in ANC's #1, #4, #2, ...

........................................................................
.............................. CYCLE   39 ..............................
........................................................................

 iter      E             dE          RMSdq      gap      omega  full diag
   1    -56.8371573 -0.568372E+02  0.104E-03    1.34       0.0  T
   2    -56.8371573 -0.117772E-09  0.612E-04    1.34      28.4  T
   3    -56.8371573 -0.175291E-10  0.428E-05    1.34     407.1  T
     SCC iter.                  ...        0 min,  0.004 sec
     gradient                   ...        0 min,  0.017 sec
 * total energy  :   -56.0201614 Eh     change       -0.9152909E-07 Eh
   gradient norm :     0.0000239 Eh/α   predicted    -0.3298847E-07 ( -63.96%)
   displ. norm   :     0.0050262 α      lambda       -0.6086827E-07
   maximum displ.:     0.0045424 α      in ANC's #1, #4, #2, ...

   *** GEOMETRY OPTIMIZATION CONVERGED AFTER 39 ITERATIONS ***

------------------------------------------------------------------------
 total energy gain   :        -0.0028338 Eh       -1.7783 kcal/mol
 total RMSD          :         0.2680744 a0        0.1419 Å
 total power (kW/mol):        -0.1907752 (step)   -5.7976 (real)
------------------------------------------------------------------------

 ANCopt (total)                0 d,  0 h,  0 min,  1.283 sec
 optimizer setup                ...        0 min,  0.000 sec (  0.029%)
 model hessian                  ...        0 min,  0.016 sec (  1.250%)
 ANC generation                 ...        0 min,  0.002 sec (  0.135%)
 coordinate transformation      ...        0 min,  0.001 sec (  0.040%)
 single point calculation       ...        0 min,  1.248 sec ( 97.261%)
 optimization log               ...        0 min,  0.012 sec (  0.930%)
 hessian update                 ...        0 min,  0.001 sec (  0.043%)
 rational function              ...        0 min,  0.002 sec (  0.173%)

================
 final structure:
================
$coord
       -8.62926614091368       -2.09295452010095        0.37937232153975      C
       -7.23151092970576       -4.28385302453487        0.02360964327324      C
       -4.63753341544526       -4.14977115910114       -0.25742194357307      C
       -3.39450205611401       -1.82948717088315       -0.18837249712913      C
       -4.80683904004559        0.37741837249464        0.17028260899803      C
       -7.42096240838734        0.22130010862239        0.45167212474710      C
       -3.56659292372266        2.85755477605859        0.25676224621417      C
       -4.78109926277721        4.81208728832900        0.57711693681260      O
       -0.79994969117638        2.89174300688631       -0.05761676778855      C
        0.37206872940060        5.22761930648543        0.04265075319141      C
        2.98245740326057        5.41989040774322       -0.22852310988058      C
        4.41189800494841        3.29695776035715       -0.60471247764381      C
        3.29703170261171        0.86692198594747       -0.73869283236899      C
        0.61951103802676        0.65786757434146       -0.44067774532998      C
       -0.62356338467565       -1.77695928495718       -0.50031352664452      C
        0.52448691775306       -3.80894347613290       -0.78589591544603      O
        4.70689228228062       -1.19405764270846       -1.15817911870353      N
        7.41957433233758       -1.28346093533407       -1.38547982585546      C
        8.75869703520498       -1.22617821014217        1.19942193921010      C
        8.56417108079195       -3.53374982985070        2.51431514488184      O
      -10.65311309504332       -2.19226598829310        0.59953696294153      H
       -8.16568714623693       -6.09468925830454       -0.03428417007880      H
       -3.51767132492608       -5.83290917422702       -0.53657343165041      H
       -8.46010725269920        1.95623887451183        0.72641745086214      H
       -0.78567545544839        6.87967481693262        0.34035627530542      H
        3.87472118806391        7.25019171299734       -0.13717540637980      H
        6.42939989868986        3.47412060526938       -0.80163468660398      H
        3.73449037978249       -2.85332492345190       -1.18533413511843      H
        8.10093961339544        0.28742647309288       -2.53538678750523      H
        7.91232254346212       -3.04769240537379       -2.33028886665576      H
        8.00495206800812        0.32598331120186        2.34951123822589      H
       10.78003557125322       -0.93017560996207        0.91417501850442      H
        6.80644580641908       -3.88346472245401        2.86850687041639      H
$end
 
 Bond Distances (Angstroems)
 ---------------------------
C1-C2=1.3881         C1-C6=1.3821         C1-H21=1.0786        C2-C1=1.3881         C2-C3=1.3825         C2-H22=1.0787        
C3-C2=1.3825         C3-C4=1.3934         C3-H23=1.0800        C4-C3=1.3934         C4-C5=1.3994         C4-C15=1.4758        
C5-C4=1.3994         C5-C6=1.3938         C5-C7=1.4681         C6-C1=1.3821         C6-C5=1.3938         C6-H24=1.0800        
C7-C5=1.4681         C7-O8=1.2295         C7-C9=1.4736         O8-C7=1.2295         C9-C7=1.4736         C9-C10=1.3840        
C9-C14=1.4152        C10-C9=1.3840        C10-C11=1.3925       C10-H25=1.0791       C11-C10=1.3925       C11-C12=1.3689       
C11-H26=1.0786       C12-C11=1.3689       C12-C13=1.4166       C12-H27=1.0768       C13-C12=1.4166       C13-C14=1.4299       
C13-N17=1.3399       C14-C9=1.4152        C14-C13=1.4299       C14-C15=1.4470       C15-C4=1.4758        C15-C14=1.4470       
C15-O16=1.2442       O16-C15=1.2442       N17-C13=1.3399       N17-C18=1.4413       N17-H28=1.0178       C18-N17=1.4413       
C18-C19=1.5408       C18-H29=1.0915       C18-H30=1.0907       C19-C18=1.5408       C19-O20=1.4092       C19-H31=1.0973       
C19-H32=1.0915       O20-C19=1.4092       O20-H33=0.9667       H21-C1=1.0786        H22-C2=1.0787        H23-C3=1.0800        
H24-C6=1.0800        H25-C10=1.0791       H26-C11=1.0786       H27-C12=1.0768       H28-N17=1.0178       H29-C18=1.0915       
H30-C18=1.0907       H31-C19=1.0973       H32-C19=1.0915       H33-O20=0.9667       
 C  H  Rav=1.0839 sigma=0.0069  Rmin=1.0768  Rmax=1.0973    11
 C  C  Rav=1.4207 sigma=0.0448  Rmin=1.3689  Rmax=1.5408    17
 N  H  Rav=1.0178 sigma=0.0000  Rmin=1.0178  Rmax=1.0178     1
 N  C  Rav=1.3906 sigma=0.0507  Rmin=1.3399  Rmax=1.4413     2
 O  H  Rav=0.9667 sigma=0.0000  Rmin=0.9667  Rmax=0.9667     1
 O  C  Rav=1.2943 sigma=0.0815  Rmin=1.2295  Rmax=1.4092     3
 
 selected bond angles (degree)
 --------------------
C6-C1-C2=119.82                H21-C1-C2=120.20               H21-C1-C6=119.97               C3-C2-C1=120.05                
H22-C2-C1=120.11               H22-C2-C3=119.84               C4-C3-C2=120.74                H23-C3-C2=121.15               
H23-C3-C4=118.12               C5-C4-C3=119.13                C15-C4-C3=118.86               C15-C4-C5=122.01               
C6-C5-C4=119.67                C7-C5-C4=120.76                C7-C5-C6=119.56                C5-C6-C1=120.58                
H24-C6-C1=121.43               H24-C6-C5=117.99               O8-C7-C5=121.51                C9-C7-C5=116.85                
C9-C7-O8=121.64                C10-C9-C7=116.86               C14-C9-C7=122.23               C14-C9-C10=120.91              
C11-C10-C9=120.39              H25-C10-C9=118.34              H25-C10-C11=121.27             
 
 selected dihedral angles (degree)
 ---------------------------------
C3-C2-C1-C6=  0.00            C3-C2-C1-H21=180.01           H22-C2-C1-C6=180.00           H22-C2-C1-H21=  0.00          
C4-C3-C2-C1=  0.00            C4-C3-C2-H22=180.00           H23-C3-C2-C1=180.02           H23-C3-C2-H22=  0.00          
C5-C4-C3-C2=  0.00            C5-C4-C3-H23=179.98           C15-C4-C3-C2=180.08           C15-C4-C3-H23=  0.06          
C6-C5-C4-C3=  0.00            C6-C5-C4-C15=179.92           C7-C5-C4-C3=179.94            C7-C5-C4-C15=359.85           
C5-C6-C1-C2=  0.00            C5-C6-C1-H21=179.99           H24-C6-C1-C2=180.02           H24-C6-C1-H21=  0.00          
C1-C6-C5-C4=  0.00            C1-C6-C5-C7=180.07            H24-C6-C5-C4=179.97           H24-C6-C5-C7=  0.04           
O8-C7-C5-C4=180.19            O8-C7-C5-C6=  0.12            C9-C7-C5-C4=  0.18            C9-C7-C5-C6=180.10            
C10-C9-C7-C5=180.47           C10-C9-C7-O8=  0.45           C14-C9-C7-C5=  0.35           C14-C9-C7-O8=180.33           
C11-C10-C9-C7=179.77          C11-C10-C9-C14=359.88         H25-C10-C9-C7=359.96          H25-C10-C9-C14=180.07         
           -------------------------------------------------
          |                Final Singlepoint                |
           -------------------------------------------------

          ...................................................
          :                      SETUP                      :
          :.................................................:
          :  # basis functions                  93          :
          :  # atomic orbitals                  93          :
          :  # shells                           53          :
          :  # electrons                       100          :
          :  max. iterations                   250          :
          :  Hamiltonian                  GFN2-xTB          :
          :  restarted?                      false          :
          :  GBSA solvation                   true          :
          :  PC potential                    false          :
          :  electronic temp.          300.0000000     K    :
          :  accuracy                    1.0000000          :
          :  -> integral cutoff          0.2500000E+02      :
          :  -> integral neglect         0.1000000E-07      :
          :  -> SCF convergence          0.1000000E-05 Eh   :
          :  -> wf. convergence          0.1000000E-03 e    :
          :  Broyden damping             0.4000000          :
          :  net charge                          0          :
          :  unpaired electrons                  0          :
          ...................................................

 iter      E             dE          RMSdq      gap      omega  full diag
   1    -56.8371573 -0.568372E+02  0.219E-05    1.34       0.0  T
   2    -56.8371573 -0.175504E-11  0.149E-05    1.34    1165.8  T
   3    -56.8371573 -0.258638E-11  0.898E-06    1.34    1939.0  T

   *** convergence criteria satisfied after 3 iterations ***

         #    Occupation            Energy/Eh            Energy/eV
      -------------------------------------------------------------
         1        2.0000           -0.7144254             -19.4405
       ...           ...                  ...                  ...
        44        2.0000           -0.4293733             -11.6838
        45        2.0000           -0.4236791             -11.5289
        46        2.0000           -0.4217523             -11.4765
        47        2.0000           -0.4198774             -11.4254
        48        2.0000           -0.4092085             -11.1351
        49        2.0000           -0.3892687             -10.5925
        50        2.0000           -0.3738940             -10.1742 (HOMO)
        51                         -0.3247253              -8.8362 (LUMO)
        52                         -0.2725401              -7.4162
        53                         -0.2431297              -6.6159
        54                         -0.2316598              -6.3038
        55                         -0.1858164              -5.0563
       ...                                ...                  ...
        93                          0.7089743              19.2922
      -------------------------------------------------------------
                  HL-Gap            0.0491687 Eh            1.3379 eV
             Fermi-level           -0.3493096 Eh           -9.5052 eV

 SCC (total)                   0 d,  0 h,  0 min,  0.030 sec
 SCC setup                      ...        0 min,  0.002 sec (  7.605%)
 Dispersion                     ...        0 min,  0.000 sec (  0.769%)
 classical contributions        ...        0 min,  0.000 sec (  0.168%)
 integral evaluation            ...        0 min,  0.005 sec ( 17.713%)
 iterations                     ...        0 min,  0.005 sec ( 15.872%)
 molecular gradient             ...        0 min,  0.017 sec ( 57.174%)
 printout                       ...        0 min,  0.000 sec (  0.650%)

         :::::::::::::::::::::::::::::::::::::::::::::::::::::
         ::                     SUMMARY                     ::
         :::::::::::::::::::::::::::::::::::::::::::::::::::::
         :: total energy             -56.020161394220 Eh    ::
         :: total w/o Gsasa/hb       -56.015053746236 Eh    ::
         :: gradient norm              0.000024299848 Eh/a0 ::
         :: HOMO-LUMO gap              1.337949297131 eV    ::
         ::.................................................::
         :: SCC energy               -56.837154709411 Eh    ::
         :: -> isotropic ES            0.110197771057 Eh    ::
         :: -> anisotropic ES         -0.003321924918 Eh    ::
         :: -> anisotropic XC          0.019145362053 Eh    ::
         :: -> dispersion             -0.036644653903 Eh    ::
         :: -> Gsolv                  -0.023080109998 Eh    ::
         ::    -> Gelec               -0.017972462014 Eh    ::
         ::    -> Gsasa                0.001430337733 Eh    ::
         ::    -> Ghb                 -0.007618745416 Eh    ::
         ::    -> Gshift               0.001080759698 Eh    ::
         :: repulsion energy           0.816993315191 Eh    ::
         :: add. restraining           0.000000000000 Eh    ::
         :: total charge               0.000000000000 e     ::
         :::::::::::::::::::::::::::::::::::::::::::::::::::::

           ------------------------------------------------- 
          |                Numerical Hessian                |
           ------------------------------------------------- 
step length          :   0.00500
SCC accuracy         :   0.30000
Hessian scale factor :   1.00000
frozen atoms in %    :   0.00000    0
RMS gradient         :   0.00002
estimated CPU  time      0.11 min
estimated wall time      0.11 min

writing file <hessian>.

 projected vibrational frequencies (cm⁻¹)
eigval :       -0.00    -0.00    -0.00    -0.00     0.00     0.00
eigval :       24.82    34.03    48.13    68.22    94.56   109.06
eigval :      149.28   168.62   186.21   219.34   261.72   278.93
eigval :      327.57   334.65   362.49   378.87   384.93   395.03
eigval :      413.06   448.04   458.21   463.82   495.43   509.76
eigval :      572.05   603.11   615.57   629.01   658.93   670.27
eigval :      675.66   693.03   761.73   764.96   781.14   804.65
eigval :      850.54   882.55   888.27   894.44   895.84   920.14
eigval :      923.31   928.64   930.72  1017.41  1043.57  1079.41
eigval :     1085.28  1093.38  1113.37  1128.17  1154.61  1170.14
eigval :     1171.64  1188.08  1208.23  1214.84  1233.84  1260.32
eigval :     1267.35  1280.20  1296.02  1308.93  1331.99  1338.60
eigval :     1354.92  1382.08  1417.45  1431.25  1451.08  1454.99
eigval :     1458.22  1493.03  1516.82  1555.52  1570.51  1573.75
eigval :     1587.18  1618.07  2898.05  2975.23  2988.61  3003.48
eigval :     3089.15  3090.45  3095.07  3097.96  3103.86  3107.18
eigval :     3125.46  3255.69  3503.79
           -------------------------------------------------
          |                Property Printout                |
           -------------------------------------------------

    * Orbital Energies and Occupations

         #    Occupation            Energy/Eh            Energy/eV
      -------------------------------------------------------------
         1        2.0000           -0.7144254             -19.4405
       ...           ...                  ...                  ...
        38        2.0000           -0.4635823             -12.6147
        39        2.0000           -0.4580547             -12.4643
        40        2.0000           -0.4530246             -12.3274
        41        2.0000           -0.4490554             -12.2194
        42        2.0000           -0.4456452             -12.1266
        43        2.0000           -0.4360107             -11.8645
        44        2.0000           -0.4293733             -11.6838
        45        2.0000           -0.4236791             -11.5289
        46        2.0000           -0.4217523             -11.4765
        47        2.0000           -0.4198774             -11.4254
        48        2.0000           -0.4092085             -11.1351
        49        2.0000           -0.3892686             -10.5925
        50        2.0000           -0.3738940             -10.1742 (HOMO)
        51                         -0.3247253              -8.8362 (LUMO)
        52                         -0.2725401              -7.4162
        53                         -0.2431297              -6.6159
        54                         -0.2316598              -6.3038
        55                         -0.1858164              -5.0563
        56                         -0.1836886              -4.9984
        57                         -0.1107299              -3.0131
        58                         -0.0618112              -1.6820
        59                          0.0045182               0.1229
        60                          0.0540870               1.4718
        61                          0.0748787               2.0376
       ...                                ...                  ...
        93                          0.7089743              19.2922
      -------------------------------------------------------------
                  HL-Gap            0.0491688 Eh            1.3379 eV
             Fermi-level           -0.3493096 Eh           -9.5052 eV

     #   Z          covCN         q      C6AA      α(0)
     1   6 C        2.917    -0.025    28.638     8.775
     2   6 C        2.918    -0.024    28.608     8.771
     3   6 C        2.924    -0.020    28.513     8.757
     4   6 C        2.976    -0.012    28.318     8.729
     5   6 C        2.976    -0.017    28.439     8.747
     6   6 C        2.923    -0.018    28.466     8.749
     7   6 C        2.835     0.225    23.283     7.907
     8   8 O        0.858    -0.450    22.714     6.390
     9   6 C        2.972    -0.017    28.440     8.748
    10   6 C        2.925    -0.029    28.733     8.791
    11   6 C        2.912    -0.025    28.620     8.772
    12   6 C        2.919    -0.051    29.268     8.872
    13   6 C        2.898     0.092    25.964     8.355
    14   6 C        2.971    -0.056    29.394     8.893
    15   6 C        2.831     0.211    23.530     7.949
    16   8 O        0.858    -0.483    23.404     6.486
    17   7 N        2.691    -0.140    24.037     7.282
    18   6 C        3.735    -0.025    21.104     6.556
    19   6 C        3.673     0.069    19.649     6.352
    20   8 O        1.655    -0.507    23.035     6.479
    21   1 H        0.926     0.067     2.117     2.275
    22   1 H        0.926     0.068     2.103     2.268
    23   1 H        0.926     0.068     2.102     2.267
    24   1 H        0.926     0.063     2.161     2.299
    25   1 H        0.926     0.059     2.209     2.324
    26   1 H        0.926     0.067     2.118     2.276
    27   1 H        0.926     0.072     2.067     2.248
    28   1 H        0.860     0.227     0.979     1.550
    29   1 H        0.924     0.075     2.034     2.231
    30   1 H        0.924     0.085     1.931     2.173
    31   1 H        0.924     0.038     2.480     2.463
    32   1 H        0.924     0.066     2.133     2.284
    33   1 H        0.805     0.350     0.589     1.205

 Mol. C6AA /au·bohr⁶  :      14297.630834
 Mol. C8AA /au·bohr⁸  :     351994.438912
 Mol. α(0) /au        :        188.222858


Wiberg/Mayer (AO) data.
largest (>0.10) Wiberg bond orders for each atom

 ---------------------------------------------------------------------------
     #   Z sym  total        # sym  WBO       # sym  WBO       # sym  WBO
 ---------------------------------------------------------------------------
     1   6 C    3.980 --     6 C    1.447     2 C    1.422    21 H    0.967
     2   6 C    3.982 --     3 C    1.444     1 C    1.422    22 H    0.967
     3   6 C    3.981 --     2 C    1.444     4 C    1.392    23 H    0.964
     4   6 C    3.988 --     3 C    1.392     5 C    1.326    15 C    1.041
     5   6 C    3.988 --     6 C    1.385     4 C    1.326     7 C    1.050
     6   6 C    3.983 --     1 C    1.447     5 C    1.385    24 H    0.965
     7   6 C    3.924 --     8 O    1.704     5 C    1.050     9 C    1.047
     8   8 O    1.981 --     7 C    1.704
     9   6 C    3.988 --    10 C    1.436    14 C    1.280     7 C    1.047
    10   6 C    3.981 --     9 C    1.436    11 C    1.352    25 H    0.965
    11   6 C    3.985 --    12 C    1.531    10 C    1.352    26 H    0.966
    12   6 C    3.982 --    11 C    1.531    13 C    1.252    27 H    0.960
    13   6 C    3.974 --    17 N    1.316    12 C    1.252    14 C    1.237
    14   6 C    3.978 --     9 C    1.280    13 C    1.237    15 C    1.147
    15   6 C    3.941 --    16 O    1.603    14 C    1.147     4 C    1.041
    16   8 O    1.979 --    15 C    1.603
    17   7 N    3.499 --    13 C    1.316    18 C    1.004    28 H    0.878
    18   6 C    3.965 --    17 N    1.004    19 C    0.976    30 H    0.968
                            29 H    0.960
    19   6 C    3.949 --    20 O    1.001    18 C    0.976    32 H    0.970
                            31 H    0.968
    20   8 O    1.923 --    19 C    1.001    33 H    0.864
    21   1 H    0.995 --     1 C    0.967
    22   1 H    0.994 --     2 C    0.967
    23   1 H    0.995 --     3 C    0.964
    24   1 H    0.996 --     6 C    0.965
    25   1 H    0.996 --    10 C    0.965
    26   1 H    0.994 --    11 C    0.966
    27   1 H    0.994 --    12 C    0.960
    28   1 H    0.948 --    17 N    0.878
    29   1 H    0.994 --    18 C    0.960
    30   1 H    0.992 --    18 C    0.968
    31   1 H    0.998 --    19 C    0.968
    32   1 H    0.995 --    19 C    0.970
    33   1 H    0.878 --    20 O    0.864
 ---------------------------------------------------------------------------

Topologies differ in total number of bonds
Writing topology from bond orders to xtbtopo.mol

molecular dipole:
                 x           y           z       tot (Debye)
 q only:        1.248      -0.358      -0.446
   full:        0.940      -0.248      -0.444       2.717
molecular quadrupole (traceless):
                xx          xy          yy          xz          yz          zz
 q only:       13.527      25.133     -10.324      -7.187      -0.912      -3.203
  q+dip:       13.114      28.251      -7.203      -8.867       0.632      -5.911
   full:       10.101      28.015     -10.472      -7.711      -0.705       0.371

           -------------------------------------------------
          |                Geometry Summary                 |
           -------------------------------------------------

      molecular mass/u    :      267.2799221
   center of mass at/Å    :       -0.0000742       0.0004751      -0.0032707
  moments of inertia/u·Å² :        0.8122212E+03   0.2201218E+04   0.2885966E+04
rotational constants/cm⁻¹ :        0.2075498E-01   0.7658321E-02   0.5841245E-02

 * 30 selected distances

     #   Z          #   Z                                           value/Å
     1   6 C        2   6 C                                       1.3880515
     2   6 C        3   6 C                                       1.3825282
     3   6 C        4   6 C                                       1.3934165
     4   6 C        5   6 C                                       1.3994474
     1   6 C        6   6 C                                       1.3820546
     5   6 C        6   6 C                                       1.3937764
     7   6 C        8   8 O                                       1.2294520
     9   6 C       10   6 C                                       1.3839780
    10   6 C       11   6 C                                       1.3925139
    11   6 C       12   6 C                                       1.3688888
    12   6 C       13   6 C                                       1.4165702
     9   6 C       14   6 C                                       1.4151712
    13   6 C       14   6 C                                       1.4299182
    15   6 C       16   8 O                                       1.2442460
    13   6 C       17   7 N                                       1.3399070
    17   7 N       18   6 C                                       1.4412969 (max)
    19   6 C       20   8 O                                       1.4092092
     1   6 C       21   1 H                                       1.0785733
     2   6 C       22   1 H                                       1.0786866
     3   6 C       23   1 H                                       1.0799586
     6   6 C       24   1 H                                       1.0800039
    10   6 C       25   1 H                                       1.0790919
    11   6 C       26   1 H                                       1.0785980
    12   6 C       27   1 H                                       1.0767787
    17   7 N       28   1 H                                       1.0178200
    18   6 C       29   1 H                                       1.0914699
    18   6 C       30   1 H                                       1.0906673
    19   6 C       31   1 H                                       1.0973307
    19   6 C       32   1 H                                       1.0915418
    20   8 O       33   1 H                                       0.9667231 (min)

 * 6 distinct bonds (by element types)

   Z      Z             #   av. dist./Å        max./Å        min./Å
   1 H    6 C          11     1.0838819     1.0973307     1.0767787
   6 C    6 C          12     1.3955262     1.4299182     1.3688888
   1 H    7 N           1     1.0178200     1.0178200     1.0178200
   6 C    7 N           2     1.3906019     1.4412969     1.3399070
   1 H    8 O           1     0.9667231     0.9667231     0.9667231
   6 C    8 O           3     1.2943024     1.4092092     1.2294520

           -------------------------------------------------
          |               Frequency Printout                |
           -------------------------------------------------
 projected vibrational frequencies (cm⁻¹)
eigval :       -0.00    -0.00    -0.00    -0.00     0.00     0.00
eigval :       24.82    34.03    48.13    68.22    94.56   109.06
eigval :      149.28   168.62   186.21   219.34   261.72   278.93
eigval :      327.57   334.65   362.49   378.87   384.93   395.03
eigval :      413.06   448.04   458.21   463.82   495.43   509.76
eigval :      572.05   603.11   615.57   629.01   658.93   670.27
eigval :      675.66   693.03   761.73   764.96   781.14   804.65
eigval :      850.54   882.55   888.27   894.44   895.84   920.14
eigval :      923.31   928.64   930.72  1017.41  1043.57  1079.41
eigval :     1085.28  1093.38  1113.37  1128.17  1154.61  1170.14
eigval :     1171.64  1188.08  1208.23  1214.84  1233.84  1260.32
eigval :     1267.35  1280.20  1296.02  1308.93  1331.99  1338.60
eigval :     1354.92  1382.08  1417.45  1431.25  1451.08  1454.99
eigval :     1458.22  1493.03  1516.82  1555.52  1570.51  1573.75
eigval :     1587.18  1618.07  2898.05  2975.23  2988.61  3003.48
eigval :     3089.15  3090.45  3095.07  3097.96  3103.86  3107.18
eigval :     3125.46  3255.69  3503.79
 reduced masses (amu)
   1: 12.61   2: 12.23   3: 12.22   4: 12.20   5: 11.67   6: 12.17   7: 12.72   8: 13.58
   9: 13.39  10: 11.85  11:  9.59  12: 11.67  13: 11.98  14: 10.65  15: 10.24  16: 10.67
  17: 11.34  18: 11.52  19: 13.08  20:  4.48  21: 11.62  22:  9.68  23: 10.73  24:  9.57
  25: 14.88  26:  9.90  27: 10.23  28: 12.58  29: 10.51  30: 10.64  31: 11.55  32: 11.32
  33:  8.23  34:  4.58  35: 11.57  36: 10.36  37: 11.70  38: 10.36  39: 10.76  40: 11.50
  41:  4.63  42:  5.36  43:  9.92  44:  4.18  45:  9.69  46:  3.79  47:  8.85  48:  8.56
  49:  3.61  50:  4.12  51:  3.51  52: 10.09  53:  8.92  54:  9.92  55:  6.03  56:  9.18
  57:  6.78  58:  6.38  59:  4.45  60:  2.98  61:  4.60  62:  2.99  63:  5.09  64:  5.54
  65:  4.25  66:  6.42  67:  7.09  68:  9.16  69:  3.41  70:  3.74  71:  3.25  72: 12.00
  73: 10.85  74: 10.15  75:  9.67  76:  9.59  77:  2.69  78:  1.88  79:  9.44  80: 11.12
  81: 11.27  82: 12.48  83: 11.74  84: 11.86  85: 11.94  86: 13.01  87:  1.74  88:  1.76
  89:  1.71  90:  1.71  91:  1.77  92:  1.80  93:  1.78  94:  1.85  95:  1.87  96:  1.92
  97:  1.85  98:  1.87  99:  1.88
 IR intensities (km·mol⁻¹)
   1:  0.11   2:  0.06   3:  0.01   4:  0.05   5:  0.11   6:  0.03   7:  6.21   8:  1.99
   9:  6.17  10:  1.17  11:  3.16  12:  1.10  13:  5.39  14:  1.25  15:  2.89  16:  2.81
  17:  2.35  18:  3.82  19:  6.50  20:172.92  21: 13.84  22:  2.90  23:  4.94  24: 39.96
  25: 48.73  26:  0.39  27:  3.37  28:  2.33  29:  3.02  30:  1.92  31:  6.70  32:  2.34
  33: 21.41  34: 85.00  35:  9.06  36: 19.62  37:  1.51  38: 65.53  39:  0.06  40:  0.47
  41:  0.45  42: 19.70  43: 27.83  44:  0.76  45: 13.09  46:  0.69  47: 22.02  48: 22.00
  49:  0.07  50:  0.06  51:  0.02  52: 73.80  53: 56.76  54: 96.47  55:  0.48  56: 14.61
  57:  4.47  58: 59.23  59: 57.21  60:  0.77  61:  7.77  62: 28.30  63:  8.12  64: 25.99
  65:  1.38  66:103.20  67: 14.31  68:******  69: 50.90  70:106.62  71: 35.69  72: 24.09
  73: 11.68  74: 59.83  75: 38.94  76:245.44  77: 39.85  78:  7.14  79: 19.64  80:512.80
  81:192.43  82:440.23  83:389.06  84: 29.90  85:551.13  86:408.44  87: 69.89  88: 28.64
  89: 56.58  90: 28.34  91:  8.37  92:  0.62  93: 14.24  94: 45.52  95: 48.03  96: 82.82
  97: 25.35  98:177.32  99: 66.95
 Raman intensities (Ä⁴*amu⁻¹)
   1:  0.00   2:  0.00   3:  0.00   4:  0.00   5:  0.00   6:  0.00   7:  0.00   8:  0.00
   9:  0.00  10:  0.00  11:  0.00  12:  0.00  13:  0.00  14:  0.00  15:  0.00  16:  0.00
  17:  0.00  18:  0.00  19:  0.00  20:  0.00  21:  0.00  22:  0.00  23:  0.00  24:  0.00
  25:  0.00  26:  0.00  27:  0.00  28:  0.00  29:  0.00  30:  0.00  31:  0.00  32:  0.00
  33:  0.00  34:  0.00  35:  0.00  36:  0.00  37:  0.00  38:  0.00  39:  0.00  40:  0.00
  41:  0.00  42:  0.00  43:  0.00  44:  0.00  45:  0.00  46:  0.00  47:  0.00  48:  0.00
  49:  0.00  50:  0.00  51:  0.00  52:  0.00  53:  0.00  54:  0.00  55:  0.00  56:  0.00
  57:  0.00  58:  0.00  59:  0.00  60:  0.00  61:  0.00  62:  0.00  63:  0.00  64:  0.00
  65:  0.00  66:  0.00  67:  0.00  68:  0.00  69:  0.00  70:  0.00  71:  0.00  72:  0.00
  73:  0.00  74:  0.00  75:  0.00  76:  0.00  77:  0.00  78:  0.00  79:  0.00  80:  0.00
  81:  0.00  82:  0.00  83:  0.00  84:  0.00  85:  0.00  86:  0.00  87:  0.00  88:  0.00
  89:  0.00  90:  0.00  91:  0.00  92:  0.00  93:  0.00  94:  0.00  95:  0.00  96:  0.00
  97:  0.00  98:  0.00  99:  0.00
 output can be read by thermo (or use thermo option).
 writing <g98.out> molden fake output.
 recommended (thermochemical) frequency scaling factor: 1.0
           -------------------------------------------------
          |             Thermodynamic Functions             |
           -------------------------------------------------

Molecule has no symmetry elements
It seems to be the C1 point group
c1  symmetry found (for desy threshold:  0.10E+00) used in thermo

          ...................................................
          :                      SETUP                      :
          :.................................................:
          :  # frequencies                          93      :
          :  # imaginary freq.                       0      :
          :  linear?                             false      :
          :  only rotor calc.                    false      :
          :  symmetry                               c1      :
          :  rotational number                       1      :
          :  scaling factor                  1.0000000      :
          :  rotor cutoff                    0.0000000 cm⁻¹ :
          :  imag. cutoff                 -100.0000000 cm⁻¹ :
          :.................................................:

    mode    ω/cm⁻¹     T·S(HO)/kcal·mol⁻¹    T·S(FR)/kcal·mol⁻¹   T·S(vib)
   ------------------------------------------------------------------------
       1     24.82    -1.85011 (100.00%)    -1.26389 (  0.00%)    -1.85011
       2     34.03    -1.66344 (100.00%)    -1.17043 (  0.00%)    -1.66344
       3     48.13    -1.45879 (100.00%)    -1.06779 (  0.00%)    -1.45879
       4     68.22    -1.25343 (100.00%)    -0.96446 (  0.00%)    -1.25343
       5     94.56    -1.06242 (100.00%)    -0.86774 (  0.00%)    -1.06242
       6    109.06    -0.97958 (100.00%)    -0.82549 (  0.00%)    -0.97958
       7    149.28    -0.79945 (100.00%)    -0.73250 (  0.00%)    -0.79945
       8    168.62    -0.73072 (100.00%)    -0.69642 (  0.00%)    -0.73072
       9    186.21    -0.67539 (100.00%)    -0.66703 (  0.00%)    -0.67539
      10    219.34    -0.58572 (100.00%)    -0.61852 (  0.00%)    -0.58572
      11    261.72    -0.49203 (100.00%)    -0.56619 (  0.00%)    -0.49203
      12    278.93    -0.45921 (100.00%)    -0.54731 (  0.00%)    -0.45921
   ------------------------------------------------------------------------

   temp. (K)  partition function   enthalpy   heat capacity  entropy
                                   cal/mol     cal/K/mol   cal/K/mol   J/K/mol
 298.15  VIB  0.141E+07             8885.077     60.552     57.936
         ROT  0.549E+07              888.752      2.981     33.819
         INT  0.773E+13             9773.829     63.533     91.755
         TR   0.423E+28             1481.254      4.968     42.629
         TOT                       11255.0831    68.5009   134.3846   562.2653

       T/K    H(0)-H(T)+PV         H(T)/Eh          T*S/Eh         G(T)/Eh
   ------------------------------------------------------------------------
    298.15    0.179361E-01    0.266584E+00    0.638505E-01    0.202733E+00
   ------------------------------------------------------------------------

         :::::::::::::::::::::::::::::::::::::::::::::::::::::
         ::                  THERMODYNAMIC                  ::
         :::::::::::::::::::::::::::::::::::::::::::::::::::::
         :: total free energy         -55.817428344207 Eh   ::
         ::.................................................::
         :: total energy              -56.020161394284 Eh   ::
         :: zero point energy           0.248647407085 Eh   ::
         :: G(RRHO) w/o ZPVE           -0.045914357008 Eh   ::
         :: G(RRHO) contrib.            0.202733050077 Eh   ::
         :::::::::::::::::::::::::::::::::::::::::::::::::::::

optimized geometry written to: xtbopt.coord


           -------------------------------------------------
          | TOTAL ENERGY              -56.020161394284 Eh   |
          | TOTAL ENTHALPY            -55.753577870628 Eh   |
          | TOTAL FREE ENERGY         -55.817428344207 Eh   |
          | GRADIENT NORM               0.000024334263 Eh/α |
          | HOMO-LUMO GAP               1.337949809975 eV   |
           -------------------------------------------------

------------------------------------------------------------------------
 * finished run on 2025/04/11 at 18:22:01.838     
------------------------------------------------------------------------
 total:
 * wall-time:     0 d,  0 h,  0 min,  8.056 sec
 *  cpu-time:     0 d,  0 h,  0 min,  7.921 sec
 * ratio c/w:     0.983 speedup
 SCF:
 * wall-time:     0 d,  0 h,  0 min,  0.060 sec
 *  cpu-time:     0 d,  0 h,  0 min,  0.049 sec
 * ratio c/w:     0.807 speedup
 ANC optimizer:
 * wall-time:     0 d,  0 h,  0 min,  1.326 sec
 *  cpu-time:     0 d,  0 h,  0 min,  1.305 sec
 * ratio c/w:     0.984 speedup
 analytical hessian:
 * wall-time:     0 d,  0 h,  0 min,  6.578 sec
 *  cpu-time:     0 d,  0 h,  0 min,  6.546 sec
 * ratio c/w:     0.995 speedup

