      -----------------------------------------------------------      
     |                   =====================                   |     
     |                           x T B                           |     
     |                   =====================                   |     
     |                         S. Grimme                         |     
     |          Mulliken Center for Theoretical Chemistry        |     
     |                    University of Bonn                     |     
      -----------------------------------------------------------      

   * xtb version 6.7.1 (edcfbbe) compiled by 'albert@albert-system' on 2024-07-22

   xtb is free software: you can redistribute it and/or modify it under
   the terms of the GNU Lesser General Public License as published by
   the Free Software Foundation, either version 3 of the License, or
   (at your option) any later version.
   
   xtb is distributed in the hope that it will be useful,
   but WITHOUT ANY WARRANTY; without even the implied warranty of
   MERCHANTABILITY or FITNESS FOR A PARTICULAR PURPOSE.  See the
   GNU Lesser General Public License for more details.
   
   Cite this work as:
   * C. Bannwarth, E. Caldeweyher, S. Ehlert, A. Hansen, P. Pracht,
     J. Seibert, S. Spicher, S. Grimme, WIREs Comput. Mol. Sci., 2020, 11,
     e01493. DOI: 10.1002/wcms.1493
   
   for GFN2-xTB:
   * C. Bannwarth, S. Ehlert and S. Grimme., J. Chem. Theory Comput., 2019,
     15, 1652-1671. DOI: 10.1021/acs.jctc.8b01176
   for GFN1-xTB:
   * S. Grimme, C. Bannwarth, P. Shushkov, J. Chem. Theory Comput., 2017,
     13, 1989-2009. DOI: 10.1021/acs.jctc.7b00118
   for GFN0-xTB:
   * P. Pracht, E. Caldeweyher, S. Ehlert, S. Grimme, ChemRxiv, 2019, preprint.
     DOI: 10.26434/chemrxiv.8326202.v1
   for GFN-FF:
   * S. Spicher and S. Grimme, Angew. Chem. Int. Ed., 2020, 59, 15665-15673.
     DOI: 10.1002/anie.202004239
   
   for ALPB and GBSA implicit solvation:
   * S. Ehlert, M. Stahn, S. Spicher, S. Grimme, J. Chem. Theory Comput.,
     2021, 17, 4250-4261. DOI: 10.1021/acs.jctc.1c00471
   
   for ddCOSMO and CPCM-X implicit solvation:
   * M. Stahn, S. Ehlert, S. Grimme, J. Phys. Chem. A,
     2023, XX, XXXX-XXXX. DOI: 10.1021/acs.jpca.3c04382
   
   for DFT-D4:
   * E. Caldeweyher, C. Bannwarth and S. Grimme, J. Chem. Phys., 2017,
     147, 034112. DOI: 10.1063/1.4993215
   * E. Caldeweyher, S. Ehlert, A. Hansen, H. Neugebauer, S. Spicher,
     C. Bannwarth and S. Grimme, J. Chem. Phys., 2019, 150, 154122.
     DOI: 10.1063/1.5090222
   * E. Caldeweyher, J.-M. Mewes, S. Ehlert and S. Grimme, Phys. Chem. Chem. Phys.
     2020, 22, 8499-8512. DOI: 10.1039/D0CP00502A
   
   for sTDA-xTB:
   * S. Grimme and C. Bannwarth, J. Chem. Phys., 2016, 145, 054103.
     DOI: 10.1063/1.4959605
   
   in the mass-spec context:
   * V. Asgeirsson, C. Bauer and S. Grimme, Chem. Sci., 2017, 8, 4879.
     DOI: 10.1039/c7sc00601b
   * J. Koopman and S. Grimme, ACS Omega 2019, 4, 12, 15120-15133.
     DOI: 10.1021/acsomega.9b02011
   
   for metadynamics refer to:
   * S. Grimme, J. Chem. Theory Comput., 2019, 155, 2847-2862
     DOI: 10.1021/acs.jctc.9b00143
   
   for SPH calculations refer to:
   * S. Spicher and S. Grimme, J. Chem. Theory Comput., 2021, 17, 1701-1714
     DOI: 10.1021/acs.jctc.0c01306
   
   for ONIOM refer to:
   * C. Plett, A. Katbashev, S. Ehlert, S. Grimme, M. Bursch,
     Phys. Chem. Chem. Phys., 2023, 25, 17860-17868. DOI: 10.1039/D3CP02178E
   
   for DIPRO refer to:
   * J. Kohn, N. Gildemeister, S. Grimme, D. Fazzi, A. Hansen,
     J. Chem. Phys., 2023, just accepted.
   
   for PTB refer to:
   * S. Grimme, M. Mueller, A. Hansen, J. Chem. Phys., 2023, 158, 124111.
     DOI: 10.1063/5.0137838
   
   with help from (in alphabetical order)
   P. Atkinson, C. Bannwarth, F. Bohle, G. Brandenburg, E. Caldeweyher
   M. Checinski, S. Dohm, S. Ehlert, S. Ehrlich, I. Gerasimov, C. Hölzer
   A. Katbashev, J. Kohn, J. Koopman, C. Lavigne, S. Lehtola, F. März, M. Müller,
   F. Musil, H. Neugebauer, J. Pisarek, C. Plett, P. Pracht, F. Pultar,
   J. Seibert, P. Shushkov, S. Spicher, M. Stahn, M. Steiner, T. Strunk,
   J. Stückrath, T. Rose, and J. Unsleber
   
 * started run on 2025/04/11 at 15:55:28.681     
   ID    Z sym.   atoms
    1    6 C      1, 3, 5, 7
    2    8 O      2, 4, 6
    3    1 H      8-17

           -------------------------------------------------
          |                Calculation Setup                |
           -------------------------------------------------

          program call               : /srv/scratch/z5358697/.xtb/bin/xtb solv.coord --gfn2 --sp --chrg 0 --norestart --parallel 1 --alpb water reference -I xtb_sp-xcontrol-inp
          hostname                   : k063
          coordinate file            : solv.coord
          omp threads                :                     1


           -------------------------------------------------
          |                 G F N 2 - x T B                 |
           -------------------------------------------------

        Reference                      10.1021/acs.jctc.8b01176
      * Hamiltonian:
        H0-scaling (s, p, d)           1.850000    2.230000    2.230000
        zeta-weighting                 0.500000
      * Dispersion:
        s8                             2.700000
        a1                             0.520000
        a2                             5.000000
        s9                             5.000000
      * Repulsion:
        kExp                           1.500000    1.000000
        rExp                           1.000000
      * Coulomb:
        alpha                          2.000000
        third order                    shell-resolved
        anisotropic                    true
        a3                             3.000000
        a5                             4.000000
        cn-shift                       1.200000
        cn-exp                         4.000000
        max-rad                        5.000000

      * Solvation model:               ALPB
        Solvent                        water
        Parameter file                 internal GFN2-xTB/ALPB
        Dielectric constant                8.0200E+01
        Reference state                gsolv=reference [X=1]
        Free energy shift                  2.8945E-03 Eh       1.8164E+00 kcal/mol
        Temperature                        2.9815E+02 K
        Density                            1.0000E+00 kg/L
        Solvent mass                       1.8000E+01 g/mol
        Interaction kernel             P16
        Born radius scaling (c1)           1.4744E+00
        Born radii integrator          GBOBC
        Born offset                        0.0000E+00 a0       0.0000E+00 AA
        H-bond correction              true
        Ion screening                  false
        Surface tension                    1.0000E-05 Eh       1.5569E+01 dyn/cm
        Grid points                               974 per atom

          ...................................................
          :                      SETUP                      :
          :.................................................:
          :  # basis functions                  38          :
          :  # atomic orbitals                  38          :
          :  # shells                           24          :
          :  # electrons                        44          :
          :  max. iterations                   250          :
          :  Hamiltonian                  GFN2-xTB          :
          :  restarted?                      false          :
          :  GBSA solvation                   true          :
          :  PC potential                    false          :
          :  electronic temp.          300.0000000     K    :
          :  accuracy                    1.0000000          :
          :  -> integral cutoff          0.2500000E+02      :
          :  -> integral neglect         0.1000000E-07      :
          :  -> SCF convergence          0.1000000E-05 Eh   :
          :  -> wf. convergence          0.1000000E-03 e    :
          :  Broyden damping             0.4000000          :
          :  net charge                          0          :
          :  unpaired electrons                  0          :
          ...................................................

 iter      E             dE          RMSdq      gap      omega  full diag
   1    -26.0141995 -0.260142E+02  0.490E+00   11.51       0.0  T
   2    -26.0670163 -0.528168E-01  0.248E+00   11.03       1.0  T
   3    -26.0679330 -0.916749E-03  0.888E-01   11.10       1.0  T
   4    -26.0682598 -0.326733E-03  0.148E-01   11.14       1.0  T
   5    -26.0683008 -0.410541E-04  0.814E-02   11.16       1.0  T
   6    -26.0683048 -0.394033E-05  0.989E-03   11.17       2.5  T
   7    -26.0683050 -0.240286E-06  0.251E-03   11.17       9.7  T
   8    -26.0683050 -0.615110E-08  0.117E-03   11.17      20.8  T
   9    -26.0683050 -0.107421E-08  0.151E-04   11.17     161.0  T
  10    -26.0683050 -0.447216E-10  0.746E-05   11.17     325.1  T

   *** convergence criteria satisfied after 10 iterations ***

         #    Occupation            Energy/Eh            Energy/eV
      -------------------------------------------------------------
         1        2.0000           -0.7392471             -20.1159
       ...           ...                  ...                  ...
        16        2.0000           -0.4969816             -13.5236
        17        2.0000           -0.4781522             -13.0112
        18        2.0000           -0.4744190             -12.9096
        19        2.0000           -0.4588698             -12.4865
        20        2.0000           -0.4360613             -11.8658
        21        2.0000           -0.4320367             -11.7563
        22        2.0000           -0.4320053             -11.7555 (HOMO)
        23                         -0.0216920              -0.5903 (LUMO)
        24                          0.0161343               0.4390
        25                          0.0719497               1.9579
        26                          0.0975282               2.6539
        27                          0.1042422               2.8366
       ...                                ...                  ...
        38                          0.2952395               8.0339
      -------------------------------------------------------------
                  HL-Gap            0.4103133 Eh           11.1652 eV
             Fermi-level           -0.2268486 Eh           -6.1729 eV

 SCC (total)                   0 d,  0 h,  0 min,  0.013 sec
 SCC setup                      ...        0 min,  0.001 sec (  9.825%)
 Dispersion                     ...        0 min,  0.000 sec (  0.743%)
 classical contributions        ...        0 min,  0.000 sec (  0.175%)
 integral evaluation            ...        0 min,  0.002 sec ( 12.863%)
 iterations                     ...        0 min,  0.006 sec ( 43.936%)
 molecular gradient             ...        0 min,  0.004 sec ( 31.137%)
 printout                       ...        0 min,  0.000 sec (  1.186%)

         :::::::::::::::::::::::::::::::::::::::::::::::::::::
         ::                     SUMMARY                     ::
         :::::::::::::::::::::::::::::::::::::::::::::::::::::
         :: total energy             -25.857028733416 Eh    ::
         :: total w/o Gsasa/hb       -25.859024864098 Eh    ::
         :: gradient norm              0.000038943692 Eh/a0 ::
         :: HOMO-LUMO gap             11.165192204486 eV    ::
         ::.................................................::
         :: SCC energy               -26.068276574069 Eh    ::
         :: -> isotropic ES            0.075338574563 Eh    ::
         :: -> anisotropic ES         -0.007199962041 Eh    ::
         :: -> anisotropic XC         -0.000053739340 Eh    ::
         :: -> dispersion             -0.009503368599 Eh    ::
         :: -> Gsolv                  -0.008290406775 Eh    ::
         ::    -> Gelec               -0.010286537457 Eh    ::
         ::    -> Gsasa                0.001284734041 Eh    ::
         ::    -> Ghb                 -0.002183152520 Eh    ::
         ::    -> Gshift               0.002894549160 Eh    ::
         :: repulsion energy           0.211247840653 Eh    ::
         :: add. restraining           0.000000000000 Eh    ::
         :: total charge               0.000000000000 e     ::
         :::::::::::::::::::::::::::::::::::::::::::::::::::::

           -------------------------------------------------
          |                Property Printout                |
           -------------------------------------------------

    * Orbital Energies and Occupations

         #    Occupation            Energy/Eh            Energy/eV
      -------------------------------------------------------------
         1        2.0000           -0.7392471             -20.1159
       ...           ...                  ...                  ...
        10        2.0000           -0.5733310             -15.6011
        11        2.0000           -0.5459897             -14.8571
        12        2.0000           -0.5409383             -14.7197
        13        2.0000           -0.5288409             -14.3905
        14        2.0000           -0.5258193             -14.3083
        15        2.0000           -0.5251657             -14.2905
        16        2.0000           -0.4969816             -13.5236
        17        2.0000           -0.4781522             -13.0112
        18        2.0000           -0.4744190             -12.9096
        19        2.0000           -0.4588698             -12.4865
        20        2.0000           -0.4360613             -11.8658
        21        2.0000           -0.4320367             -11.7563
        22        2.0000           -0.4320053             -11.7555 (HOMO)
        23                         -0.0216920              -0.5903 (LUMO)
        24                          0.0161343               0.4390
        25                          0.0719497               1.9579
        26                          0.0975282               2.6539
        27                          0.1042422               2.8366
        28                          0.1103283               3.0022
        29                          0.1363464               3.7102
        30                          0.1453983               3.9565
        31                          0.1517204               4.1285
        32                          0.1820494               4.9538
        33                          0.1971184               5.3639
       ...                                ...                  ...
        38                          0.2952395               8.0339
      -------------------------------------------------------------
                  HL-Gap            0.4103133 Eh           11.1652 eV
             Fermi-level           -0.2268486 Eh           -6.1729 eV

     #   Z          covCN         q      C6AA      α(0)
     1   6 C        3.642     0.028    20.458     6.503
     2   8 O        1.699    -0.386    20.559     6.122
     3   6 C        3.556     0.397    15.595     5.765
     4   8 O        1.701    -0.361    20.095     6.052
     5   6 C        3.651     0.019    20.565     6.513
     6   8 O        1.701    -0.361    20.096     6.052
     7   6 C        3.651     0.019    20.564     6.513
     8   1 H        0.925     0.070     2.089     2.260
     9   1 H        0.925     0.063     2.159     2.298
    10   1 H        0.925     0.070     2.090     2.261
    11   1 H        0.921    -0.000     3.064     2.737
    12   1 H        0.924     0.062     2.175     2.306
    13   1 H        0.925     0.101     1.773     2.082
    14   1 H        0.924     0.058     2.226     2.333
    15   1 H        0.924     0.058     2.227     2.334
    16   1 H        0.925     0.101     1.773     2.083
    17   1 H        0.924     0.062     2.174     2.306

 Mol. C6AA /au·bohr⁶  :       2081.255622
 Mol. C8AA /au·bohr⁸  :      42277.807233
 Mol. α(0) /au        :         66.520841


Wiberg/Mayer (AO) data.
largest (>0.10) Wiberg bond orders for each atom

 ---------------------------------------------------------------------------
     #   Z sym  total        # sym  WBO       # sym  WBO       # sym  WBO
 ---------------------------------------------------------------------------
     1   6 C    3.919 --     9 H    0.981    10 H    0.981     8 H    0.981
                             2 O    0.950
     2   8 O    2.055 --     3 C    0.972     1 C    0.950
     3   6 C    3.925 --     4 O    0.986     6 O    0.986     2 O    0.972
                            11 H    0.931
     4   8 O    2.068 --     3 C    0.986     5 C    0.953
     5   6 C    3.910 --    12 H    0.980    14 H    0.978    13 H    0.976
                             4 O    0.953
     6   8 O    2.067 --     3 C    0.986     7 C    0.953
     7   6 C    3.910 --    17 H    0.980    15 H    0.978    16 H    0.976
                             6 O    0.953
     8   1 H    0.995 --     1 C    0.981
     9   1 H    0.996 --     1 C    0.981
    10   1 H    0.995 --     1 C    0.981
    11   1 H    1.000 --     3 C    0.931
    12   1 H    0.996 --     5 C    0.980
    13   1 H    0.989 --     5 C    0.976
    14   1 H    0.997 --     5 C    0.978
    15   1 H    0.997 --     7 C    0.978
    16   1 H    0.989 --     7 C    0.976
    17   1 H    0.996 --     7 C    0.980
 ---------------------------------------------------------------------------

Topologies differ in total number of bonds
Writing topology from bond orders to xtbtopo.mol

molecular dipole:
                 x           y           z       tot (Debye)
 q only:        0.152      -0.205      -0.314
   full:        0.144      -0.176      -0.490       1.373
molecular quadrupole (traceless):
                xx          xy          yy          xz          yz          zz
 q only:        5.093       4.657       1.313       3.065      -3.396      -6.406
  q+dip:        3.804       3.070       1.563       3.307      -4.090      -5.367
   full:        4.252       3.739       1.416       3.454      -4.206      -5.668


           -------------------------------------------------
          | TOTAL ENERGY              -25.857028733416 Eh   |
          | GRADIENT NORM               0.000038943692 Eh/α |
          | HOMO-LUMO GAP              11.165192204486 eV   |
           -------------------------------------------------

------------------------------------------------------------------------
 * finished run on 2025/04/11 at 15:55:28.743     
------------------------------------------------------------------------
 total:
 * wall-time:     0 d,  0 h,  0 min,  0.060 sec
 *  cpu-time:     0 d,  0 h,  0 min,  0.023 sec
 * ratio c/w:     0.388 speedup
 SCF:
 * wall-time:     0 d,  0 h,  0 min,  0.013 sec
 *  cpu-time:     0 d,  0 h,  0 min,  0.013 sec
 * ratio c/w:     0.990 speedup

