      -----------------------------------------------------------      
     |                   =====================                   |     
     |                           x T B                           |     
     |                   =====================                   |     
     |                         S. Grimme                         |     
     |          Mulliken Center for Theoretical Chemistry        |     
     |                    University of Bonn                     |     
      -----------------------------------------------------------      

   * xtb version 6.7.1 (edcfbbe) compiled by 'albert@albert-system' on 2024-07-22

   xtb is free software: you can redistribute it and/or modify it under
   the terms of the GNU Lesser General Public License as published by
   the Free Software Foundation, either version 3 of the License, or
   (at your option) any later version.
   
   xtb is distributed in the hope that it will be useful,
   but WITHOUT ANY WARRANTY; without even the implied warranty of
   MERCHANTABILITY or FITNESS FOR A PARTICULAR PURPOSE.  See the
   GNU Lesser General Public License for more details.
   
   Cite this work as:
   * C. Bannwarth, E. Caldeweyher, S. Ehlert, A. Hansen, P. Pracht,
     J. Seibert, S. Spicher, S. Grimme, WIREs Comput. Mol. Sci., 2020, 11,
     e01493. DOI: 10.1002/wcms.1493
   
   for GFN2-xTB:
   * C. Bannwarth, S. Ehlert and S. Grimme., J. Chem. Theory Comput., 2019,
     15, 1652-1671. DOI: 10.1021/acs.jctc.8b01176
   for GFN1-xTB:
   * S. Grimme, C. Bannwarth, P. Shushkov, J. Chem. Theory Comput., 2017,
     13, 1989-2009. DOI: 10.1021/acs.jctc.7b00118
   for GFN0-xTB:
   * P. Pracht, E. Caldeweyher, S. Ehlert, S. Grimme, ChemRxiv, 2019, preprint.
     DOI: 10.26434/chemrxiv.8326202.v1
   for GFN-FF:
   * S. Spicher and S. Grimme, Angew. Chem. Int. Ed., 2020, 59, 15665-15673.
     DOI: 10.1002/anie.202004239
   
   for ALPB and GBSA implicit solvation:
   * S. Ehlert, M. Stahn, S. Spicher, S. Grimme, J. Chem. Theory Comput.,
     2021, 17, 4250-4261. DOI: 10.1021/acs.jctc.1c00471
   
   for ddCOSMO and CPCM-X implicit solvation:
   * M. Stahn, S. Ehlert, S. Grimme, J. Phys. Chem. A,
     2023, XX, XXXX-XXXX. DOI: 10.1021/acs.jpca.3c04382
   
   for DFT-D4:
   * E. Caldeweyher, C. Bannwarth and S. Grimme, J. Chem. Phys., 2017,
     147, 034112. DOI: 10.1063/1.4993215
   * E. Caldeweyher, S. Ehlert, A. Hansen, H. Neugebauer, S. Spicher,
     C. Bannwarth and S. Grimme, J. Chem. Phys., 2019, 150, 154122.
     DOI: 10.1063/1.5090222
   * E. Caldeweyher, J.-M. Mewes, S. Ehlert and S. Grimme, Phys. Chem. Chem. Phys.
     2020, 22, 8499-8512. DOI: 10.1039/D0CP00502A
   
   for sTDA-xTB:
   * S. Grimme and C. Bannwarth, J. Chem. Phys., 2016, 145, 054103.
     DOI: 10.1063/1.4959605
   
   in the mass-spec context:
   * V. Asgeirsson, C. Bauer and S. Grimme, Chem. Sci., 2017, 8, 4879.
     DOI: 10.1039/c7sc00601b
   * J. Koopman and S. Grimme, ACS Omega 2019, 4, 12, 15120-15133.
     DOI: 10.1021/acsomega.9b02011
   
   for metadynamics refer to:
   * S. Grimme, J. Chem. Theory Comput., 2019, 155, 2847-2862
     DOI: 10.1021/acs.jctc.9b00143
   
   for SPH calculations refer to:
   * S. Spicher and S. Grimme, J. Chem. Theory Comput., 2021, 17, 1701-1714
     DOI: 10.1021/acs.jctc.0c01306
   
   for ONIOM refer to:
   * C. Plett, A. Katbashev, S. Ehlert, S. Grimme, M. Bursch,
     Phys. Chem. Chem. Phys., 2023, 25, 17860-17868. DOI: 10.1039/D3CP02178E
   
   for DIPRO refer to:
   * J. Kohn, N. Gildemeister, S. Grimme, D. Fazzi, A. Hansen,
     J. Chem. Phys., 2023, just accepted.
   
   for PTB refer to:
   * S. Grimme, M. Mueller, A. Hansen, J. Chem. Phys., 2023, 158, 124111.
     DOI: 10.1063/5.0137838
   
   with help from (in alphabetical order)
   P. Atkinson, C. Bannwarth, F. Bohle, G. Brandenburg, E. Caldeweyher
   M. Checinski, S. Dohm, S. Ehlert, S. Ehrlich, I. Gerasimov, C. Hölzer
   A. Katbashev, J. Kohn, J. Koopman, C. Lavigne, S. Lehtola, F. März, M. Müller,
   F. Musil, H. Neugebauer, J. Pisarek, C. Plett, P. Pracht, F. Pultar,
   J. Seibert, P. Shushkov, S. Spicher, M. Stahn, M. Steiner, T. Strunk,
   J. Stückrath, T. Rose, and J. Unsleber
   
 * started run on 2025/04/11 at 16:46:08.921     
   ID    Z sym.   atoms
    1    6 C      1-4, 7, 8
    2    8 O      5, 6
    3    1 H      9-20

           -------------------------------------------------
          |                Calculation Setup                |
           -------------------------------------------------

          program call               : /srv/scratch/z5358697/.xtb/bin/xtb xtb_opt.coord --opt normal --orca -I xtb_opt-xcontrol-inp
          hostname                   : k061
          coordinate file            : xtb_opt.coord
          omp threads                :                    16

           -------------------------------------------------
          |                   Orca driver                   |
           -------------------------------------------------
orca executable           : /apps/z_install_tree/linux-rocky8-ivybridge/gcc-12.2.0/orca-6.0.0-srtngmq3qlimg2qxbl6avaaiffipurdx/bin/orca
orca input file           : xtb_opt.inp
orca input line           : 
orca parallel             : true
orca number of threads    : 16
                         * ORCA takes the control...
  ------------------------------------------------------------------------

                                 *****************
                                 * O   R   C   A *
                                 *****************

                                            #,                                       
                                            ###                                      
                                            ####                                     
                                            #####                                    
                                            ######                                   
                                           ########,                                 
                                     ,,################,,,,,                         
                               ,,#################################,,                 
                          ,,##########################################,,             
                       ,#########################################, ''#####,          
                    ,#############################################,,   '####,        
                  ,##################################################,,,,####,       
                ,###########''''           ''''###############################       
              ,#####''   ,,,,##########,,,,          '''####'''          '####       
            ,##' ,,,,###########################,,,                        '##       
           ' ,,###''''                  '''############,,,                           
         ,,##''                                '''############,,,,        ,,,,,,###''
      ,#''                                            '''#######################'''  
     '                                                          ''''####''''         
             ,#######,   #######,   ,#######,      ##                                
            ,#'     '#,  ##    ##  ,#'     '#,    #''#        ,####,   ,####,        
            ##       ##  ##   ,#'  ##            #'  '#       #'       #'  '#        
            ##       ##  #######   ##           ,######,      #####,   #    #        
            '#,     ,#'  ##    ##  '#,     ,#' ,#      #,     #,   #   #,  ,#        
             '#######'   ##     ##  '#######'  #'      '#     '####' # '####'        



                #########################################################
                #                        -***-                          #
                #          Department of theory and spectroscopy        #
                #                                                       #
                #                      Frank Neese                      #
                #                                                       #
                #     Directorship, Architecture, Infrastructure        #
                #                    SHARK, DRIVERS                     #
                #        Core code/Algorithms in most modules           #
                #                                                       #
                #        Max Planck Institute fuer Kohlenforschung      #
                #                Kaiser Wilhelm Platz 1                 #
                #                 D-45470 Muelheim/Ruhr                 #
                #                      Germany                          #
                #                                                       #
                #                  All rights reserved                  #
                #                        -***-                          #
                #########################################################


                         Program Version 6.0.0  -   RELEASE  -


 With contributions from (in alphabetic order):
   Daniel Aravena         : Magnetic Suceptibility
   Michael Atanasov       : Ab Initio Ligand Field Theory (pilot matlab implementation)
   Alexander A. Auer      : GIAO ZORA, VPT2 properties, NMR spectrum
   Ute Becker             : All parallelization in ORCA, NUMFREQ, NUMCALC
   Giovanni Bistoni       : ED, misc. LED, open-shell LED, HFLD
   Martin Brehm           : Molecular dynamics
   Dmytro Bykov           : pre 5.0 version of the SCF Hessian
   Marcos Casanova-Páez   : Triplet and SCS-CIS(D). UHF-(DLPNO)-IP/EA/STEOM-CCSD. UHF-CVS-IP/STEOM-CCSD
   Vijay G. Chilkuri      : MRCI spin determinant printing, contributions to CSF-ICE
   Pauline Colinet        : FMM embedding
   Dipayan Datta          : RHF DLPNO-CCSD density
   Achintya Kumar Dutta   : EOM-CC, STEOM-CC
   Nicolas Foglia         : Exact transition moments, OPA infrastructure, MCD improvements
   Dmitry Ganyushin       : Spin-Orbit,Spin-Spin,Magnetic field MRCI
   Miquel Garcia          : C-PCM and meta-GGA Hessian, CCSD/C-PCM, Gaussian charge scheme
   Tiago L. C. Gouveia    : GS-ROHF, GS-ROCIS
   Yang Guo               : DLPNO-NEVPT2, F12-NEVPT2, CIM, IAO-localization
   Andreas Hansen         : Spin unrestricted coupled pair/coupled cluster methods
   Ingolf Harden          : AUTO-CI MPn and infrastructure 
   Benjamin Helmich-Paris : MC-RPA, TRAH-(SCF,CASSCF), AVAS, COSX integrals, SCF dyn. polar.
   Lee Huntington         : MR-EOM, pCC
   Robert Izsak           : Overlap fitted RIJCOSX, COSX-SCS-MP3, EOM
   Riya Kayal             : Wick's Theorem for AUTO-CI, AUTO-CI UHF-CCSDT
   Emily Kempfer          : AUTO-CI, RHF CISDT and CCSDT
   Christian Kollmar      : KDIIS, OOCD, Brueckner-CCSD(T), CCSD density, CASPT2, CASPT2-K, improved NEVPT2
   Axel Koslowski         : Symmetry handling
   Simone Kossmann        : Meta GGA functionals, TD-DFT gradient, OOMP2, (MP2 Hessian; deprecated post 5.0)
   Lucas Lang             : DCDCAS
   Marvin Lechner         : AUTO-CI (C++ implementation), FIC-MRCC
   Spencer Leger          : CASSCF response
   Dagmar Lenk            : GEPOL surface, SMD, ORCA-2-JSON
   Dimitrios Liakos       : Extrapolation schemes; Compound Job, initial MDCI parallelization
   Dimitrios Manganas     : Further ROCIS development; embedding schemes. LFT, Crystal Embedding
   Dimitrios Pantazis     : SARC Basis sets
   Anastasios Papadopoulos: AUTO-CI, single reference methods and gradients
   Taras Petrenko         : pre 6.0 DFT Hessian and TD-DFT gradient, (ASA, deprecated), ECA, 1-Electron XAS/XES, NRVS
   Peter Pinski           : DLPNO-MP2, DLPNO-MP2 Gradient
   Christoph Reimann      : Effective Core Potentials
   Marius Retegan         : Local ZFS, SOC
   Christoph Riplinger    : Optimizer, TS searches, QM/MM, DLPNO-CCSD(T), (RO)-DLPNO pert. Triples
   Michael Roemelt        : Original ROCIS implementation
   Masaaki Saitow         : Open-shell DLPNO-CCSD energy and density
   Barbara Sandhoefer     : DKH picture change effects
   Kantharuban Sivalingam : CASSCF convergence/infrastructure, NEVPT2 and variants, FIC-MRCI
   Bernardo de Souza      : ESD, SOC TD-DFT
   Georgi Stoychev        : AutoAux, RI-MP2 NMR, DLPNO-MP2 response, X2C
   Van Anh Tran           : RI-MP2 g-tensors
   Willem Van den Heuvel  : Paramagnetic NMR
   Zikuan Wang            : NOTCH, Electric field optimization 
   Frank Wennmohs         : Technical directorship and infrastructure
   Hang Xu                : AUTO-CI-Response properties 


 We gratefully acknowledge several colleagues who have allowed us to
 interface, adapt or use parts of their codes:
   Stefan Grimme, W. Hujo, H. Kruse, P. Pracht,  : VdW corrections, initial TS optimization,
                  C. Bannwarth, S. Ehlert,         DFT functionals, gCP, sTDA/sTD-DF
                  L. Wittmann, M. Mueller
   Ed Valeev, F. Pavosevic, A. Kumar             : LibInt (2-el integral package), F12 methods
   Garnet Chan, S. Sharma, J. Yang, R. Olivares  : DMRG
   Ulf Ekstrom                                   : XCFun DFT Library
   Mihaly Kallay                                 : mrcc  (arbitrary order and MRCC methods)
   Frank Weinhold                                : gennbo (NPA and NBO analysis)
   Simon Mueller                                 : openCOSMO-RS
   Christopher J. Cramer and Donald G. Truhlar   : smd solvation model
   Lars Goerigk                                  : TD-DFT with DH, B97 family of functionals
   V. Asgeirsson, H. Jonsson                     : NEB implementation
   FAccTs GmbH                                   : IRC, NEB, NEB-TS, DLPNO-Multilevel, CI-OPT
                                                   MM, QMMM, 2- and 3-layer-ONIOM, Crystal-QMMM,
                                                   LR-CPCM, SF, NACMEs, symmetry and pop. for TD-DFT,
                                                   nearIR, NL-DFT gradient (VV10), updates on ESD,
                                                   ML-optimized integration grids, MBIS, APM,
                                                   GOAT, DOCKER, SOLVATOR, interface openCOSMO-RS
   S Lehtola, MJT Oliveira, MAL Marques          : LibXC Library
   Liviu Ungur et al                             : ANISO software


 Your calculation uses the libint2 library for the computation of 2-el integrals
 For citations please refer to: http://libint.valeyev.net

 Your ORCA version has been built with support for libXC version: 6.2.2
 For citations please refer to: https://libxc.gitlab.io

 This ORCA versions uses:
   CBLAS   interface :  Fast vector & matrix operations
   LAPACKE interface :  Fast linear algebra routines
   SCALAPACK package :  Parallel linear algebra routines
   Shared memory     :  Shared parallel matrices
   BLAS/LAPACK       :  OpenBLAS 0.3.27  USE64BITINT DYNAMIC_ARCH NO_AFFINITY SkylakeX SINGLE_THREADED
        Core in use  :  SkylakeX
   Copyright (c) 2011-2014, The OpenBLAS Project




***************************************
The coordinates will be read from file: xtb_opt.xyz
***************************************


Your calculation utilizes the geometrical counterpoise correction gCP
Please cite in your paper:
H.Kruse, S. Grimme J.Chem.Phys., 136, (2012), 154101 
   

Your calculation utilizes the atom-pairwise dispersion correction
based on EEQ partial charges (D4)


Your calculation utilizes the SMD solvation module
Please cite in your paper:
A.V. Marenich, C.J. Cramer, D.G. Truhlar J. Phys. Chem. B, 113, (2009), 6378 

================================================================================

----- Orbital basis set information -----
Your calculation utilizes the basis: def2-mTZVPP
   Stefan Grimme, Andreas Hansen, Sebastian Ehlert, and Jan-Michael Mewes 
   J. Chem. Phys. 154, 064103 (2021). DOI: 10.1063/5.0040021

----- AuxJ basis set information -----
Your calculation utilizes the auxiliary basis: def2/J
   F. Weigend, Phys. Chem. Chem. Phys. 8, 1057 (2006).

================================================================================
                                        WARNINGS
                       Please study these warnings very carefully!
================================================================================

WARNING: Old DensityContainer found on disk!
         Will remove this file - 
         If you want to keep old densities, please start your calculation with a different basename. 

Using LibXC functional ID 497 : Re-regularized SCAN exchange by Furness et al
[ 1]  J. W. Furness, A. D. Kaplan, J. Ning, J. P. Perdew, and J. Sun.,  J. Phys. Chem. Lett. 11, 8208-8215 (2020)
[ 2]  J. W. Furness, A. D. Kaplan, J. Ning, J. P. Perdew, and J. Sun.,  J. Phys. Chem. Lett. 11, 9248-9248 (2020)
Using LibXC functional ID 498 : Re-regularized SCAN correlation by Furness et al
[ 1]  J. W. Furness, A. D. Kaplan, J. Ning, J. P. Perdew, and J. Sun.,  J. Phys. Chem. Lett. 11, 8208-8215 (2020)
[ 2]  J. W. Furness, A. D. Kaplan, J. Ning, J. P. Perdew, and J. Sun.,  J. Phys. Chem. Lett. 11, 9248-9248 (2020)
Using LibXC functional ID 497 : Re-regularized SCAN exchange by Furness et al
[ 1]  J. W. Furness, A. D. Kaplan, J. Ning, J. P. Perdew, and J. Sun.,  J. Phys. Chem. Lett. 11, 8208-8215 (2020)
[ 2]  J. W. Furness, A. D. Kaplan, J. Ning, J. P. Perdew, and J. Sun.,  J. Phys. Chem. Lett. 11, 9248-9248 (2020)
Using LibXC functional ID 498 : Re-regularized SCAN correlation by Furness et al
[ 1]  J. W. Furness, A. D. Kaplan, J. Ning, J. P. Perdew, and J. Sun.,  J. Phys. Chem. Lett. 11, 8208-8215 (2020)
[ 2]  J. W. Furness, A. D. Kaplan, J. Ning, J. P. Perdew, and J. Sun.,  J. Phys. Chem. Lett. 11, 9248-9248 (2020)

================================================================================
                                       INPUT FILE
================================================================================
NAME = xtb_opt.inp
|  1> ! r2scan-3c def2/J RI DEFGRID2 scfconv7 ENGRAD tightSCF miniprint
|  2> %cpcm
|  3>     smd true
|  4>     smdsolvent "water"
|  5> end
|  6> * xyzfile 0 1 xtb_opt.xyz
|  7> 
|  8>                          ****END OF INPUT****
================================================================================

                     *******************************
                     * Energy+Gradient Calculation *
                     *******************************

---------------------------------
CARTESIAN COORDINATES (ANGSTROEM)
---------------------------------
  C     -2.597893   -0.157262    1.247122
  C     -2.524439    0.065611   -0.260283
  C     -1.253701   -0.535404   -0.875589
  C     -0.019039    0.127874   -0.330761
  O      0.179062    1.332860   -0.358113
  O      0.846642   -0.755566    0.201920
  C      2.109209   -0.223779    0.718053
  C      3.109325   -0.039627   -0.400345
  H     -3.517381    0.266175    1.663056
  H     -2.578798   -1.226174    1.487176
  H     -1.752666    0.316725    1.760759
  H     -2.561719    1.137088   -0.486557
  H     -3.388251   -0.394936   -0.750979
  H     -1.247386   -0.368012   -1.959461
  H     -1.206923   -1.612596   -0.696953
  H      1.908476    0.708601    1.252085
  H      2.440484   -0.981450    1.430694
  H      4.055702    0.314747    0.020203
  H      3.294955   -0.987613   -0.914060
  H      2.760713    0.697455   -1.128822

----------------------------
CARTESIAN COORDINATES (A.U.)
----------------------------
  NO LB      ZA    FRAG     MASS         X           Y           Z
   0 C     6.0000    0    12.011   -4.909306   -0.297182    2.356718
   1 C     6.0000    0    12.011   -4.770498    0.123987   -0.491863
   2 C     6.0000    0    12.011   -2.369152   -1.011767   -1.654624
   3 C     6.0000    0    12.011   -0.035978    0.241648   -0.625048
   4 O     8.0000    0    15.999    0.338378    2.518740   -0.676736
   5 O     8.0000    0    15.999    1.599921   -1.427813    0.381574
   6 C     6.0000    0    12.011    3.985827   -0.422881    1.356923
   7 C     6.0000    0    12.011    5.875774   -0.074883   -0.756543
   8 H     1.0000    0     1.008   -6.646887    0.502997    3.142720
   9 H     1.0000    0     1.008   -4.873221   -2.317132    2.810355
  10 H     1.0000    0     1.008   -3.312058    0.598523    3.327352
  11 H     1.0000    0     1.008   -4.840948    2.148785   -0.919459
  12 H     1.0000    0     1.008   -6.402866   -0.746321   -1.419144
  13 H     1.0000    0     1.008   -2.357218   -0.695442   -3.702844
  14 H     1.0000    0     1.008   -2.280753   -3.047364   -1.317051
  15 H     1.0000    0     1.008    3.606498    1.339063    2.366098
  16 H     1.0000    0     1.008    4.611847   -1.854672    2.703620
  17 H     1.0000    0     1.008    7.664166    0.594785    0.038177
  18 H     1.0000    0     1.008    6.226563   -1.866318   -1.727324
  19 H     1.0000    0     1.008    5.216991    1.317999   -2.133165

------------------------------------------------------------------------------
                   ___                                                        
                  /   \      - P O W E R E D   B Y -                         
                 /     \                                                     
                 |  |  |   _    _      __       _____    __    __             
                 |  |  |  | |  | |    /  \     |  _  \  |  |  /  |          
                  \  \/   | |  | |   /    \    | | | |  |  | /  /          
                 / \  \   | |__| |  /  /\  \   | |_| |  |  |/  /          
                |  |  |   |  __  | /  /__\  \  |    /   |      \           
                |  |  |   | |  | | |   __   |  |    \   |  |\   \          
                \     /   | |  | | |  |  |  |  | |\  \  |  | \   \       
                 \___/    |_|  |_| |__|  |__|  |_| \__\ |__|  \__/        
                                                                              
                      - O R C A' S   B I G   F R I E N D -                    
                                      &                                       
                       - I N T E G R A L  F E E D E R -                       
                                                                              
 v1 FN, 2020, v2 2021, v3 2022-2024                                           
------------------------------------------------------------------------------


----------------------
SHARK INTEGRAL PACKAGE
----------------------

Number of atoms                             ...     20
Number of basis functions                   ...    222
Number of shells                            ...    110
Maximum angular momentum                    ...      2
Integral batch strategy                     ... SHARK/LIBINT Hybrid
RI-J (if used) integral strategy            ... SPLIT-RIJ (Revised 2003 algorithm where possible)
Printlevel                                  ...      1
Contraction scheme used                     ... SEGMENTED contraction
Prescreening option                         ... SCHWARTZ
   Thresh                                   ... 3.000e-11
   Tcut                                     ... 1.000e-12
   Tpresel                                  ... 1.000e-12 
Coulomb Range Separation                    ... NOT USED
Exchange Range Separation                   ... NOT USED
Multipole approximations                    ... NOT USED
Finite Nucleus Model                        ... NOT USED
CABS basis                                  ... NOT available
Auxiliary Coulomb fitting basis             ... AVAILABLE
   # of basis functions in Aux-J            ...    524
   # of shells in Aux-J                     ...    180
   Maximum angular momentum in Aux-J        ...      4
Auxiliary J/K fitting basis                 ... NOT available
Auxiliary Correlation fitting basis         ... NOT available
Auxiliary 'external' fitting basis          ... NOT available

Checking pre-screening integrals            ... done (  0.0 sec) Dimension = 110
Check shell pair data                       ... done (  0.0 sec)
Shell pair information
Shell pair cut-off parameter TPreSel        ...   1.0e-12
Total number of shell pairs                 ...      6105
Shell pairs after pre-screening             ...      5390
Total number of primitive shell pairs       ...     21533
Primitive shell pairs kept                  ...     13537
          la=0 lb=0:   1808 shell pairs
          la=1 lb=0:   2028 shell pairs
          la=1 lb=1:    591 shell pairs
          la=2 lb=0:    580 shell pairs
          la=2 lb=1:    330 shell pairs
          la=2 lb=2:     53 shell pairs

Calculating one electron integrals          ... done (  0.0 sec)
Calculating RI/J V-Matrix + Cholesky decomp.... done (  0.1 sec)
Calculating Nuclear repulsion               ... done (  0.0 sec) ENN=    394.381314932600 Eh

Diagonalization of the overlap matrix:
Smallest eigenvalue                        ... 1.872e-04
Time for diagonalization                   ...    0.007 sec
Threshold for overlap eigenvalues          ... 1.000e-07
Number of eigenvalues below threshold      ... 0
Time for construction of square roots      ...    0.018 sec
Total time needed                          ...    0.037 sec

-------------------
DFT GRID GENERATION
-------------------

General Integration Accuracy     IntAcc      ... 4.388
Radial Grid Type                 RadialGrid  ... OptM3 with GC (2021)
Angular Grid (max. ang.)         AngularGrid ... 4 (Lebedev-302)
Angular grid pruning method      GridPruning ... 4 (adaptive)
Weight generation scheme         WeightScheme... mBecke (2022)
Basis function cutoff            BFCut       ... 1.0000e-11
Integration weight cutoff        WCut        ... 1.0000e-14
Partially contracted basis set               ... off
Rotationally invariant grid construction     ... off
Angular grids for H and He will be reduced by one unit
Diffuse basis detected: some atoms will have their outermost
                        angular grid increased by 1.

Total number of grid points                  ...    87376
Total number of batches                      ...     1376
Average number of points per batch           ...       63
Average number of grid points per atom       ...     4369
Initializing property integral containers    ... done (  0.0 sec)

SHARK setup successfully completed in   1.2 seconds

Maximum memory used throughout the entire STARTUP-calculation: 39.5 MB
Occupation numbers will be reassigned to an Aufbau configuration
             **** ENERGY FILE WAS UPDATED (xtb_opt.en.tmp) ****
Finished Guess after   0.4 sec
Maximum memory used throughout the entire GUESS-calculation: 15.2 MB
--------------------
CPCM SOLVATION MODEL
--------------------
CPCM parameters:
  Epsilon                                         ...      78.3550
  Refrac                                          ...       1.3328
  Rsolv                                           ...       1.3000
  Surface type                                    ... GAUSSIAN VDW
  Discretization scheme                           ... Constant charge density
    Threshold for H atoms                         ...       5.0000 (charges/Ang^2)
    Threshold for non-H atoms                     ...       5.0000 (charges/Ang^2)
  Epsilon function type                           ...         CPCM
Solvent:                                          ... WATER
SMD-CDS solvent descriptors:
  Soln                                            ...       1.3328
  Soln25                                          ...       1.3323
  Sola                                            ...       0.0000
  Solb                                            ...       0.0000
  Solg                                            ...       0.0000
  Solc                                            ...       0.0000
  Solh                                            ...       0.0000
Radii:
  Scheme                                          ... Element-dependent radii
  Radius for C  used is    3.4960 Bohr (=   1.8500 Ang.)
  Radius for O  used is    2.8724 Bohr (=   1.5200 Ang.)
  Radius for H  used is    2.2677 Bohr (=   1.2000 Ang.)
Calculating surface                               ...        done! (  0.0s)
Cavity surface points                             ...         1512
Cavity Volume                                     ...     882.7565
Cavity Surface-area                               ...     588.3135
Calculating surface distance matrix               ...        done! (  0.0s)
Performing Cholesky decomposition & store         ...        done! (  0.1s)
Overall time for CPCM initialization              ...                 0.1s

----------------------------------------D-I-I-S--------------------------------------------
Iteration    Energy (Eh)           Delta-E    RMSDP     MaxDP     DIISErr   Damp  Time(sec)
-------------------------------------------------------------------------------------------
               ***  Starting incremental Fock matrix formation  ***
                              *** Initializing SOSCF ***
---------------------------------------S-O-S-C-F--------------------------------------
Iteration    Energy (Eh)           Delta-E    RMSDP     MaxDP     MaxGrad    Time(sec)
--------------------------------------------------------------------------------------
    1    -386.2571532842079591     0.00e+00  1.94e-06  5.16e-05  1.17e-05     3.5
               *** Restarting incremental Fock matrix formation ***
    2    -386.2571532790765900     5.13e-09  3.11e-06  9.78e-05  3.14e-05     3.5
    3    -386.2571532140353270     6.50e-08  2.23e-06  7.34e-05  6.78e-05     2.7
                 **** Energy Check signals convergence ****

               *****************************************************
               *                     SUCCESS                       *
               *           SCF CONVERGED AFTER   3 CYCLES          *
               *****************************************************


SMD CDS free energy correction energy :                 4.77312     Kcal/mol
Total Energy after SMD CDS correction =              -386.249546772 Eh
             **** ENERGY FILE WAS UPDATED (xtb_opt.en.tmp) ****

----------------
TOTAL SCF ENERGY
----------------

Total Energy       :       -386.24954677188299 Eh          -10510.38451 eV

Components:
Nuclear Repulsion  :        394.38131493259954 Eh           10731.66117 eV
Electronic Energy  :       -780.62259076684290 Eh          -21241.82061 eV
One Electron Energy:      -1306.30217281823093 Eh          -35546.28926 eV
Two Electron Energy:        525.67958205138802 Eh           14304.46865 eV
CPCM Dielectric    :         -0.01587737979201 Eh              -0.43205 eV
SMD CDS (Gcds)     :          0.00760644215234 Eh               0.20698 eV

Virial components:
Potential Energy   :       -770.69333364161150 Eh          -20971.63179 eV
Kinetic Energy     :        384.44378686972851 Eh           10461.24728 eV
Virial Ratio       :          2.00469707136343

DFT components:
N(Alpha)           :       32.000000058235 electrons
N(Beta)            :       32.000000058235 electrons
N(Total)           :       64.000000116471 electrons
E(X)               :      -52.034773621759 Eh       
E(C)               :       -2.035622750988 Eh       
E(XC)              :      -54.070396372747 Eh       

CPCM Solvation Model Properties:
Surface-charge          :         -0.04722964079376
Corrected charge        :         -0.00000000000000
Outlying charge corr.   :          0.00016832753062 Eh               0.00458 eV
Free-energy (cav+disp)  :          0.00760644215234 Eh               0.20698 eV

---------------
SCF CONVERGENCE
---------------

  Last Energy change         ...   -6.5041e-08  Tolerance :   1.0000e-07
  Last MAX-Density change    ...    7.3434e-05  Tolerance :   1.0000e-07
  Last RMS-Density change    ...    2.2306e-06  Tolerance :   5.0000e-09
  Last DIIS Error            ...    8.3240e-05  Tolerance :   1.0000e-07
  Last Orbital Gradient      ...    6.7834e-05  Tolerance :   1.0000e-04
  Last Orbital Rotation      ...    6.1254e-05  Tolerance :   1.0000e-04


----------------
ORBITAL ENERGIES
----------------

  NO   OCC          E(Eh)            E(eV) 
   0   2.0000     -19.002292      -517.0787 
   1   2.0000     -18.944878      -515.5163 
   2   2.0000     -10.164367      -276.5865 
   3   2.0000     -10.084558      -274.4148 
   4   2.0000     -10.037328      -273.1296 
   5   2.0000     -10.030650      -272.9479 
   6   2.0000     -10.020583      -272.6739 
   7   2.0000     -10.014837      -272.5176 
   8   2.0000      -1.068360       -29.0716 
   9   2.0000      -0.983708       -26.7681 
  10   2.0000      -0.767098       -20.8738 
  11   2.0000      -0.731059       -19.8931 
  12   2.0000      -0.671914       -18.2837 
  13   2.0000      -0.615488       -16.7483 
  14   2.0000      -0.560876       -15.2622 
  15   2.0000      -0.515647       -14.0315 
  16   2.0000      -0.472469       -12.8565 
  17   2.0000      -0.458235       -12.4692 
  18   2.0000      -0.438503       -11.9323 
  19   2.0000      -0.419873       -11.4253 
  20   2.0000      -0.405143       -11.0245 
  21   2.0000      -0.386036       -10.5046 
  22   2.0000      -0.367692       -10.0054 
  23   2.0000      -0.359654        -9.7867 
  24   2.0000      -0.351418        -9.5626 
  25   2.0000      -0.338247        -9.2042 
  26   2.0000      -0.310737        -8.4556 
  27   2.0000      -0.307099        -8.3566 
  28   2.0000      -0.302279        -8.2254 
  29   2.0000      -0.301551        -8.2056 
  30   2.0000      -0.279913        -7.6168 
  31   2.0000      -0.252084        -6.8596 
  32   0.0000      -0.027817        -0.7570 
  33   0.0000       0.075360         2.0506 
  34   0.0000       0.091523         2.4905 
  35   0.0000       0.118452         3.2232 
  36   0.0000       0.123934         3.3724 
  37   0.0000       0.137290         3.7359 
  38   0.0000       0.141253         3.8437 
  39   0.0000       0.141736         3.8568 
  40   0.0000       0.147812         4.0222 
  41   0.0000       0.166922         4.5422 
  42   0.0000       0.173620         4.7244 
*Only the first 10 virtual orbitals were printed.
Total SCF time: 0 days 0 hours 0 min 10 sec 
Finished LeanSCF after  10.4 sec

Maximum memory used throughout the entire LEANSCF-calculation: 30.9 MB


-------------------------------------------------------------------------------
                          DFT DISPERSION CORRECTION                            
                                                                               
                                DFTD4 V3.4.0                                   
-------------------------------------------------------------------------------
-------------------------   ----------------
Dispersion correction           -0.005129691
-------------------------   ----------------

------------------   -----------------
gCP correction             0.011498582
------------------   -----------------

-------------------------   --------------------
FINAL SINGLE POINT ENERGY      -386.243177880258
-------------------------   --------------------

------------------------------------------------------------------------------
                         ORCA SCF GRADIENT CALCULATION
------------------------------------------------------------------------------

Nuc. rep. gradient        (SHARK) ... done (  0.0 sec)
HCore & Overlap gradient  (SHARK) ... done (  0.3 sec)
Split-RIJ-J gradient      (SHARK) ... done (  1.8 sec)
XC gradient                       ... done (  6.5 sec)
CPCM gradient                     ... done (  1.0 sec)
SMD gradient                      ... done (  0.0 sec)
Dispersion correction             ... done (  0.0 sec)

-------------------
DISPERSION GRADIENT
-------------------

   1   C   :   -0.000076385   -0.000004956    0.000051861
   2   C   :   -0.000069557    0.000004238   -0.000014624
   3   C   :   -0.000055859   -0.000023796   -0.000048205
   4   C   :    0.000003812    0.000009923   -0.000019817
   5   O   :    0.000013512    0.000074009   -0.000022604
   6   O   :    0.000054746   -0.000025649    0.000008773
   7   C   :    0.000078208   -0.000002054    0.000028900
   8   C   :    0.000082385    0.000000349   -0.000007994
   9   H   :   -0.000028476    0.000002943    0.000022910
  10   H   :   -0.000032731   -0.000011848    0.000024169
  11   H   :   -0.000034986    0.000005006    0.000027349
  12   H   :   -0.000023903    0.000011223   -0.000005451
  13   H   :   -0.000027771   -0.000003423   -0.000007060
  14   H   :   -0.000016379   -0.000004417   -0.000034468
  15   H   :   -0.000017791   -0.000024469   -0.000017600
  16   H   :    0.000029501    0.000005548    0.000012658
  17   H   :    0.000027937   -0.000011537    0.000017025
  18   H   :    0.000028721    0.000001331   -0.000001353
  19   H   :    0.000032969   -0.000008535   -0.000006803
  20   H   :    0.000032048    0.000006116   -0.000007664

Difference to translation invariance:
           :    0.0000000000   -0.0000000000    0.0000000000

Difference to rotation invariance:
           :   -0.0000000000   -0.0000000000   -0.0000000000

Norm of the Dispersion gradient    ...    0.0002422089
RMS gradient                       ...    0.0000312690
MAX gradient                       ...    0.0000823850
gCP correction                   ... done

------------------
CARTESIAN GRADIENT
------------------

   1   C   :   -0.000007601   -0.000021051   -0.000032582
   2   C   :    0.000022342   -0.000087667   -0.000034347
   3   C   :    0.000001453   -0.000012450   -0.000141757
   4   C   :    0.000203440   -0.000607055    0.000211561
   5   O   :    0.000100549    0.000535874   -0.000111048
   6   O   :    0.000052768    0.000325893    0.000151307
   7   C   :   -0.000585950   -0.000302703   -0.000167467
   8   C   :    0.000194127    0.000100254    0.000042825
   9   H   :   -0.000084529    0.000052311    0.000057343
  10   H   :   -0.000033915   -0.000140407    0.000069153
  11   H   :    0.000122955    0.000038424    0.000107211
  12   H   :   -0.000016006    0.000119462   -0.000018113
  13   H   :   -0.000032920   -0.000014376   -0.000046726
  14   H   :   -0.000047220    0.000064964   -0.000067299
  15   H   :    0.000094316   -0.000069900   -0.000046210
  16   H   :    0.000109108    0.000168663    0.000198102
  17   H   :    0.000003848   -0.000046590    0.000064536
  18   H   :    0.000006008    0.000107923   -0.000087385
  19   H   :    0.000013374   -0.000193312   -0.000083100
  20   H   :   -0.000116146   -0.000018256   -0.000066002

Difference to translation invariance:
           :   -0.0000000000    0.0000000000   -0.0000000000

Difference to rotation invariance:
           :    0.0000714208    0.0000064069    0.0000354824

Norm of the Cartesian gradient     ...    0.0013114648
RMS gradient                       ...    0.0001693094
MAX gradient                       ...    0.0006070555

-------
TIMINGS
-------

Total SCF gradient time     ....       10.625 sec

Densities                   ....       0.001 sec  (  0.0%)
One electron gradient       ....       0.340 sec  (  3.2%)
RI-J Coulomb gradient       ....       1.803 sec  ( 17.0%)
XC gradient                 ....       6.519 sec  ( 61.4%)
CPCM gradient               ....       1.011 sec  (  9.5%)
   A-Matrix (El+Nuc)        ....       0.081 sec  (  0.8%)
   Potential                ....       0.930 sec  (  8.8%)
SMD gradient                ....       0.014 sec  (  0.1%)

Maximum memory used throughout the entire SCFGRAD-calculation: 35.4 MB

------------------------------------------------------------------------------
                              ORCA PROPERTY CALCULATIONS
------------------------------------------------------------------------------

GBWName                                 ... xtb_opt.gbw
Number of atoms                         ...     20
Number of basis functions               ...    222
Max core memory                         ...   1024 MB

Electric properties:
Dipole moment                           ... YES
Quadrupole moment                       ...  NO
Static polarizability (Dipole/Dipole)   ...  NO
Static polarizability (Dipole/Quad.)    ...  NO
Static polarizability (Quad./Quad.)     ...  NO
Static polarizability (Velocity)        ...  NO

Atomic electric properties:
Dipole moment                           ...  NO
Quadrupole moment                       ...  NO
Static polarizability                   ...  NO

Choice of electric origin               ... Center of mass
Position of electric origin             ...     0.007674    -0.033681     0.006036

General magnetic properties:
Magnetizability                         ...  NO

EPR properties:
g-Tensor (aka g-matrix)                 ...  NO
Zero-Field splitting spin-orbit         ...  NO
Zero-field splitting spin-spin          ...  NO
Hyperfine couplings                     ...  NO (   0 nuclei)
Quadrupole couplings                    ...  NO (   0 nuclei)
Contact density                         ...  NO (   0 nuclei)

NMR properties:
Chemical shifts                         ...  NO (   0 nuclei)
Spin-rotation constants                 ...  NO (   0 nuclei)
Spin-spin couplings                     ...  NO (   0 nuclei,    0 pairs)

Choice of magnetic origin               ... GIAO
Position of magnetic origin             ...     0.000000     0.000000     0.000000

Properties with geometric perturbations:
SCF Hessian                             ...  NO
IR spectrum                             ...  NO
VCD spectrum                            ...  NO
X-ray spectroscopy properties:
SCF XES/XAS/RIXS spectra                ...  NO


-------------
DIPOLE MOMENT
-------------

Method             : SCF
Type of density    : Electron Density
Multiplicity       :   1
Irrep              :   0
Energy             :  -386.2495467718829900 Eh
Relativity type    : 
Basis              : AO
                                X                 Y                 Z
Electronic contribution:      1.896846538       0.784603623      -1.397422184
Nuclear contribution   :     -1.712624801      -1.788588089       1.535087176
                        -----------------------------------------
Total Dipole Moment    :      0.184221736      -1.003984467       0.137664992
                        -----------------------------------------
Magnitude (a.u.)       :      1.029987431
Magnitude (Debye)      :      2.618019991



--------------------
Rotational spectrum 
--------------------
 
Rotational constants in cm-1:             0.153118             0.034222             0.032918 
Rotational constants in MHz :          4590.356519          1025.963681           986.842952 

Dipole components along the rotational axes: 
x,y,z [a.u.] :     0.179292     0.669664     0.761760 
x,y,z [Debye]:     0.455723     1.702152     1.936240 

 

Dipole moment calculation done in   0.0 sec 

Maximum memory used throughout the entire PROP-calculation: 14.0 MB

--------------------------------
SUGGESTED CITATIONS FOR THIS RUN
--------------------------------

Below you find a list of papers that are relevant to this ORCA run
We neither can nor want to force you to cite these papers, but we appreciate if you do
You receive ORCA, which is the product of decades of hard work by many enthusiastic individuals, for free
The only thing we kindly ask in return is that you cite our papers,
We deeply appreciate it, if you show your appreciation for ORCA by not just citing the generic ORCA reference.

Please note that relegating all ORCA citations to the supporting information does *not* help us.
SI sections are not indexed - citations you put there will not count into any citation statistics
But we need these citations in order to attract the funding resources that allow us to do what we are doing

Therefore, if you are a happy ORCA user, please consider citing a few of the papers listed below in the main body of your paper

In addition to the list printed below, the program has created the file xtb_opt.bibtex that contains the list in bibtex format
You can import this file easily into all common literature databanks and citation aid programs


List of essential papers. We consider these as the minimum necessary citations

  1. Neese,F.
     Software update: the ORCA program system, version 5.0
     WIRES Comput. Molec. Sci., 2022 12(1)e1606
     doi.org/10.1002/wcms.1606
  2. Grimme,S.; Hansen,A.; Ehlert,S.; Mewes,J.
     r2SCAN-3c: A 'Swiss army knife' composite electronic-structure method
     J. Chem. Phys., 2021 154 064103
     doi.org/10.1063/5.0040021

List of papers to cite with high priority. The work reported in these papers was absolutely
necessary for this run to complete.
Our perspective: the developers of density functionals and basis sets usually get cited in chemistry papers
Good! But without the algorithms to do something with them, the functionals or basis sets would not do anything.
Hence, in our opinion, the algorithm design and method developments papers are equally worthy of getting cited

  1. Neese,F.
     An improvement of the resolution of the identity approximation for the formation of the Coulomb matrix
     J. Comp. Chem., 2003 24(14)1740-1747
     doi.org/10.1002/jcc.10318
  2. Garcia-Rates,M.; Neese,F.
     Effect of the Solute Cavity on the Solvation Energy and its Derivatives within the Framework of the Gaussian Charge Scheme
     J. Comput. Chem., 2020 41 922-939
     doi.org/10.1002/jcc.26139
  3. Neese,F.
     The SHARK Integral Generation and Digestion System
     J. Comp. Chem., 2022  1-16
     doi.org/10.1002/jcc.26942
  4. Lehtola,S.; Steigemann,C.; Oliveira,M.; Marques,M.
     Recent developments in Libxc - A comprehensive library of functionals for density functional theory
     Software X, 2018 7 
     doi.org/10.1016/j.softx.2017.11.002
  5. Caldeweyher,E.; Bannwarth,C.; Grimme,S.
     Extension of the D3 dispersion coefficient model
     J. Chem. Phys., 2017 147 034112-XXXX
     doi.org/10.1063/1.4993215
  6. Caldeweyher,E.; Ehlert,S.; Hansen,A.; Neugebauer,H.; Spicher,S.; Bannwarth,C.; Grimme,S.
     A generally applicable atomic-charge dependent London dispersion correction
     J. Chem. Phys., 2019 150 154122-XXXX
     doi.org/10.1063/1.5090222
  7. Caldeweyher,E.; Mewes,J.; Ehlert,S.; Grimme,S.
     Extension and evaluation of the D4 London-dispersion model for periodic systems
     Phys. Chem. Chem. Phys., 2020 22(16)8499-8512
     doi.org/10.1039/D0CP00502A

List of suggested additional citations. These are papers that are important in the 'surrounding' of 
of this run, or papers that preceded the highly important papers. If you like your results we are grateful for a citation.

  1. Neese,F.
     The ORCA program system
     WIRES Comput. Molec. Sci., 2012 2(1)73-78
     doi.org/10.1002/wcms.81
  2. Neese,F.
     Software update: the ORCA program system, version 4.0
     WIRES Comput. Molec. Sci., 2018 8(1)1-6
     doi.org/10.1002/wcms.1327
  3. Neese,F.; Wennmohs,F.; Becker,U.; Riplinger,C.
     The ORCA quantum chemistry program package
     J. Chem. Phys., 2020 152 Art. No. L224108
     doi.org/10.1063/5.0004608

List of optional additional citations

  1. Neese,F.
     Approximate second-order SCF convergence for spin unrestricted wavefunctions
     Chem. Phys. Lett., 2000 325(1-3)93-98
     doi.org/10.1016/s0009-2614(00)00662-x

Timings for individual modules:

Sum of individual times          ...       23.028 sec (=   0.384 min)
Startup calculation              ...        1.282 sec (=   0.021 min)   5.6 %
SCF iterations                   ...       10.863 sec (=   0.181 min)  47.2 %
Property calculations            ...        0.137 sec (=   0.002 min)   0.6 %
SCF Gradient evaluation          ...       10.746 sec (=   0.179 min)  46.7 %
                             ****ORCA TERMINATED NORMALLY****
TOTAL RUN TIME: 0 days 0 hours 0 minutes 23 seconds 997 msec
  ------------------------------------------------------------------------
          * successful ORCA run, taking over control again...

         :::::::::::::::::::::::::::::::::::::::::::::::::::::
         ::                  ORCA SUMMARY                   ::
         :::::::::::::::::::::::::::::::::::::::::::::::::::::
         :: total energy            -386.243177880258 Eh    ::
         :: gradient norm              0.001311464781 Eh/a0 ::
         :: HOMO-LUMO gap              0.000000000000 eV    ::
         :::::::::::::::::::::::::::::::::::::::::::::::::::::

      ----------------------------------------------------------- 
     |                       L-ANC optimizer                     |
      ----------------------------------------------------------- 
          low memory version by Sebastian Ehlert

          ...................................................
          :                      SETUP                      :
          :.................................................:
          :   energy convergence        0.5000000E-05 Eh    :
          :   grad. convergence         0.1000000E-02 Eh/a0 :
          :   optimization log               true           :
          :   writing optlog all                1     steps :
          :   Hessian reset                     8     steps :
          :   maximium step len.        1.0000000     a0    :
          :   LBFGS images                      8           :
          ...................................................
 * calculating model hessian...
Using Lindh-Hessian (1995)
 Shifting diagonal of input Hessian by   1.000000000000000E-002
 Lowest  eigenvalues of input Hessian
    0.000000    0.000000    0.000000    0.000000    0.000000    0.000000
    0.011182    0.011843    0.014186    0.014947    0.018362    0.019991
    0.025686    0.026879    0.036762    0.041263    0.051768    0.054603
 Highest eigenvalues
    1.202494    1.233735    1.252186    1.288985    1.727546    2.264272
 

........................................................................
.............................. CYCLE    1 ..............................
........................................................................
                         * ORCA takes the control...
  ------------------------------------------------------------------------

                                 *****************
                                 * O   R   C   A *
                                 *****************

                                            #,                                       
                                            ###                                      
                                            ####                                     
                                            #####                                    
                                            ######                                   
                                           ########,                                 
                                     ,,################,,,,,                         
                               ,,#################################,,                 
                          ,,##########################################,,             
                       ,#########################################, ''#####,          
                    ,#############################################,,   '####,        
                  ,##################################################,,,,####,       
                ,###########''''           ''''###############################       
              ,#####''   ,,,,##########,,,,          '''####'''          '####       
            ,##' ,,,,###########################,,,                        '##       
           ' ,,###''''                  '''############,,,                           
         ,,##''                                '''############,,,,        ,,,,,,###''
      ,#''                                            '''#######################'''  
     '                                                          ''''####''''         
             ,#######,   #######,   ,#######,      ##                                
            ,#'     '#,  ##    ##  ,#'     '#,    #''#        ,####,   ,####,        
            ##       ##  ##   ,#'  ##            #'  '#       #'       #'  '#        
            ##       ##  #######   ##           ,######,      #####,   #    #        
            '#,     ,#'  ##    ##  '#,     ,#' ,#      #,     #,   #   #,  ,#        
             '#######'   ##     ##  '#######'  #'      '#     '####' # '####'        



                #########################################################
                #                        -***-                          #
                #          Department of theory and spectroscopy        #
                #                                                       #
                #                      Frank Neese                      #
                #                                                       #
                #     Directorship, Architecture, Infrastructure        #
                #                    SHARK, DRIVERS                     #
                #        Core code/Algorithms in most modules           #
                #                                                       #
                #        Max Planck Institute fuer Kohlenforschung      #
                #                Kaiser Wilhelm Platz 1                 #
                #                 D-45470 Muelheim/Ruhr                 #
                #                      Germany                          #
                #                                                       #
                #                  All rights reserved                  #
                #                        -***-                          #
                #########################################################


                         Program Version 6.0.0  -   RELEASE  -


 With contributions from (in alphabetic order):
   Daniel Aravena         : Magnetic Suceptibility
   Michael Atanasov       : Ab Initio Ligand Field Theory (pilot matlab implementation)
   Alexander A. Auer      : GIAO ZORA, VPT2 properties, NMR spectrum
   Ute Becker             : All parallelization in ORCA, NUMFREQ, NUMCALC
   Giovanni Bistoni       : ED, misc. LED, open-shell LED, HFLD
   Martin Brehm           : Molecular dynamics
   Dmytro Bykov           : pre 5.0 version of the SCF Hessian
   Marcos Casanova-Páez   : Triplet and SCS-CIS(D). UHF-(DLPNO)-IP/EA/STEOM-CCSD. UHF-CVS-IP/STEOM-CCSD
   Vijay G. Chilkuri      : MRCI spin determinant printing, contributions to CSF-ICE
   Pauline Colinet        : FMM embedding
   Dipayan Datta          : RHF DLPNO-CCSD density
   Achintya Kumar Dutta   : EOM-CC, STEOM-CC
   Nicolas Foglia         : Exact transition moments, OPA infrastructure, MCD improvements
   Dmitry Ganyushin       : Spin-Orbit,Spin-Spin,Magnetic field MRCI
   Miquel Garcia          : C-PCM and meta-GGA Hessian, CCSD/C-PCM, Gaussian charge scheme
   Tiago L. C. Gouveia    : GS-ROHF, GS-ROCIS
   Yang Guo               : DLPNO-NEVPT2, F12-NEVPT2, CIM, IAO-localization
   Andreas Hansen         : Spin unrestricted coupled pair/coupled cluster methods
   Ingolf Harden          : AUTO-CI MPn and infrastructure 
   Benjamin Helmich-Paris : MC-RPA, TRAH-(SCF,CASSCF), AVAS, COSX integrals, SCF dyn. polar.
   Lee Huntington         : MR-EOM, pCC
   Robert Izsak           : Overlap fitted RIJCOSX, COSX-SCS-MP3, EOM
   Riya Kayal             : Wick's Theorem for AUTO-CI, AUTO-CI UHF-CCSDT
   Emily Kempfer          : AUTO-CI, RHF CISDT and CCSDT
   Christian Kollmar      : KDIIS, OOCD, Brueckner-CCSD(T), CCSD density, CASPT2, CASPT2-K, improved NEVPT2
   Axel Koslowski         : Symmetry handling
   Simone Kossmann        : Meta GGA functionals, TD-DFT gradient, OOMP2, (MP2 Hessian; deprecated post 5.0)
   Lucas Lang             : DCDCAS
   Marvin Lechner         : AUTO-CI (C++ implementation), FIC-MRCC
   Spencer Leger          : CASSCF response
   Dagmar Lenk            : GEPOL surface, SMD, ORCA-2-JSON
   Dimitrios Liakos       : Extrapolation schemes; Compound Job, initial MDCI parallelization
   Dimitrios Manganas     : Further ROCIS development; embedding schemes. LFT, Crystal Embedding
   Dimitrios Pantazis     : SARC Basis sets
   Anastasios Papadopoulos: AUTO-CI, single reference methods and gradients
   Taras Petrenko         : pre 6.0 DFT Hessian and TD-DFT gradient, (ASA, deprecated), ECA, 1-Electron XAS/XES, NRVS
   Peter Pinski           : DLPNO-MP2, DLPNO-MP2 Gradient
   Christoph Reimann      : Effective Core Potentials
   Marius Retegan         : Local ZFS, SOC
   Christoph Riplinger    : Optimizer, TS searches, QM/MM, DLPNO-CCSD(T), (RO)-DLPNO pert. Triples
   Michael Roemelt        : Original ROCIS implementation
   Masaaki Saitow         : Open-shell DLPNO-CCSD energy and density
   Barbara Sandhoefer     : DKH picture change effects
   Kantharuban Sivalingam : CASSCF convergence/infrastructure, NEVPT2 and variants, FIC-MRCI
   Bernardo de Souza      : ESD, SOC TD-DFT
   Georgi Stoychev        : AutoAux, RI-MP2 NMR, DLPNO-MP2 response, X2C
   Van Anh Tran           : RI-MP2 g-tensors
   Willem Van den Heuvel  : Paramagnetic NMR
   Zikuan Wang            : NOTCH, Electric field optimization 
   Frank Wennmohs         : Technical directorship and infrastructure
   Hang Xu                : AUTO-CI-Response properties 


 We gratefully acknowledge several colleagues who have allowed us to
 interface, adapt or use parts of their codes:
   Stefan Grimme, W. Hujo, H. Kruse, P. Pracht,  : VdW corrections, initial TS optimization,
                  C. Bannwarth, S. Ehlert,         DFT functionals, gCP, sTDA/sTD-DF
                  L. Wittmann, M. Mueller
   Ed Valeev, F. Pavosevic, A. Kumar             : LibInt (2-el integral package), F12 methods
   Garnet Chan, S. Sharma, J. Yang, R. Olivares  : DMRG
   Ulf Ekstrom                                   : XCFun DFT Library
   Mihaly Kallay                                 : mrcc  (arbitrary order and MRCC methods)
   Frank Weinhold                                : gennbo (NPA and NBO analysis)
   Simon Mueller                                 : openCOSMO-RS
   Christopher J. Cramer and Donald G. Truhlar   : smd solvation model
   Lars Goerigk                                  : TD-DFT with DH, B97 family of functionals
   V. Asgeirsson, H. Jonsson                     : NEB implementation
   FAccTs GmbH                                   : IRC, NEB, NEB-TS, DLPNO-Multilevel, CI-OPT
                                                   MM, QMMM, 2- and 3-layer-ONIOM, Crystal-QMMM,
                                                   LR-CPCM, SF, NACMEs, symmetry and pop. for TD-DFT,
                                                   nearIR, NL-DFT gradient (VV10), updates on ESD,
                                                   ML-optimized integration grids, MBIS, APM,
                                                   GOAT, DOCKER, SOLVATOR, interface openCOSMO-RS
   S Lehtola, MJT Oliveira, MAL Marques          : LibXC Library
   Liviu Ungur et al                             : ANISO software


 Your calculation uses the libint2 library for the computation of 2-el integrals
 For citations please refer to: http://libint.valeyev.net

 Your ORCA version has been built with support for libXC version: 6.2.2
 For citations please refer to: https://libxc.gitlab.io

 This ORCA versions uses:
   CBLAS   interface :  Fast vector & matrix operations
   LAPACKE interface :  Fast linear algebra routines
   SCALAPACK package :  Parallel linear algebra routines
   Shared memory     :  Shared parallel matrices
   BLAS/LAPACK       :  OpenBLAS 0.3.27  USE64BITINT DYNAMIC_ARCH NO_AFFINITY SkylakeX SINGLE_THREADED
        Core in use  :  SkylakeX
   Copyright (c) 2011-2014, The OpenBLAS Project




***************************************
The coordinates will be read from file: xtb_opt.xyz
***************************************


Your calculation utilizes the geometrical counterpoise correction gCP
Please cite in your paper:
H.Kruse, S. Grimme J.Chem.Phys., 136, (2012), 154101 
   

Your calculation utilizes the atom-pairwise dispersion correction
based on EEQ partial charges (D4)


Your calculation utilizes the SMD solvation module
Please cite in your paper:
A.V. Marenich, C.J. Cramer, D.G. Truhlar J. Phys. Chem. B, 113, (2009), 6378 

================================================================================

----- Orbital basis set information -----
Your calculation utilizes the basis: def2-mTZVPP
   Stefan Grimme, Andreas Hansen, Sebastian Ehlert, and Jan-Michael Mewes 
   J. Chem. Phys. 154, 064103 (2021). DOI: 10.1063/5.0040021

----- AuxJ basis set information -----
Your calculation utilizes the auxiliary basis: def2/J
   F. Weigend, Phys. Chem. Chem. Phys. 8, 1057 (2006).

================================================================================
                                        WARNINGS
                       Please study these warnings very carefully!
================================================================================

WARNING: Old DensityContainer found on disk!
         Will remove this file - 
         If you want to keep old densities, please start your calculation with a different basename. 

Using LibXC functional ID 497 : Re-regularized SCAN exchange by Furness et al
[ 1]  J. W. Furness, A. D. Kaplan, J. Ning, J. P. Perdew, and J. Sun.,  J. Phys. Chem. Lett. 11, 8208-8215 (2020)
[ 2]  J. W. Furness, A. D. Kaplan, J. Ning, J. P. Perdew, and J. Sun.,  J. Phys. Chem. Lett. 11, 9248-9248 (2020)
Using LibXC functional ID 498 : Re-regularized SCAN correlation by Furness et al
[ 1]  J. W. Furness, A. D. Kaplan, J. Ning, J. P. Perdew, and J. Sun.,  J. Phys. Chem. Lett. 11, 8208-8215 (2020)
[ 2]  J. W. Furness, A. D. Kaplan, J. Ning, J. P. Perdew, and J. Sun.,  J. Phys. Chem. Lett. 11, 9248-9248 (2020)
Using LibXC functional ID 497 : Re-regularized SCAN exchange by Furness et al
[ 1]  J. W. Furness, A. D. Kaplan, J. Ning, J. P. Perdew, and J. Sun.,  J. Phys. Chem. Lett. 11, 8208-8215 (2020)
[ 2]  J. W. Furness, A. D. Kaplan, J. Ning, J. P. Perdew, and J. Sun.,  J. Phys. Chem. Lett. 11, 9248-9248 (2020)
Using LibXC functional ID 498 : Re-regularized SCAN correlation by Furness et al
[ 1]  J. W. Furness, A. D. Kaplan, J. Ning, J. P. Perdew, and J. Sun.,  J. Phys. Chem. Lett. 11, 8208-8215 (2020)
[ 2]  J. W. Furness, A. D. Kaplan, J. Ning, J. P. Perdew, and J. Sun.,  J. Phys. Chem. Lett. 11, 9248-9248 (2020)

================================================================================
                                       INPUT FILE
================================================================================
NAME = xtb_opt.inp
|  1> ! r2scan-3c def2/J RI DEFGRID2 scfconv7 ENGRAD tightSCF miniprint
|  2> %cpcm
|  3>     smd true
|  4>     smdsolvent "water"
|  5> end
|  6> * xyzfile 0 1 xtb_opt.xyz
|  7> 
|  8>                          ****END OF INPUT****
================================================================================

                     *******************************
                     * Energy+Gradient Calculation *
                     *******************************

---------------------------------
CARTESIAN COORDINATES (ANGSTROEM)
---------------------------------
  C     -2.598265   -0.156346    1.247036
  C     -2.525058    0.066020   -0.260102
  C     -1.254680   -0.536174   -0.874594
  C     -0.019415    0.126698   -0.331187
  O      0.177799    1.331423   -0.356402
  O      0.847816   -0.757161    0.199021
  C      2.109840   -0.224066    0.716724
  C      3.110694   -0.038645   -0.400153
  H     -3.517883    0.266283    1.662908
  H     -2.578068   -1.225031    1.486838
  H     -1.753391    0.318254    1.760036
  H     -2.561887    1.137152   -0.486967
  H     -3.388937   -0.394664   -0.750329
  H     -1.248039   -0.369855   -1.958521
  H     -1.209115   -1.613124   -0.695051
  H      1.906498    0.707618    1.250214
  H      2.441062   -0.981651    1.429290
  H      4.056847    0.313054    0.023038
  H      3.296108   -0.985544   -0.915153
  H      2.764448    0.700477   -1.127504

----------------------------
CARTESIAN COORDINATES (A.U.)
----------------------------
  NO LB      ZA    FRAG     MASS         X           Y           Z
   0 C     6.0000    0    12.011   -4.910009   -0.295452    2.356557
   1 C     6.0000    0    12.011   -4.771669    0.124760   -0.491522
   2 C     6.0000    0    12.011   -2.371001   -1.013221   -1.652743
   3 C     6.0000    0    12.011   -0.036688    0.239424   -0.625852
   4 O     8.0000    0    15.999    0.335992    2.516024   -0.673502
   5 O     8.0000    0    15.999    1.602140   -1.430826    0.376094
   6 C     6.0000    0    12.011    3.987020   -0.423424    1.354413
   7 C     6.0000    0    12.011    5.878359   -0.073028   -0.756179
   8 H     1.0000    0     1.008   -6.647836    0.503201    3.142440
   9 H     1.0000    0     1.008   -4.871843   -2.314973    2.809717
  10 H     1.0000    0     1.008   -3.313429    0.601413    3.325986
  11 H     1.0000    0     1.008   -4.841266    2.148906   -0.920234
  12 H     1.0000    0     1.008   -6.404162   -0.745807   -1.417915
  13 H     1.0000    0     1.008   -2.358451   -0.698925   -3.701068
  14 H     1.0000    0     1.008   -2.284897   -3.048362   -1.313457
  15 H     1.0000    0     1.008    3.602759    1.337204    2.362561
  16 H     1.0000    0     1.008    4.612938   -1.855052    2.700968
  17 H     1.0000    0     1.008    7.666330    0.591586    0.043535
  18 H     1.0000    0     1.008    6.228742   -1.862408   -1.729389
  19 H     1.0000    0     1.008    5.224050    1.323710   -2.130674

------------------------------------------------------------------------------
                   ___                                                        
                  /   \      - P O W E R E D   B Y -                         
                 /     \                                                     
                 |  |  |   _    _      __       _____    __    __             
                 |  |  |  | |  | |    /  \     |  _  \  |  |  /  |          
                  \  \/   | |  | |   /    \    | | | |  |  | /  /          
                 / \  \   | |__| |  /  /\  \   | |_| |  |  |/  /          
                |  |  |   |  __  | /  /__\  \  |    /   |      \           
                |  |  |   | |  | | |   __   |  |    \   |  |\   \          
                \     /   | |  | | |  |  |  |  | |\  \  |  | \   \       
                 \___/    |_|  |_| |__|  |__|  |_| \__\ |__|  \__/        
                                                                              
                      - O R C A' S   B I G   F R I E N D -                    
                                      &                                       
                       - I N T E G R A L  F E E D E R -                       
                                                                              
 v1 FN, 2020, v2 2021, v3 2022-2024                                           
------------------------------------------------------------------------------


----------------------
SHARK INTEGRAL PACKAGE
----------------------

Number of atoms                             ...     20
Number of basis functions                   ...    222
Number of shells                            ...    110
Maximum angular momentum                    ...      2
Integral batch strategy                     ... SHARK/LIBINT Hybrid
RI-J (if used) integral strategy            ... SPLIT-RIJ (Revised 2003 algorithm where possible)
Printlevel                                  ...      1
Contraction scheme used                     ... SEGMENTED contraction
Prescreening option                         ... SCHWARTZ
   Thresh                                   ... 3.000e-11
   Tcut                                     ... 1.000e-12
   Tpresel                                  ... 1.000e-12 
Coulomb Range Separation                    ... NOT USED
Exchange Range Separation                   ... NOT USED
Multipole approximations                    ... NOT USED
Finite Nucleus Model                        ... NOT USED
CABS basis                                  ... NOT available
Auxiliary Coulomb fitting basis             ... AVAILABLE
   # of basis functions in Aux-J            ...    524
   # of shells in Aux-J                     ...    180
   Maximum angular momentum in Aux-J        ...      4
Auxiliary J/K fitting basis                 ... NOT available
Auxiliary Correlation fitting basis         ... NOT available
Auxiliary 'external' fitting basis          ... NOT available

Checking pre-screening integrals            ... done (  0.0 sec) Dimension = 110
Check shell pair data                       ... done (  0.0 sec)
Shell pair information
Shell pair cut-off parameter TPreSel        ...   1.0e-12
Total number of shell pairs                 ...      6105
Shell pairs after pre-screening             ...      5390
Total number of primitive shell pairs       ...     21533
Primitive shell pairs kept                  ...     13538
          la=0 lb=0:   1808 shell pairs
          la=1 lb=0:   2028 shell pairs
          la=1 lb=1:    591 shell pairs
          la=2 lb=0:    580 shell pairs
          la=2 lb=1:    330 shell pairs
          la=2 lb=2:     53 shell pairs

Calculating one electron integrals          ... done (  0.0 sec)
Calculating RI/J V-Matrix + Cholesky decomp.... done (  0.1 sec)
Calculating Nuclear repulsion               ... done (  0.0 sec) ENN=    394.390359207414 Eh

Diagonalization of the overlap matrix:
Smallest eigenvalue                        ... 1.869e-04
Time for diagonalization                   ...    0.008 sec
Threshold for overlap eigenvalues          ... 1.000e-07
Number of eigenvalues below threshold      ... 0
Time for construction of square roots      ...    0.015 sec
Total time needed                          ...    0.033 sec

-------------------
DFT GRID GENERATION
-------------------

General Integration Accuracy     IntAcc      ... 4.388
Radial Grid Type                 RadialGrid  ... OptM3 with GC (2021)
Angular Grid (max. ang.)         AngularGrid ... 4 (Lebedev-302)
Angular grid pruning method      GridPruning ... 4 (adaptive)
Weight generation scheme         WeightScheme... mBecke (2022)
Basis function cutoff            BFCut       ... 1.0000e-11
Integration weight cutoff        WCut        ... 1.0000e-14
Partially contracted basis set               ... off
Rotationally invariant grid construction     ... off
Angular grids for H and He will be reduced by one unit
Diffuse basis detected: some atoms will have their outermost
                        angular grid increased by 1.

Total number of grid points                  ...    87377
Total number of batches                      ...     1375
Average number of points per batch           ...       63
Average number of grid points per atom       ...     4369
Initializing property integral containers    ... done (  0.0 sec)

SHARK setup successfully completed in   1.3 seconds

Maximum memory used throughout the entire STARTUP-calculation: 39.5 MB
Occupation numbers will be reassigned to an Aufbau configuration
             **** ENERGY FILE WAS UPDATED (xtb_opt.en.tmp) ****
Finished Guess after   0.3 sec
Maximum memory used throughout the entire GUESS-calculation: 15.2 MB
--------------------
CPCM SOLVATION MODEL
--------------------
CPCM parameters:
  Epsilon                                         ...      78.3550
  Refrac                                          ...       1.3328
  Rsolv                                           ...       1.3000
  Surface type                                    ... GAUSSIAN VDW
  Discretization scheme                           ... Constant charge density
    Threshold for H atoms                         ...       5.0000 (charges/Ang^2)
    Threshold for non-H atoms                     ...       5.0000 (charges/Ang^2)
  Epsilon function type                           ...         CPCM
Solvent:                                          ... WATER
SMD-CDS solvent descriptors:
  Soln                                            ...       1.3328
  Soln25                                          ...       1.3323
  Sola                                            ...       0.0000
  Solb                                            ...       0.0000
  Solg                                            ...       0.0000
  Solc                                            ...       0.0000
  Solh                                            ...       0.0000
Radii:
  Scheme                                          ... Element-dependent radii
  Radius for C  used is    3.4960 Bohr (=   1.8500 Ang.)
  Radius for O  used is    2.8724 Bohr (=   1.5200 Ang.)
  Radius for H  used is    2.2677 Bohr (=   1.2000 Ang.)
Calculating surface                               ...        done! (  0.0s)
Cavity surface points                             ...         1511
Cavity Volume                                     ...     882.6804
Cavity Surface-area                               ...     588.2955
Calculating surface distance matrix               ...        done! (  0.0s)
Performing Cholesky decomposition & store         ...        done! (  0.1s)
Overall time for CPCM initialization              ...                 0.1s

----------------------------------------D-I-I-S--------------------------------------------
Iteration    Energy (Eh)           Delta-E    RMSDP     MaxDP     DIISErr   Damp  Time(sec)
-------------------------------------------------------------------------------------------
               ***  Starting incremental Fock matrix formation  ***
                              *** Initializing SOSCF ***
---------------------------------------S-O-S-C-F--------------------------------------
Iteration    Energy (Eh)           Delta-E    RMSDP     MaxDP     MaxGrad    Time(sec)
--------------------------------------------------------------------------------------
    1    -386.2571552518402882     0.00e+00  2.79e-05  4.78e-04  9.38e-05     3.5
               *** Restarting incremental Fock matrix formation ***
    2    -386.2571644377218831    -9.19e-06  1.37e-05  2.38e-04  1.10e-04     3.4
    3    -386.2571649510614975    -5.13e-07  8.07e-06  2.21e-04  1.43e-04     2.6
    4    -386.2571649116922003     3.94e-08  5.97e-06  1.24e-04  1.37e-04     2.6
                 **** Energy Check signals convergence ****

               *****************************************************
               *                     SUCCESS                       *
               *           SCF CONVERGED AFTER   4 CYCLES          *
               *****************************************************


SMD CDS free energy correction energy :                 4.77285     Kcal/mol
Total Energy after SMD CDS correction =              -386.249558889 Eh
             **** ENERGY FILE WAS UPDATED (xtb_opt.en.tmp) ****

----------------
TOTAL SCF ENERGY
----------------

Total Energy       :       -386.24955888934954 Eh          -10510.38484 eV

Components:
Nuclear Repulsion  :        394.39035920741429 Eh           10731.90727 eV
Electronic Energy  :       -780.63164243727135 Eh          -21242.06692 eV
One Electron Energy:      -1306.31942802474259 Eh          -35546.75880 eV
Two Electron Energy:        525.68778558747124 Eh           14304.69188 eV
CPCM Dielectric    :         -0.01588168183516 Eh              -0.43216 eV
SMD CDS (Gcds)     :          0.00760602234266 Eh               0.20697 eV

Virial components:
Potential Energy   :       -770.69915343134744 Eh          -20971.79015 eV
Kinetic Energy     :        384.44959454199795 Eh           10461.40532 eV
Virial Ratio       :          2.00468192546671

DFT components:
N(Alpha)           :       31.999999636462 electrons
N(Beta)            :       31.999999636462 electrons
N(Total)           :       63.999999272924 electrons
E(X)               :      -52.036246174701 Eh       
E(C)               :       -2.035671405386 Eh       
E(XC)              :      -54.071917580087 Eh       

CPCM Solvation Model Properties:
Surface-charge          :         -0.04721924004866
Corrected charge        :          0.00000000000000
Outlying charge corr.   :          0.00016825759490 Eh               0.00458 eV
Free-energy (cav+disp)  :          0.00760602234266 Eh               0.20697 eV

---------------
SCF CONVERGENCE
---------------

  Last Energy change         ...   -3.9369e-08  Tolerance :   1.0000e-07
  Last MAX-Density change    ...    1.2404e-04  Tolerance :   1.0000e-07
  Last RMS-Density change    ...    5.9707e-06  Tolerance :   5.0000e-09
  Last DIIS Error            ...    1.2272e-03  Tolerance :   1.0000e-07
  Last Orbital Gradient      ...    1.3720e-04  Tolerance :   1.0000e-04
  Last Orbital Rotation      ...    1.6075e-04  Tolerance :   1.0000e-04


----------------
ORBITAL ENERGIES
----------------

  NO   OCC          E(Eh)            E(eV) 
   0   2.0000     -19.002538      -517.0853 
   1   2.0000     -18.944142      -515.4963 
   2   2.0000     -10.164519      -276.5906 
   3   2.0000     -10.084455      -274.4120 
   4   2.0000     -10.037380      -273.1310 
   5   2.0000     -10.030559      -272.9454 
   6   2.0000     -10.020524      -272.6723 
   7   2.0000     -10.014754      -272.5153 
   8   2.0000      -1.068321       -29.0705 
   9   2.0000      -0.983662       -26.7668 
  10   2.0000      -0.767189       -20.8763 
  11   2.0000      -0.731170       -19.8962 
  12   2.0000      -0.672010       -18.2863 
  13   2.0000      -0.615433       -16.7468 
  14   2.0000      -0.560920       -15.2634 
  15   2.0000      -0.515653       -14.0316 
  16   2.0000      -0.472526       -12.8581 
  17   2.0000      -0.458133       -12.4664 
  18   2.0000      -0.438566       -11.9340 
  19   2.0000      -0.419954       -11.4275 
  20   2.0000      -0.405130       -11.0242 
  21   2.0000      -0.386098       -10.5063 
  22   2.0000      -0.367796       -10.0082 
  23   2.0000      -0.359653        -9.7867 
  24   2.0000      -0.351455        -9.5636 
  25   2.0000      -0.338250        -9.2043 
  26   2.0000      -0.310756        -8.4561 
  27   2.0000      -0.307079        -8.3560 
  28   2.0000      -0.302357        -8.2275 
  29   2.0000      -0.301578        -8.2064 
  30   2.0000      -0.279902        -7.6165 
  31   2.0000      -0.251934        -6.8555 
  32   0.0000      -0.027699        -0.7537 
  33   0.0000       0.075307         2.0492 
  34   0.0000       0.091427         2.4879 
  35   0.0000       0.118464         3.2236 
  36   0.0000       0.124002         3.3743 
  37   0.0000       0.137388         3.7385 
  38   0.0000       0.141249         3.8436 
  39   0.0000       0.141780         3.8580 
  40   0.0000       0.147859         4.0235 
  41   0.0000       0.166974         4.5436 
  42   0.0000       0.173733         4.7275 
*Only the first 10 virtual orbitals were printed.
Total SCF time: 0 days 0 hours 0 min 12 sec 
Finished LeanSCF after  12.9 sec

Maximum memory used throughout the entire LEANSCF-calculation: 30.9 MB


-------------------------------------------------------------------------------
                          DFT DISPERSION CORRECTION                            
                                                                               
                                DFTD4 V3.4.0                                   
-------------------------------------------------------------------------------
-------------------------   ----------------
Dispersion correction           -0.005129280
-------------------------   ----------------

------------------   -----------------
gCP correction             0.011504666
------------------   -----------------

-------------------------   --------------------
[...]
  Last RMS-Density change    ...    1.3064e-06  Tolerance :   5.0000e-09
  Last DIIS Error            ...    3.3710e-05  Tolerance :   1.0000e-07
  Last Orbital Gradient      ...    1.1517e-05  Tolerance :   1.0000e-04
  Last Orbital Rotation      ...    4.5674e-05  Tolerance :   1.0000e-04


----------------
ORBITAL ENERGIES
----------------

  NO   OCC          E(Eh)            E(eV) 
   0   2.0000     -19.001877      -517.0674 
   1   2.0000     -18.944681      -515.5110 
   2   2.0000     -10.164508      -276.5903 
   3   2.0000     -10.084407      -274.4107 
   4   2.0000     -10.037428      -273.1323 
   5   2.0000     -10.030490      -272.9435 
   6   2.0000     -10.020548      -272.6730 
   7   2.0000     -10.014715      -272.5142 
   8   2.0000      -1.067911       -29.0593 
   9   2.0000      -0.983602       -26.7652 
  10   2.0000      -0.767098       -20.8738 
  11   2.0000      -0.731154       -19.8957 
  12   2.0000      -0.671950       -18.2847 
  13   2.0000      -0.615129       -16.7385 
  14   2.0000      -0.560881       -15.2624 
  15   2.0000      -0.515564       -14.0292 
  16   2.0000      -0.472586       -12.8597 
  17   2.0000      -0.457854       -12.4588 
  18   2.0000      -0.438655       -11.9364 
  19   2.0000      -0.420022       -11.4294 
  20   2.0000      -0.404895       -11.0178 
  21   2.0000      -0.385958       -10.5024 
  22   2.0000      -0.367966       -10.0129 
  23   2.0000      -0.359497        -9.7824 
  24   2.0000      -0.351439        -9.5631 
  25   2.0000      -0.338127        -9.2009 
  26   2.0000      -0.310670        -8.4538 
  27   2.0000      -0.307090        -8.3564 
  28   2.0000      -0.302417        -8.2292 
  29   2.0000      -0.301523        -8.2049 
  30   2.0000      -0.279822        -7.6143 
  31   2.0000      -0.252121        -6.8606 
  32   0.0000      -0.027655        -0.7525 
  33   0.0000       0.075184         2.0458 
  34   0.0000       0.091337         2.4854 
  35   0.0000       0.118396         3.2217 
  36   0.0000       0.124102         3.3770 
  37   0.0000       0.137544         3.7428 
  38   0.0000       0.141020         3.8373 
  39   0.0000       0.141830         3.8594 
  40   0.0000       0.148089         4.0297 
  41   0.0000       0.166935         4.5425 
  42   0.0000       0.173927         4.7328 
*Only the first 10 virtual orbitals were printed.
Total SCF time: 0 days 0 hours 0 min 7 sec 
Finished LeanSCF after   7.7 sec

Maximum memory used throughout the entire LEANSCF-calculation: 30.9 MB


-------------------------------------------------------------------------------
                          DFT DISPERSION CORRECTION                            
                                                                               
                                DFTD4 V3.4.0                                   
-------------------------------------------------------------------------------
-------------------------   ----------------
Dispersion correction           -0.005125652
-------------------------   ----------------

------------------   -----------------
gCP correction             0.011502319
------------------   -----------------

-------------------------   --------------------
FINAL SINGLE POINT ENERGY      -386.243193884624
-------------------------   --------------------

------------------------------------------------------------------------------
                         ORCA SCF GRADIENT CALCULATION
------------------------------------------------------------------------------

Nuc. rep. gradient        (SHARK) ... done (  0.0 sec)
HCore & Overlap gradient  (SHARK) ... done (  0.3 sec)
Split-RIJ-J gradient      (SHARK) ... done (  1.6 sec)
XC gradient                       ... done (  5.9 sec)
CPCM gradient                     ... done (  0.9 sec)
SMD gradient                      ... done (  0.0 sec)
Dispersion correction             ... done (  0.0 sec)

-------------------
DISPERSION GRADIENT
-------------------

   1   C   :   -0.000076190   -0.000004616    0.000051778
   2   C   :   -0.000069369    0.000004305   -0.000014610
   3   C   :   -0.000055717   -0.000024016   -0.000047938
   4   C   :    0.000003517    0.000009580   -0.000019834
   5   O   :    0.000013125    0.000073820   -0.000021964
   6   O   :    0.000054907   -0.000025940    0.000008247
   7   C   :    0.000077972   -0.000002265    0.000028687
   8   C   :    0.000082308    0.000000598   -0.000007905
   9   H   :   -0.000028440    0.000003035    0.000022884
  10   H   :   -0.000032733   -0.000011721    0.000024215
  11   H   :   -0.000034879    0.000005290    0.000027276
  12   H   :   -0.000023777    0.000011241   -0.000005477
  13   H   :   -0.000027739   -0.000003392   -0.000007048
  14   H   :   -0.000016282   -0.000004657   -0.000034409
  15   H   :   -0.000017672   -0.000024475   -0.000017438
  16   H   :    0.000029591    0.000005508    0.000012534
  17   H   :    0.000027937   -0.000011583    0.000016858
  18   H   :    0.000028556    0.000001353   -0.000001274
  19   H   :    0.000032879   -0.000008327   -0.000006892
  20   H   :    0.000032004    0.000006264   -0.000007690

Difference to translation invariance:
           :   -0.0000000000   -0.0000000000    0.0000000000

Difference to rotation invariance:
           :   -0.0000000000   -0.0000000000   -0.0000000000

Norm of the Dispersion gradient    ...    0.0002416570
RMS gradient                       ...    0.0000311978
MAX gradient                       ...    0.0000823079
gCP correction                   ... done

------------------
CARTESIAN GRADIENT
------------------

   1   C   :    0.000009324   -0.000020189   -0.000011524
   2   C   :   -0.000040928   -0.000009219   -0.000018116
   3   C   :    0.000014820    0.000015809    0.000059870
   4   C   :   -0.000113661    0.000134668   -0.000218445
   5   O   :   -0.000014476   -0.000019890    0.000025634
   6   O   :   -0.000005543   -0.000218330    0.000024183
   7   C   :    0.000210072    0.000101617    0.000118432
   8   C   :   -0.000069082   -0.000028208    0.000013433
   9   H   :    0.000006401   -0.000027549    0.000011897
  10   H   :    0.000020495   -0.000013150   -0.000010483
  11   H   :    0.000006276   -0.000010949    0.000004704
  12   H   :    0.000001023    0.000018051    0.000010711
  13   H   :   -0.000030617    0.000021104    0.000012794
  14   H   :   -0.000008581    0.000024979    0.000002232
  15   H   :   -0.000003533    0.000024882   -0.000006627
  16   H   :   -0.000029203   -0.000000445   -0.000039080
  17   H   :   -0.000006986    0.000028911    0.000025218
  18   H   :    0.000009018   -0.000000166    0.000022876
  19   H   :    0.000020343   -0.000022662    0.000002483
  20   H   :    0.000024838    0.000000737   -0.000030193

Difference to translation invariance:
           :   -0.0000000000   -0.0000000000    0.0000000000

Difference to rotation invariance:
           :    0.0000767004   -0.0000165850    0.0001051893

Norm of the Cartesian gradient     ...    0.0004706156
RMS gradient                       ...    0.0000607562
MAX gradient                       ...    0.0002184454

-------
TIMINGS
-------

Total SCF gradient time     ....        9.635 sec

Densities                   ....       0.001 sec  (  0.0%)
One electron gradient       ....       0.296 sec  (  3.1%)
RI-J Coulomb gradient       ....       1.628 sec  ( 16.9%)
XC gradient                 ....       5.929 sec  ( 61.5%)
CPCM gradient               ....       0.938 sec  (  9.7%)
   A-Matrix (El+Nuc)        ....       0.080 sec  (  0.8%)
   Potential                ....       0.858 sec  (  8.9%)
SMD gradient                ....       0.015 sec  (  0.2%)

Maximum memory used throughout the entire SCFGRAD-calculation: 35.4 MB

------------------------------------------------------------------------------
                              ORCA PROPERTY CALCULATIONS
------------------------------------------------------------------------------

GBWName                                 ... xtb_opt.gbw
Number of atoms                         ...     20
Number of basis functions               ...    222
Max core memory                         ...   1024 MB

Electric properties:
Dipole moment                           ... YES
Quadrupole moment                       ...  NO
Static polarizability (Dipole/Dipole)   ...  NO
Static polarizability (Dipole/Quad.)    ...  NO
Static polarizability (Quad./Quad.)     ...  NO
Static polarizability (Velocity)        ...  NO

Atomic electric properties:
Dipole moment                           ...  NO
Quadrupole moment                       ...  NO
Static polarizability                   ...  NO

Choice of electric origin               ... Center of mass
Position of electric origin             ...     0.006869    -0.037333     0.004298

General magnetic properties:
Magnetizability                         ...  NO

EPR properties:
g-Tensor (aka g-matrix)                 ...  NO
Zero-Field splitting spin-orbit         ...  NO
Zero-field splitting spin-spin          ...  NO
Hyperfine couplings                     ...  NO (   0 nuclei)
Quadrupole couplings                    ...  NO (   0 nuclei)
Contact density                         ...  NO (   0 nuclei)

NMR properties:
Chemical shifts                         ...  NO (   0 nuclei)
Spin-rotation constants                 ...  NO (   0 nuclei)
Spin-spin couplings                     ...  NO (   0 nuclei,    0 pairs)

Choice of magnetic origin               ... GIAO
Position of magnetic origin             ...     0.000000     0.000000     0.000000

Properties with geometric perturbations:
SCF Hessian                             ...  NO
IR spectrum                             ...  NO
VCD spectrum                            ...  NO
X-ray spectroscopy properties:
SCF XES/XAS/RIXS spectra                ...  NO


-------------
DIPOLE MOMENT
-------------

Method             : SCF
Type of density    : Electron Density
Multiplicity       :   1
Irrep              :   0
Energy             :  -386.2495705517692386 Eh
Relativity type    : 
Basis              : AO
                                X                 Y                 Z
Electronic contribution:      1.892353895       0.752559687      -1.419101356
Nuclear contribution   :     -1.704159937      -1.752270357       1.552735029
                        -----------------------------------------
Total Dipole Moment    :      0.188193958      -0.999710671       0.133633672
                        -----------------------------------------
Magnitude (a.u.)       :      1.026009917
Magnitude (Debye)      :      2.607909954



--------------------
Rotational spectrum 
--------------------
 
Rotational constants in cm-1:             0.153799             0.034078             0.032859 
Rotational constants in MHz :          4610.778763          1021.646175           985.102604 

Dipole components along the rotational axes: 
x,y,z [a.u.] :     0.184202     0.665422     0.758933 
x,y,z [Debye]:     0.468204     1.691367     1.929056 

 

Dipole moment calculation done in   0.0 sec 

Maximum memory used throughout the entire PROP-calculation: 14.0 MB

--------------------------------
SUGGESTED CITATIONS FOR THIS RUN
--------------------------------

Below you find a list of papers that are relevant to this ORCA run
We neither can nor want to force you to cite these papers, but we appreciate if you do
You receive ORCA, which is the product of decades of hard work by many enthusiastic individuals, for free
The only thing we kindly ask in return is that you cite our papers,
We deeply appreciate it, if you show your appreciation for ORCA by not just citing the generic ORCA reference.

Please note that relegating all ORCA citations to the supporting information does *not* help us.
SI sections are not indexed - citations you put there will not count into any citation statistics
But we need these citations in order to attract the funding resources that allow us to do what we are doing

Therefore, if you are a happy ORCA user, please consider citing a few of the papers listed below in the main body of your paper

In addition to the list printed below, the program has created the file xtb_opt.bibtex that contains the list in bibtex format
You can import this file easily into all common literature databanks and citation aid programs


List of essential papers. We consider these as the minimum necessary citations

  1. Neese,F.
     Software update: the ORCA program system, version 5.0
     WIRES Comput. Molec. Sci., 2022 12(1)e1606
     doi.org/10.1002/wcms.1606
  2. Grimme,S.; Hansen,A.; Ehlert,S.; Mewes,J.
     r2SCAN-3c: A 'Swiss army knife' composite electronic-structure method
     J. Chem. Phys., 2021 154 064103
     doi.org/10.1063/5.0040021

List of papers to cite with high priority. The work reported in these papers was absolutely
necessary for this run to complete.
Our perspective: the developers of density functionals and basis sets usually get cited in chemistry papers
Good! But without the algorithms to do something with them, the functionals or basis sets would not do anything.
Hence, in our opinion, the algorithm design and method developments papers are equally worthy of getting cited

  1. Neese,F.
     An improvement of the resolution of the identity approximation for the formation of the Coulomb matrix
     J. Comp. Chem., 2003 24(14)1740-1747
     doi.org/10.1002/jcc.10318
  2. Garcia-Rates,M.; Neese,F.
     Effect of the Solute Cavity on the Solvation Energy and its Derivatives within the Framework of the Gaussian Charge Scheme
     J. Comput. Chem., 2020 41 922-939
     doi.org/10.1002/jcc.26139
  3. Neese,F.
     The SHARK Integral Generation and Digestion System
     J. Comp. Chem., 2022  1-16
     doi.org/10.1002/jcc.26942
  4. Lehtola,S.; Steigemann,C.; Oliveira,M.; Marques,M.
     Recent developments in Libxc - A comprehensive library of functionals for density functional theory
     Software X, 2018 7 
     doi.org/10.1016/j.softx.2017.11.002
  5. Caldeweyher,E.; Bannwarth,C.; Grimme,S.
     Extension of the D3 dispersion coefficient model
     J. Chem. Phys., 2017 147 034112-XXXX
     doi.org/10.1063/1.4993215
  6. Caldeweyher,E.; Ehlert,S.; Hansen,A.; Neugebauer,H.; Spicher,S.; Bannwarth,C.; Grimme,S.
     A generally applicable atomic-charge dependent London dispersion correction
     J. Chem. Phys., 2019 150 154122-XXXX
     doi.org/10.1063/1.5090222
  7. Caldeweyher,E.; Mewes,J.; Ehlert,S.; Grimme,S.
     Extension and evaluation of the D4 London-dispersion model for periodic systems
     Phys. Chem. Chem. Phys., 2020 22(16)8499-8512
     doi.org/10.1039/D0CP00502A

List of suggested additional citations. These are papers that are important in the 'surrounding' of 
of this run, or papers that preceded the highly important papers. If you like your results we are grateful for a citation.

  1. Neese,F.
     The ORCA program system
     WIRES Comput. Molec. Sci., 2012 2(1)73-78
     doi.org/10.1002/wcms.81
  2. Neese,F.
     Software update: the ORCA program system, version 4.0
     WIRES Comput. Molec. Sci., 2018 8(1)1-6
     doi.org/10.1002/wcms.1327
  3. Neese,F.; Wennmohs,F.; Becker,U.; Riplinger,C.
     The ORCA quantum chemistry program package
     J. Chem. Phys., 2020 152 Art. No. L224108
     doi.org/10.1063/5.0004608

List of optional additional citations

  1. Neese,F.
     Approximate second-order SCF convergence for spin unrestricted wavefunctions
     Chem. Phys. Lett., 2000 325(1-3)93-98
     doi.org/10.1016/s0009-2614(00)00662-x

Timings for individual modules:

Sum of individual times          ...       19.413 sec (=   0.324 min)
Startup calculation              ...        1.488 sec (=   0.025 min)   7.7 %
SCF iterations                   ...        8.072 sec (=   0.135 min)  41.6 %
Property calculations            ...        0.114 sec (=   0.002 min)   0.6 %
SCF Gradient evaluation          ...        9.740 sec (=   0.162 min)  50.2 %
                             ****ORCA TERMINATED NORMALLY****
TOTAL RUN TIME: 0 days 0 hours 0 minutes 20 seconds 296 msec
  ------------------------------------------------------------------------
          * successful ORCA run, taking over control again...

         :::::::::::::::::::::::::::::::::::::::::::::::::::::
         ::                  ORCA SUMMARY                   ::
         :::::::::::::::::::::::::::::::::::::::::::::::::::::
         :: total energy            -386.243193884624 Eh    ::
         :: gradient norm              0.000470615608 Eh/a0 ::
         :: HOMO-LUMO gap              0.000000000000 eV    ::
         :::::::::::::::::::::::::::::::::::::::::::::::::::::

           -------------------------------------------------
          |                Property Printout                |
           -------------------------------------------------
           -------------------------------------------------
          |                Geometry Summary                 |
           -------------------------------------------------

      molecular mass/u    :      116.1585142
   center of mass at/Å    :        0.0036419      -0.0197513       0.0022726
  moments of inertia/u·Å² :        0.1096068E+03   0.4946586E+03   0.5130088E+03
rotational constants/cm⁻¹ :        0.1538010E+00   0.3407932E-01   0.3286032E-01

 * 17 selected distances

     #   Z          #   Z                                           value/Å
     1   6 C        2   6 C                                       1.5253292
     2   6 C        3   6 C                                       1.5341641 (max)
     4   6 C        5   8 O                                       1.2209645
     4   6 C        6   8 O                                       1.3475825
     7   6 C        8   6 C                                       1.5108316
     1   6 C        9   1 H                                       1.0942231
     1   6 C       10   1 H                                       1.0955112
     1   6 C       11   1 H                                       1.0965135
     2   6 C       12   1 H                                       1.0955432
     2   6 C       13   1 H                                       1.0949442
     3   6 C       14   1 H                                       1.0967667
     3   6 C       15   1 H                                       1.0927904
     7   6 C       16   1 H                                       1.0926324
     7   6 C       17   1 H                                       1.0915116 (min)
     8   6 C       18   1 H                                       1.0946722
     8   6 C       19   1 H                                       1.0938182
     8   6 C       20   1 H                                       1.0933118

 * 3 distinct bonds (by element types)

   Z      Z             #   av. dist./Å        max./Å        min./Å
   1 H    6 C          12     1.0943532     1.0967667     1.0915116
   6 C    6 C           3     1.5234416     1.5341641     1.5108316
   6 C    8 O           2     1.2842735     1.3475825     1.2209645


optimized geometry written to: xtbopt.coord


           -------------------------------------------------
          | TOTAL ENERGY             -386.243193884624 Eh   |
          | GRADIENT NORM               0.000470615608 Eh/α |
           -------------------------------------------------

------------------------------------------------------------------------
 * finished run on 2025/04/11 at 16:48:45.930     
------------------------------------------------------------------------
 total:
 * wall-time:     0 d,  0 h,  2 min, 37.008 sec
 *  cpu-time:     0 d,  0 h,  0 min,  2.285 sec
 * ratio c/w:     0.015 speedup
 SCF:
 * wall-time:     0 d,  0 h,  0 min, 24.068 sec
 *  cpu-time:     0 d,  0 h,  0 min,  1.061 sec
 * ratio c/w:     0.044 speedup
 ANC optimizer:
 * wall-time:     0 d,  0 h,  2 min, 12.844 sec
 *  cpu-time:     0 d,  0 h,  0 min,  0.928 sec
 * ratio c/w:     0.007 speedup

