
                                 *****************
                                 * O   R   C   A *
                                 *****************

                                            #,                                       
                                            ###                                      
                                            ####                                     
                                            #####                                    
                                            ######                                   
                                           ########,                                 
                                     ,,################,,,,,                         
                               ,,#################################,,                 
                          ,,##########################################,,             
                       ,#########################################, ''#####,          
                    ,#############################################,,   '####,        
                  ,##################################################,,,,####,       
                ,###########''''           ''''###############################       
              ,#####''   ,,,,##########,,,,          '''####'''          '####       
            ,##' ,,,,###########################,,,                        '##       
           ' ,,###''''                  '''############,,,                           
         ,,##''                                '''############,,,,        ,,,,,,###''
      ,#''                                            '''#######################'''  
     '                                                          ''''####''''         
             ,#######,   #######,   ,#######,      ##                                
            ,#'     '#,  ##    ##  ,#'     '#,    #''#        ,####,   ,####,        
            ##       ##  ##   ,#'  ##            #'  '#       #'       #'  '#        
            ##       ##  #######   ##           ,######,      #####,   #    #        
            '#,     ,#'  ##    ##  '#,     ,#' ,#      #,     #,   #   #,  ,#        
             '#######'   ##     ##  '#######'  #'      '#     '####' # '####'        



                #########################################################
                #                        -***-                          #
                #          Department of theory and spectroscopy        #
                #                                                       #
                #                      Frank Neese                      #
                #                                                       #
                #     Directorship, Architecture, Infrastructure        #
                #                    SHARK, DRIVERS                     #
                #        Core code/Algorithms in most modules           #
                #                                                       #
                #        Max Planck Institute fuer Kohlenforschung      #
                #                Kaiser Wilhelm Platz 1                 #
                #                 D-45470 Muelheim/Ruhr                 #
                #                      Germany                          #
                #                                                       #
                #                  All rights reserved                  #
                #                        -***-                          #
                #########################################################


                         Program Version 6.0.0  -   RELEASE  -


 With contributions from (in alphabetic order):
   Daniel Aravena         : Magnetic Suceptibility
   Michael Atanasov       : Ab Initio Ligand Field Theory (pilot matlab implementation)
   Alexander A. Auer      : GIAO ZORA, VPT2 properties, NMR spectrum
   Ute Becker             : All parallelization in ORCA, NUMFREQ, NUMCALC
   Giovanni Bistoni       : ED, misc. LED, open-shell LED, HFLD
   Martin Brehm           : Molecular dynamics
   Dmytro Bykov           : pre 5.0 version of the SCF Hessian
   Marcos Casanova-Páez   : Triplet and SCS-CIS(D). UHF-(DLPNO)-IP/EA/STEOM-CCSD. UHF-CVS-IP/STEOM-CCSD
   Vijay G. Chilkuri      : MRCI spin determinant printing, contributions to CSF-ICE
   Pauline Colinet        : FMM embedding
   Dipayan Datta          : RHF DLPNO-CCSD density
   Achintya Kumar Dutta   : EOM-CC, STEOM-CC
   Nicolas Foglia         : Exact transition moments, OPA infrastructure, MCD improvements
   Dmitry Ganyushin       : Spin-Orbit,Spin-Spin,Magnetic field MRCI
   Miquel Garcia          : C-PCM and meta-GGA Hessian, CCSD/C-PCM, Gaussian charge scheme
   Tiago L. C. Gouveia    : GS-ROHF, GS-ROCIS
   Yang Guo               : DLPNO-NEVPT2, F12-NEVPT2, CIM, IAO-localization
   Andreas Hansen         : Spin unrestricted coupled pair/coupled cluster methods
   Ingolf Harden          : AUTO-CI MPn and infrastructure 
   Benjamin Helmich-Paris : MC-RPA, TRAH-(SCF,CASSCF), AVAS, COSX integrals, SCF dyn. polar.
   Lee Huntington         : MR-EOM, pCC
   Robert Izsak           : Overlap fitted RIJCOSX, COSX-SCS-MP3, EOM
   Riya Kayal             : Wick's Theorem for AUTO-CI, AUTO-CI UHF-CCSDT
   Emily Kempfer          : AUTO-CI, RHF CISDT and CCSDT
   Christian Kollmar      : KDIIS, OOCD, Brueckner-CCSD(T), CCSD density, CASPT2, CASPT2-K, improved NEVPT2
   Axel Koslowski         : Symmetry handling
   Simone Kossmann        : Meta GGA functionals, TD-DFT gradient, OOMP2, (MP2 Hessian; deprecated post 5.0)
   Lucas Lang             : DCDCAS
   Marvin Lechner         : AUTO-CI (C++ implementation), FIC-MRCC
   Spencer Leger          : CASSCF response
   Dagmar Lenk            : GEPOL surface, SMD, ORCA-2-JSON
   Dimitrios Liakos       : Extrapolation schemes; Compound Job, initial MDCI parallelization
   Dimitrios Manganas     : Further ROCIS development; embedding schemes. LFT, Crystal Embedding
   Dimitrios Pantazis     : SARC Basis sets
   Anastasios Papadopoulos: AUTO-CI, single reference methods and gradients
   Taras Petrenko         : pre 6.0 DFT Hessian and TD-DFT gradient, (ASA, deprecated), ECA, 1-Electron XAS/XES, NRVS
   Peter Pinski           : DLPNO-MP2, DLPNO-MP2 Gradient
   Christoph Reimann      : Effective Core Potentials
   Marius Retegan         : Local ZFS, SOC
   Christoph Riplinger    : Optimizer, TS searches, QM/MM, DLPNO-CCSD(T), (RO)-DLPNO pert. Triples
   Michael Roemelt        : Original ROCIS implementation
   Masaaki Saitow         : Open-shell DLPNO-CCSD energy and density
   Barbara Sandhoefer     : DKH picture change effects
   Kantharuban Sivalingam : CASSCF convergence/infrastructure, NEVPT2 and variants, FIC-MRCI
   Bernardo de Souza      : ESD, SOC TD-DFT
   Georgi Stoychev        : AutoAux, RI-MP2 NMR, DLPNO-MP2 response, X2C
   Van Anh Tran           : RI-MP2 g-tensors
   Willem Van den Heuvel  : Paramagnetic NMR
   Zikuan Wang            : NOTCH, Electric field optimization 
   Frank Wennmohs         : Technical directorship and infrastructure
   Hang Xu                : AUTO-CI-Response properties 


 We gratefully acknowledge several colleagues who have allowed us to
 interface, adapt or use parts of their codes:
   Stefan Grimme, W. Hujo, H. Kruse, P. Pracht,  : VdW corrections, initial TS optimization,
                  C. Bannwarth, S. Ehlert,         DFT functionals, gCP, sTDA/sTD-DF
                  L. Wittmann, M. Mueller
   Ed Valeev, F. Pavosevic, A. Kumar             : LibInt (2-el integral package), F12 methods
   Garnet Chan, S. Sharma, J. Yang, R. Olivares  : DMRG
   Ulf Ekstrom                                   : XCFun DFT Library
   Mihaly Kallay                                 : mrcc  (arbitrary order and MRCC methods)
   Frank Weinhold                                : gennbo (NPA and NBO analysis)
   Simon Mueller                                 : openCOSMO-RS
   Christopher J. Cramer and Donald G. Truhlar   : smd solvation model
   Lars Goerigk                                  : TD-DFT with DH, B97 family of functionals
   V. Asgeirsson, H. Jonsson                     : NEB implementation
   FAccTs GmbH                                   : IRC, NEB, NEB-TS, DLPNO-Multilevel, CI-OPT
                                                   MM, QMMM, 2- and 3-layer-ONIOM, Crystal-QMMM,
                                                   LR-CPCM, SF, NACMEs, symmetry and pop. for TD-DFT,
                                                   nearIR, NL-DFT gradient (VV10), updates on ESD,
                                                   ML-optimized integration grids, MBIS, APM,
                                                   GOAT, DOCKER, SOLVATOR, interface openCOSMO-RS
   S Lehtola, MJT Oliveira, MAL Marques          : LibXC Library
   Liviu Ungur et al                             : ANISO software


 Your calculation uses the libint2 library for the computation of 2-el integrals
 For citations please refer to: http://libint.valeyev.net

 Your ORCA version has been built with support for libXC version: 6.2.2
 For citations please refer to: https://libxc.gitlab.io

 This ORCA versions uses:
   CBLAS   interface :  Fast vector & matrix operations
   LAPACKE interface :  Fast linear algebra routines
   SCALAPACK package :  Parallel linear algebra routines
   Shared memory     :  Shared parallel matrices
   BLAS/LAPACK       :  OpenBLAS 0.3.27  USE64BITINT DYNAMIC_ARCH NO_AFFINITY SkylakeX SINGLE_THREADED
        Core in use  :  SkylakeX
   Copyright (c) 2011-2014, The OpenBLAS Project


Your calculation utilizes the geometrical counterpoise correction gCP
Please cite in your paper:
H.Kruse, S. Grimme J.Chem.Phys., 136, (2012), 154101 
   

Your calculation utilizes the atom-pairwise dispersion correction
based on EEQ partial charges (D4)


Your calculation utilizes the SMD solvation module
Please cite in your paper:
A.V. Marenich, C.J. Cramer, D.G. Truhlar J. Phys. Chem. B, 113, (2009), 6378 

================================================================================

----- Orbital basis set information -----
Your calculation utilizes the basis: def2-mTZVPP
   Stefan Grimme, Andreas Hansen, Sebastian Ehlert, and Jan-Michael Mewes 
   J. Chem. Phys. 154, 064103 (2021). DOI: 10.1063/5.0040021

----- AuxJ basis set information -----
Your calculation utilizes the auxiliary basis: def2/J
   F. Weigend, Phys. Chem. Chem. Phys. 8, 1057 (2006).

================================================================================
                                        WARNINGS
                       Please study these warnings very carefully!
================================================================================

Using LibXC functional ID 497 : Re-regularized SCAN exchange by Furness et al
[ 1]  J. W. Furness, A. D. Kaplan, J. Ning, J. P. Perdew, and J. Sun.,  J. Phys. Chem. Lett. 11, 8208-8215 (2020)
[ 2]  J. W. Furness, A. D. Kaplan, J. Ning, J. P. Perdew, and J. Sun.,  J. Phys. Chem. Lett. 11, 9248-9248 (2020)
Using LibXC functional ID 498 : Re-regularized SCAN correlation by Furness et al
[ 1]  J. W. Furness, A. D. Kaplan, J. Ning, J. P. Perdew, and J. Sun.,  J. Phys. Chem. Lett. 11, 8208-8215 (2020)
[ 2]  J. W. Furness, A. D. Kaplan, J. Ning, J. P. Perdew, and J. Sun.,  J. Phys. Chem. Lett. 11, 9248-9248 (2020)
Using LibXC functional ID 497 : Re-regularized SCAN exchange by Furness et al
[ 1]  J. W. Furness, A. D. Kaplan, J. Ning, J. P. Perdew, and J. Sun.,  J. Phys. Chem. Lett. 11, 8208-8215 (2020)
[ 2]  J. W. Furness, A. D. Kaplan, J. Ning, J. P. Perdew, and J. Sun.,  J. Phys. Chem. Lett. 11, 9248-9248 (2020)
Using LibXC functional ID 498 : Re-regularized SCAN correlation by Furness et al
[ 1]  J. W. Furness, A. D. Kaplan, J. Ning, J. P. Perdew, and J. Sun.,  J. Phys. Chem. Lett. 11, 8208-8215 (2020)
[ 2]  J. W. Furness, A. D. Kaplan, J. Ning, J. P. Perdew, and J. Sun.,  J. Phys. Chem. Lett. 11, 9248-9248 (2020)

================================================================================
                                       INPUT FILE
================================================================================
NAME = sp_solv.inp
|  1> ! r2scan-3c def2/J RI DEFGRID2 scfconv6 printgap
|  2> %output
|  3>     printlevel normal
|  4> end
|  5> %cpcm
|  6>     smd true
|  7>     smdsolvent "water"
|  8> end
|  9> * xyz 0 1
| 10> C 2.1251060495 -0.3393890459 0.5861147048
| 11> C 1.3849189938 0.4527939139 -0.4858860652
| 12> C -0.0375725699 -0.0488947205 -0.7328646746
| 13> C -0.9816489855 0.2059806365 0.4407657346
| 14> N -2.3186344607 -0.2801217963 0.1211742883
| 15> H 2.1319301347 -1.3978173536 0.3370208097
| 16> H 3.1542414913 0.0032779055 0.6626940397
| 17> H 1.653884103 -0.2172449243 1.5575946912
| 18> H 1.3507799957 1.5069973957 -0.2003023367
| 19> H 1.9418064656 0.3822350846 -1.4226722065
| 20> H -0.4423337323 0.4543033039 -1.6148566193
| 21> H -0.0227694024 -1.1194429512 -0.9410380928
| 22> H -0.9625113454 1.2824747072 0.6886457844
| 23> H -0.6413508727 -0.3457752136 1.3202512054
| 24> H -2.6798442179 0.2223493354 -0.6831897069
| 25> H -2.9445166082 -0.1019286179 0.8983946218
| 26> *
| 27> 
| 28>                          ****END OF INPUT****
================================================================================

                       ****************************
                       * Single Point Calculation *
                       ****************************

---------------------------------
CARTESIAN COORDINATES (ANGSTROEM)
---------------------------------
  C      2.125106   -0.339389    0.586115
  C      1.384919    0.452794   -0.485886
  C     -0.037573   -0.048895   -0.732865
  C     -0.981649    0.205981    0.440766
  N     -2.318634   -0.280122    0.121174
  H      2.131930   -1.397817    0.337021
  H      3.154241    0.003278    0.662694
  H      1.653884   -0.217245    1.557595
  H      1.350780    1.506997   -0.200302
  H      1.941806    0.382235   -1.422672
  H     -0.442334    0.454303   -1.614857
  H     -0.022769   -1.119443   -0.941038
  H     -0.962511    1.282475    0.688646
  H     -0.641351   -0.345775    1.320251
  H     -2.679844    0.222349   -0.683190
  H     -2.944517   -0.101929    0.898395

----------------------------
CARTESIAN COORDINATES (A.U.)
----------------------------
  NO LB      ZA    FRAG     MASS         X           Y           Z
   0 C     6.0000    0    12.011    4.015868   -0.641352    1.107596
   1 C     6.0000    0    12.011    2.617118    0.855656   -0.918192
   2 C     6.0000    0    12.011   -0.071002   -0.092398   -1.384914
   3 C     6.0000    0    12.011   -1.855048    0.389247    0.832927
   4 N     7.0000    0    14.007   -4.381584   -0.529353    0.228986
   5 H     1.0000    0     1.008    4.028764   -2.641492    0.636877
   6 H     1.0000    0     1.008    5.960653    0.006194    1.252310
   7 H     1.0000    0     1.008    3.125388   -0.410533    2.943427
   8 H     1.0000    0     1.008    2.552604    2.847812   -0.378517
   9 H     1.0000    0     1.008    3.669482    0.722320   -2.688461
  10 H     1.0000    0     1.008   -0.835890    0.858509   -3.051637
  11 H     1.0000    0     1.008   -0.043028   -2.115441   -1.778304
  12 H     1.0000    0     1.008   -1.818883    2.423526    1.301352
  13 H     1.0000    0     1.008   -1.211978   -0.653420    2.494913
  14 H     1.0000    0     1.008   -5.064172    0.420179   -1.291041
  15 H     1.0000    0     1.008   -5.564330   -0.192617    1.697720

--------------------------------
INTERNAL COORDINATES (ANGSTROEM)
--------------------------------
 C      0   0   0     0.000000000000     0.00000000     0.00000000
 C      1   0   0     1.524669265809     0.00000000     0.00000000
 C      2   1   0     1.528454176017   113.25898938     0.00000000
 C      3   2   1     1.527628902416   113.34402744    68.44277313
 N      4   3   2     1.458068732474   110.03907169   179.11395679
 H      1   2   3     1.087366000598   110.34848884    55.49295266
 H      1   2   3     1.087384380835   110.19707254   175.26905185
 H      1   2   3     1.086619838435   111.07979109   295.14559837
 H      2   1   3     1.092734422545   109.43082613   122.16055697
 H      2   1   3     1.092094537653   108.78327796   239.46537885
 H      3   2   1     1.093137521478   108.89815486   189.07365230
 H      3   2   1     1.090701068152   109.89987911   306.74219012
 H      4   3   2     1.104830418032   108.91886054    54.79928960
 H      4   3   2     1.092580439621   109.97966177   296.83887298
 H      5   4   3     1.014865096287   109.57392223   298.41059183
 H      5   4   3     1.013682750269   109.84619753   180.51487956

---------------------------
INTERNAL COORDINATES (A.U.)
---------------------------
 C      0   0   0     0.000000000000     0.00000000     0.00000000
 C      1   0   0     2.881207357187     0.00000000     0.00000000
 C      2   1   0     2.888359800921   113.25898938     0.00000000
 C      3   2   1     2.886800259829   113.34402744    68.44277313
 N      4   3   2     2.755350588809   110.03907169   179.11395679
 H      1   2   3     2.054823948467   110.34848884    55.49295266
 H      1   2   3     2.054858682082   110.19707254   175.26905185
 H      1   2   3     2.053413906328   111.07979109   295.14559837
 H      2   1   3     2.064968795718   109.43082613   122.16055697
 H      2   1   3     2.063759588516   108.78327796   239.46537885
 H      3   2   1     2.065730542307   108.89815486   189.07365230
 H      3   2   1     2.061126312783   109.89987911   306.74219012
 H      4   3   2     2.087826914507   108.91886054    54.79928960
 H      4   3   2     2.064677810164   109.97966177   296.83887298
 H      5   4   3     1.917817094859   109.57392223   298.41059183
 H      5   4   3     1.915582784689   109.84619753   180.51487956

---------------------
BASIS SET INFORMATION
---------------------
There are 3 groups of distinct atoms

 Group   1 Type C   : 11s6p1d contracted to 5s3p1d pattern {62111/411/1}
 Group   2 Type N   : 11s6p2d contracted to 5s3p2d pattern {62111/411/11}
 Group   3 Type H   : 4s1p contracted to 2s1p pattern {31/1}

Atom   0C    basis set group =>   1
Atom   1C    basis set group =>   1
Atom   2C    basis set group =>   1
Atom   3C    basis set group =>   1
Atom   4N    basis set group =>   2
Atom   5H    basis set group =>   3
Atom   6H    basis set group =>   3
Atom   7H    basis set group =>   3
Atom   8H    basis set group =>   3
Atom   9H    basis set group =>   3
Atom  10H    basis set group =>   3
Atom  11H    basis set group =>   3
Atom  12H    basis set group =>   3
Atom  13H    basis set group =>   3
Atom  14H    basis set group =>   3
Atom  15H    basis set group =>   3
---------------------------------
AUXILIARY/J BASIS SET INFORMATION
---------------------------------
There are 3 groups of distinct atoms

 Group   1 Type C   : 12s5p4d2f1g contracted to 6s4p3d1f1g pattern {711111/2111/211/2/1}
 Group   2 Type N   : 12s5p4d2f1g contracted to 6s4p3d1f1g pattern {711111/2111/211/2/1}
 Group   3 Type H   : 5s2p1d contracted to 3s1p1d pattern {311/2/1}

Atom   0C    basis set group =>   1
Atom   1C    basis set group =>   1
Atom   2C    basis set group =>   1
Atom   3C    basis set group =>   1
Atom   4N    basis set group =>   2
Atom   5H    basis set group =>   3
Atom   6H    basis set group =>   3
Atom   7H    basis set group =>   3
Atom   8H    basis set group =>   3
Atom   9H    basis set group =>   3
Atom  10H    basis set group =>   3
Atom  11H    basis set group =>   3
Atom  12H    basis set group =>   3
Atom  13H    basis set group =>   3
Atom  14H    basis set group =>   3
Atom  15H    basis set group =>   3

Checking for AutoStart:
The File: sp_solv.gbw exists
Trying to determine its content:
     ... Fine, the file contains calculation information
     ... Fine, the calculation information was read
     ... Fine, the file contains a basis set
     ... Fine, the basis set was read
     ... Fine, the file contains a geometry
     ... Fine, the geometry was read
     ... Fine, the file contains a set of orbitals
     ... Fine, the orbitals can be read
     => possible old guess file was deleted
     => GBW file was renamed to GES file
     => GES file is set as startup file
     => Guess is set to MORead
     ... now leaving AutoStart

------------------------------------------------------------------------------
                             ORCA STARTUP CALCULATIONS
                           -- RI-GTO INTEGRALS CHOSEN --
------------------------------------------------------------------------------
------------------------------------------------------------------------------
                   ___                                                        
                  /   \      - P O W E R E D   B Y -                         
                 /     \                                                     
                 |  |  |   _    _      __       _____    __    __             
                 |  |  |  | |  | |    /  \     |  _  \  |  |  /  |          
                  \  \/   | |  | |   /    \    | | | |  |  | /  /          
                 / \  \   | |__| |  /  /\  \   | |_| |  |  |/  /          
                |  |  |   |  __  | /  /__\  \  |    /   |      \           
                |  |  |   | |  | | |   __   |  |    \   |  |\   \          
                \     /   | |  | | |  |  |  |  | |\  \  |  | \   \       
                 \___/    |_|  |_| |__|  |__|  |_| \__\ |__|  \__/        
                                                                              
                      - O R C A' S   B I G   F R I E N D -                    
                                      &                                       
                       - I N T E G R A L  F E E D E R -                       
                                                                              
 v1 FN, 2020, v2 2021, v3 2022-2024                                           
------------------------------------------------------------------------------


----------------------
SHARK INTEGRAL PACKAGE
----------------------

Number of atoms                             ...     16
Number of basis functions                   ...    155
Number of shells                            ...     79
Maximum angular momentum                    ...      2
Integral batch strategy                     ... SHARK/LIBINT Hybrid
RI-J (if used) integral strategy            ... SPLIT-RIJ (Revised 2003 algorithm where possible)
Printlevel                                  ...      1
Contraction scheme used                     ... SEGMENTED contraction
Prescreening option                         ... SCHWARTZ
   Thresh                                   ... 1.000e-10
   Tcut                                     ... 1.000e-11
   Tpresel                                  ... 1.000e-11 
Coulomb Range Separation                    ... NOT USED
Exchange Range Separation                   ... NOT USED
Multipole approximations                    ... NOT USED
Finite Nucleus Model                        ... NOT USED
CABS basis                                  ... NOT available
Auxiliary Coulomb fitting basis             ... AVAILABLE
   # of basis functions in Aux-J            ...    366
   # of shells in Aux-J                     ...    130
   Maximum angular momentum in Aux-J        ...      4
Auxiliary J/K fitting basis                 ... NOT available
Auxiliary Correlation fitting basis         ... NOT available
Auxiliary 'external' fitting basis          ... NOT available

Checking pre-screening integrals            ... done (  0.0 sec) Dimension = 79
Check shell pair data                       ... done (  0.0 sec)
Shell pair information
Shell pair cut-off parameter TPreSel        ...   1.0e-11
Total number of shell pairs                 ...      3160
Shell pairs after pre-screening             ...      2954
Total number of primitive shell pairs       ...     10874
Primitive shell pairs kept                  ...      7738
          la=0 lb=0:   1053 shell pairs
          la=1 lb=0:   1139 shell pairs
          la=1 lb=1:    328 shell pairs
          la=2 lb=0:    268 shell pairs
          la=2 lb=1:    146 shell pairs
          la=2 lb=2:     20 shell pairs

Calculating one electron integrals          ... done (  0.0 sec)
Calculating RI/J V-Matrix + Cholesky decomp.... done (  0.1 sec)
Calculating Nuclear repulsion               ... done (  0.0 sec) ENN=    188.935938093773 Eh

Diagonalization of the overlap matrix:
Smallest eigenvalue                        ... 2.388e-04
Time for diagonalization                   ...    0.002 sec
Threshold for overlap eigenvalues          ... 1.000e-07
Number of eigenvalues below threshold      ... 0
Time for construction of square roots      ...    0.018 sec
Total time needed                          ...    0.029 sec

-------------------
DFT GRID GENERATION
-------------------

General Integration Accuracy     IntAcc      ... 4.388
Radial Grid Type                 RadialGrid  ... OptM3 with GC (2021)
Angular Grid (max. ang.)         AngularGrid ... 4 (Lebedev-302)
Angular grid pruning method      GridPruning ... 4 (adaptive)
Weight generation scheme         WeightScheme... mBecke (2022)
Basis function cutoff            BFCut       ... 1.0000e-10
Integration weight cutoff        WCut        ... 1.0000e-14
Partially contracted basis set               ... off
Rotationally invariant grid construction     ... off
Angular grids for H and He will be reduced by one unit

Total number of grid points                  ...    65472
Total number of batches                      ...     1030
Average number of points per batch           ...       63
Average number of grid points per atom       ...     4092
Initializing property integral containers    ... done (  0.0 sec)

SHARK setup successfully completed in   0.9 seconds

Maximum memory used throughout the entire STARTUP-calculation: 27.2 MB
-------------------------------------------------------------------------------
                                 ORCA GUESS
                   Start orbitals & Density for SCF / CASSCF
-------------------------------------------------------------------------------

------------
SCF SETTINGS
------------
Hamiltonian:
 Density Functional     Method          .... DFT(GTOs)
  Functional kind                       .... Exchange
  Functional name                       .... Re-regularized SCAN exchange by Furness et al
  Functional family                     .... MGGA
  Functional refs                              
    [ 0] J. W. Furness, A. D. Kaplan, J. Ning, J. P. Perdew, and J. Sun.,  J. Phys. Chem. Lett. 11, 8208-8215 (2020), doi: 10.1021/acs.jpclett.0c02405
    [ 1] J. W. Furness, A. D. Kaplan, J. Ning, J. P. Perdew, and J. Sun.,  J. Phys. Chem. Lett. 11, 9248-9248 (2020), doi: 10.1021/acs.jpclett.0c03077
  Functional external parameters        .... 6
    Parameter  0 _c1        =  6.670000e-01 : c1 parameter        
    Parameter  1 _c2        =  8.000000e-01 : c2 parameter        
    Parameter  2 _d         =  1.240000e+00 : d parameter         
    Parameter  3 _k1        =  6.500000e-02 : k1 parameter        
    Parameter  4 _eta       =  1.000000e-03 : eta parameter       
    Parameter  5 _dp2       =  3.610000e-01 : dp2 parameter       
  Functional kind                       .... Correlation
  Functional name                       .... Re-regularized SCAN correlation by Furness et al
  Functional family                     .... MGGA
  Functional refs                              
    [ 0] J. W. Furness, A. D. Kaplan, J. Ning, J. P. Perdew, and J. Sun.,  J. Phys. Chem. Lett. 11, 8208-8215 (2020), doi: 10.1021/acs.jpclett.0c02405
    [ 1] J. W. Furness, A. D. Kaplan, J. Ning, J. P. Perdew, and J. Sun.,  J. Phys. Chem. Lett. 11, 9248-9248 (2020), doi: 10.1021/acs.jpclett.0c03077
  Functional external parameters        .... 1
    Parameter  0 _eta       =  1.000000e-03 : Regularization parameter
 Gradients option       PostSCFGGA      .... off
 RI-approximation to the Coulomb term is turned on
   Number of AuxJ basis functions       .... 366


General Settings:
 Integral files         IntName         .... sp_solv
 Hartree-Fock type      HFTyp           .... RHF
 Total Charge           Charge          ....    0
 Multiplicity           Mult            ....    1
 Number of Electrons    NEL             ....   42
 Basis Dimension        Dim             ....  155
 Nuclear Repulsion      ENuc            ....    188.9359380938 Eh

Convergence Acceleration:
 AO-DIIS                CNVDIIS         .... on
   Start iteration      DIISMaxIt       ....    12
   Startup error        DIISStart       ....  0.200000
   # of expansion vecs  DIISMaxEq       ....     5
   Bias factor          DIISBfac        ....   1.050
   Max. coefficient     DIISMaxC        ....  10.000
 MO-DIIS                CNVKDIIS        .... off
 Trust-Rad. Augm. Hess. CNVTRAH         .... auto
   Auto Start mean grad. ratio tolernc. ....  1.125000
   Auto Start start iteration           ....     1
   Auto Start num. interpolation iter.  ....    10
   Max. Number of Micro iterations      ....    24
   Max. Number of Macro iterations      .... Maxiter - #DIIS iter
   Number of Davidson start vectors     ....     2
   Converg. threshold    (grad. norm)   ....   3.330e-04
   Grad. Scal. Fac. for Micro threshold ....   0.100
   Minimum threshold for Micro iter.    ....   1.000e-02
   NR start threshold (gradient norm)   ....   1.000e-04
   Initial trust radius                 ....   0.400
   Minimum AH scaling param. (alpha)    ....   1.000
   Maximum AH scaling param. (alpha)    .... 1000.000
   Quad. conv. algorithm                .... NR
   White noise on init. David. guess    .... on
   Maximum white noise                  ....   0.010
   Pseudo random numbers                .... off
   Inactive MOs                         .... canonical
   Orbital update algorithm             .... Taylor
   Preconditioner                       .... Diag
   Full preconditioner red. dimension   ....   250
   COSX micro iterations for RIJONX calc.... off
 SOSCF                  CNVSOSCF        .... on
   Start iteration      SOSCFMaxIt      ....   150
   Startup grad/error   SOSCFStart      ....  0.003300
   Hessian update       SOSCFHessUp     .... L-BFGS
 Level Shifting         CNVShift        .... on
   Level shift para.    LevelShift      ....    0.2500
   Turn off err/grad.   ShiftErr        ....    0.0010
 Zerner damping         CNVZerner       .... off
 Static damping         CNVDamp         .... on
   Fraction old density DampFac         ....    0.7000
   Max. Damping (<1)    DampMax         ....    0.9800
   Min. Damping (>=0)   DampMin         ....    0.0000
   Turn off err/grad.   DampErr         ....    0.1000

SCF Procedure:
 Maximum # iterations   MaxIter         ....   125
 SCF integral mode      SCFMode         .... Direct
   Integral package                     .... SHARK and LIBINT hybrid scheme
 Reset frequency        DirectResetFreq ....    20
 Integral Threshold     Thresh          ....  1.000e-10 Eh
 Primitive CutOff       TCut            ....  1.000e-11 Eh

Convergence Tolerance:
 Convergence Check Mode ConvCheckMode   .... Total+1el-Energy
 Convergence forced     ConvForced      .... 0
 Energy Change          TolE            ....  1.000e-06 Eh
 1-El. energy change                    ....  1.000e-03 Eh
 Orbital Gradient       TolG            ....  3.330e-04
 Orbital Rotation angle TolX            ....  3.330e-04
 DIIS Error             TolErr          ....  1.000e-06

---------------------
INITIAL GUESS: MOREAD
---------------------
Guess MOs are being read from file: sp_solv.ges
Input Geometry matches current geometry (good)
Atom 0: N(Shells)= 9 and 6 - projection required
Input basis set needs projection
NBasis(read)= 92
NBasis(calc)= 155
Basis set overlap was calculated
Using GuessMode=FMatrix for the initial guess
C*T matrix was formed
Effective Fockian was calculated
Effective Fockian was diagonalized
Initial density was built
                      ------------------
                      INITIAL GUESS DONE (   0.0 sec)
                      ------------------
             **** ENERGY FILE WAS UPDATED (sp_solv.en.tmp) ****
Finished Guess after   0.3 sec
Maximum memory used throughout the entire GUESS-calculation: 10.5 MB

-------------------------------------------------------------------------------------------
                                      ORCA LEAN-SCF
                              memory conserving SCF solver
-------------------------------------------------------------------------------------------

--------------------
CPCM SOLVATION MODEL
--------------------
CPCM parameters:
  Epsilon                                         ...      78.3550
  Refrac                                          ...       1.3328
  Rsolv                                           ...       1.3000
  Surface type                                    ... GAUSSIAN VDW
  Discretization scheme                           ... Constant charge density
    Threshold for H atoms                         ...       5.0000 (charges/Ang^2)
    Threshold for non-H atoms                     ...       5.0000 (charges/Ang^2)
  Epsilon function type                           ...         CPCM
Solvent:                                          ... WATER
SMD-CDS solvent descriptors:
  Soln                                            ...       1.3328
  Soln25                                          ...       1.3323
  Sola                                            ...       0.0000
  Solb                                            ...       0.0000
  Solg                                            ...       0.0000
  Solc                                            ...       0.0000
  Solh                                            ...       0.0000
Radii:
  Scheme                                          ... Element-dependent radii
  Radius for C  used is    3.4960 Bohr (=   1.8500 Ang.)
  Radius for N  used is    3.5716 Bohr (=   1.8900 Ang.)
  Radius for H  used is    2.2677 Bohr (=   1.2000 Ang.)
Calculating surface                               ...        done! (  0.0s)
Cavity surface points                             ...         1213
Cavity Volume                                     ...     673.2033
Cavity Surface-area                               ...     454.8050
Calculating surface distance matrix               ...        done! (  0.0s)
Performing Cholesky decomposition & store         ...        done! (  0.1s)
Overall time for CPCM initialization              ...                 0.1s

----------------------------------------D-I-I-S--------------------------------------------
Iteration    Energy (Eh)           Delta-E    RMSDP     MaxDP     DIISErr   Damp  Time(sec)
-------------------------------------------------------------------------------------------
               ***  Starting incremental Fock matrix formation  ***
    1    -213.6087904523478471     0.00e+00  3.85e-03  1.01e-01  4.45e-01  0.700   2.0
    2    -213.6467076903146278    -3.79e-02  3.19e-03  7.72e-02  3.13e-01  0.700   1.9
    3    -213.6737382320266931    -2.70e-02  2.38e-03  5.67e-02  2.19e-01  0.700   2.0
                               ***Turning on AO-DIIS***
    4    -213.6927841332919513    -1.90e-02  1.77e-03  4.12e-02  1.54e-01  0.700   1.8
    5    -213.7061769066882846    -1.34e-02  1.28e-03  2.92e-02  1.07e-01  0.700   1.8
    6    -213.7155884029080823    -9.41e-03  9.14e-04  2.06e-02  7.50e-02  0.700   1.8
    7    -213.7221953830245127    -6.61e-03  2.17e-03  4.83e-02  5.26e-02  0.000   1.8
                              *** Initializing SOSCF ***
---------------------------------------S-O-S-C-F--------------------------------------
Iteration    Energy (Eh)           Delta-E    RMSDP     MaxDP     MaxGrad    Time(sec)
--------------------------------------------------------------------------------------
    8    -213.7376751644206081    -1.55e-02  4.14e-05  9.05e-04  7.23e-04     1.8
               *** Restarting incremental Fock matrix formation ***
    9    -213.7376755348246036    -3.70e-07  2.53e-05  6.75e-04  1.35e-04     1.9
   10    -213.7376749299045571     6.05e-07  1.55e-05  3.59e-04  2.56e-04     1.6
                 **** Energy Check signals convergence ****

               *****************************************************
               *                     SUCCESS                       *
               *           SCF CONVERGED AFTER  10 CYCLES          *
               *****************************************************


SMD CDS free energy correction energy :                 1.72443     Kcal/mol
Total Energy after SMD CDS correction =              -213.734926871 Eh
             **** ENERGY FILE WAS UPDATED (sp_solv.en.tmp) ****

----------------
TOTAL SCF ENERGY
----------------

Total Energy       :       -213.73492687141615 Eh           -5816.02304 eV

Components:
Nuclear Repulsion  :        188.93593809377327 Eh            5141.20825 eV
Electronic Energy  :       -402.66423552372919 Eh          -10957.05089 eV
One Electron Energy:       -661.11960677297782 Eh          -17989.97909 eV
Two Electron Energy:        258.45537124924863 Eh            7032.92820 eV
CPCM Dielectric    :         -0.00937749994863 Eh              -0.25517 eV
SMD CDS (Gcds)     :          0.00274805848841 Eh               0.07478 eV

Virial components:
Potential Energy   :       -426.45301347971827 Eh          -11604.37645 eV
Kinetic Energy     :        212.71808660830212 Eh            5788.35341 eV
Virial Ratio       :          2.00478022475346

DFT components:
N(Alpha)           :       21.000048284946 electrons
N(Beta)            :       21.000048284946 electrons
N(Total)           :       42.000096569893 electrons
E(X)               :      -31.380806244602 Eh       
E(C)               :       -1.297645937503 Eh       
E(XC)              :      -32.678452182104 Eh       

CPCM Solvation Model Properties:
Surface-charge          :         -0.03989475748198
Corrected charge        :          0.00000000000000
Outlying charge corr.   :          0.00013544959155 Eh               0.00369 eV
Free-energy (cav+disp)  :          0.00274805848841 Eh               0.07478 eV

---------------
SCF CONVERGENCE
---------------

  Last Energy change         ...   -6.0492e-07  Tolerance :   1.0000e-06
  Last MAX-Density change    ...    3.5908e-04  Tolerance :   1.0000e-05
  Last RMS-Density change    ...    1.5490e-05  Tolerance :   1.0000e-06
  Last DIIS Error            ...    7.2254e-04  Tolerance :   1.0000e-06
  Last Orbital Gradient      ...    2.5600e-04  Tolerance :   3.3300e-04
  Last Orbital Rotation      ...    1.6469e-04  Tolerance :   3.3300e-04


----------------
ORBITAL ENERGIES
----------------

  NO   OCC          E(Eh)            E(eV) 
   0   2.0000     -14.127541      -384.4299 
   1   2.0000     -10.040162      -273.2067 
   2   2.0000     -10.016644      -272.5667 
   3   2.0000     -10.013419      -272.4790 
   4   2.0000     -10.006616      -272.2939 
   5   2.0000      -0.839057       -22.8319 
   6   2.0000      -0.745370       -20.2826 
   7   2.0000      -0.661594       -18.0029 
   8   2.0000      -0.585933       -15.9440 
   9   2.0000      -0.528128       -14.3711 
  10   2.0000      -0.448859       -12.2141 
  11   2.0000      -0.424584       -11.5535 
  12   2.0000      -0.405718       -11.0402 
  13   2.0000      -0.393356       -10.7038 
  14   2.0000      -0.356834        -9.7100 
  15   2.0000      -0.334659        -9.1065 
  16   2.0000      -0.329104        -8.9554 
  17   2.0000      -0.292278        -7.9533 
  18   2.0000      -0.289550        -7.8791 
  19   2.0000      -0.279062        -7.5937 
  20   2.0000      -0.204679        -5.5696 
  21   0.0000       0.086672         2.3585 
  22   0.0000       0.100016         2.7216 
  23   0.0000       0.124486         3.3874 
  24   0.0000       0.140609         3.8262 
  25   0.0000       0.145560         3.9609 
  26   0.0000       0.155124         4.2211 
  27   0.0000       0.168630         4.5887 
  28   0.0000       0.170891         4.6502 
  29   0.0000       0.187684         5.1071 
  30   0.0000       0.196411         5.3446 
  31   0.0000       0.205962         5.6045 
*Only the first 10 virtual orbitals were printed.

                    ********************************
                    * MULLIKEN POPULATION ANALYSIS *
                    ********************************

-----------------------
MULLIKEN ATOMIC CHARGES
-----------------------
   0 C :   -0.520591
   1 C :   -0.256059
   2 C :   -0.223747
   3 C :   -0.264330
   4 N :   -0.632858
   5 H :    0.153783
   6 H :    0.155498
   7 H :    0.158161
   8 H :    0.141498
   9 H :    0.148968
  10 H :    0.146077
  11 H :    0.146108
  12 H :    0.132514
  13 H :    0.155630
  14 H :    0.279740
  15 H :    0.279609
Sum of atomic charges:   -0.0000000

--------------------------------
MULLIKEN REDUCED ORBITAL CHARGES
--------------------------------
  0 C s       :     3.336528  s :     3.336528
      pz      :     1.022167  p :     3.156961
      px      :     1.086189
      py      :     1.048605
      dz2     :     0.007767  d :     0.027102
      dxz     :     0.005119
      dyz     :     0.003554
      dx2y2   :     0.007710
      dxy     :     0.002951

  1 C s       :     3.214749  s :     3.214749
      pz      :     1.027216  p :     3.004258
      px      :     0.958118
      py      :     1.018924
      dz2     :     0.007554  d :     0.037052
      dxz     :     0.009544
      dyz     :     0.004426
      dx2y2   :     0.010110
      dxy     :     0.005417

  2 C s       :     3.158804  s :     3.158804
      pz      :     0.998425  p :     3.028591
      px      :     0.951678
      py      :     1.078488
      dz2     :     0.006734  d :     0.036353
      dxz     :     0.009697
      dyz     :     0.005245
      dx2y2   :     0.009516
      dxy     :     0.005161

  3 C s       :     3.346732  s :     3.346732
      pz      :     0.982580  p :     2.867815
      px      :     0.830148
      py      :     1.055087
      dz2     :     0.008302  d :     0.049783
      dxz     :     0.010599
      dyz     :     0.006860
      dx2y2   :     0.013962
      dxy     :     0.010060

  4 N s       :     3.543018  s :     3.543018
      pz      :     1.233450  p :     4.050242
      px      :     1.102190
      py      :     1.714602
      dz2     :     0.003424  d :     0.039598
      dxz     :     0.014240
      dyz     :     0.010006
      dx2y2   :     0.002401
      dxy     :     0.009528

  5 H s       :     0.827935  s :     0.827935
      pz      :     0.003976  p :     0.018282
      px      :     0.003637
      py      :     0.010669

  6 H s       :     0.826156  s :     0.826156
      pz      :     0.003741  p :     0.018346
      px      :     0.010259
      py      :     0.004346

  7 H s       :     0.823409  s :     0.823409
      pz      :     0.009536  p :     0.018431
      px      :     0.005135
      py      :     0.003760

  8 H s       :     0.840566  s :     0.840566
      pz      :     0.003988  p :     0.017936
      px      :     0.003436
      py      :     0.010512

  9 H s       :     0.833114  s :     0.833114
      pz      :     0.008944  p :     0.017917
      px      :     0.005411
      py      :     0.003562

 10 H s       :     0.835990  s :     0.835990
      pz      :     0.008486  p :     0.017933
      px      :     0.004433
      py      :     0.005014

 11 H s       :     0.835968  s :     0.835968
      pz      :     0.003747  p :     0.017924
      px      :     0.003363
      py      :     0.010814

 12 H s       :     0.850269  s :     0.850269
      pz      :     0.003782  p :     0.017218
      px      :     0.002775
      py      :     0.010661

 13 H s       :     0.826678  s :     0.826678
      pz      :     0.008535  p :     0.017692
      px      :     0.003890
      py      :     0.005267

 14 H s       :     0.688256  s :     0.688256
      pz      :     0.014043  p :     0.032004
      px      :     0.006366
      py      :     0.011596

 15 H s       :     0.688097  s :     0.688097
      pz      :     0.012823  p :     0.032294
      px      :     0.009744
      py      :     0.009727


------------------------
MULLIKEN OVERLAP CHARGES
------------------------
B(  0-C ,  1-C ) :   0.4539 B(  0-C ,  2-C ) :  -0.2207 B(  0-C ,  5-H ) :   0.8455 
B(  0-C ,  6-H ) :   0.7985 B(  0-C ,  7-H ) :   0.8516 B(  0-C ,  8-H ) :  -0.0714 
B(  0-C ,  9-H ) :  -0.0618 B(  1-C ,  2-C ) :   0.3842 B(  1-C ,  3-C ) :  -0.1212 
B(  1-C ,  5-H ) :  -0.0923 B(  1-C ,  6-H ) :  -0.0745 B(  1-C ,  7-H ) :  -0.0883 
B(  1-C ,  8-H ) :   0.8641 B(  1-C ,  9-H ) :   0.8333 B(  1-C , 10-H ) :  -0.0706 
B(  1-C , 11-H ) :  -0.0583 B(  2-C ,  3-C ) :   0.2974 B(  2-C ,  4-N ) :  -0.1158 
B(  2-C ,  8-H ) :  -0.1026 B(  2-C ,  9-H ) :  -0.0942 B(  2-C , 10-H ) :   0.8073 
B(  2-C , 11-H ) :   0.8203 B(  2-C , 12-H ) :  -0.1592 B(  2-C , 13-H ) :  -0.0697 
B(  3-C ,  4-N ) :   0.3970 B(  3-C , 11-H ) :  -0.0634 B(  3-C , 12-H ) :   0.9125 
B(  3-C , 13-H ) :   0.8823 B(  3-C , 14-H ) :  -0.0649 B(  3-C , 15-H ) :  -0.0604 
B(  4-N , 12-H ) :  -0.1160 B(  4-N , 13-H ) :  -0.1226 B(  4-N , 14-H ) :   0.7015 
B(  4-N , 15-H ) :   0.6871 B(  5-H ,  7-H ) :  -0.0503 B( 12-H , 13-H ) :  -0.0777 



                     *******************************
                     * LOEWDIN POPULATION ANALYSIS *
                     *******************************

----------------------
LOEWDIN ATOMIC CHARGES
----------------------
   0 C :   -0.435136
   1 C :   -0.320475
   2 C :   -0.291809
   3 C :   -0.076515
   4 N :   -0.770512
   5 H :    0.152757
   6 H :    0.152619
   7 H :    0.151656
   8 H :    0.154157
   9 H :    0.154250
  10 H :    0.158165
  11 H :    0.157818
  12 H :    0.151196
  13 H :    0.173039
  14 H :    0.244108
  15 H :    0.244681

-------------------------------
LOEWDIN REDUCED ORBITAL CHARGES
-------------------------------
  0 C s       :     2.973645  s :     2.973645
      pz      :     1.123747  p :     3.398375
      px      :     1.136252
      py      :     1.138376
      dz2     :     0.017704  d :     0.063116
      dxz     :     0.012020
      dyz     :     0.008223
      dx2y2   :     0.018428
      dxy     :     0.006741

  1 C s       :     2.937600  s :     2.937600
      pz      :     1.111263  p :     3.302834
      px      :     1.070741
      py      :     1.120829
      dz2     :     0.016137  d :     0.080041
      dxz     :     0.020789
      dyz     :     0.009824
      dx2y2   :     0.022309
      dxy     :     0.010981

  2 C s       :     2.938526  s :     2.938526
      pz      :     1.092134  p :     3.274999
      px      :     1.048371
      py      :     1.134495
      dz2     :     0.015084  d :     0.078283
      dxz     :     0.020144
      dyz     :     0.011451
      dx2y2   :     0.021471
      dxy     :     0.010133

  3 C s       :     2.873332  s :     2.873332
      pz      :     1.060642  p :     3.092461
      px      :     0.947718
      py      :     1.084101
      dz2     :     0.017987  d :     0.110722
      dxz     :     0.024927
      dyz     :     0.014603
      dx2y2   :     0.031752
      dxy     :     0.021453

  4 N s       :     3.245660  s :     3.245660
      pz      :     1.276183  p :     4.211989
      px      :     1.219811
      py      :     1.715995
      dz2     :     0.033388  d :     0.312863
      dxz     :     0.115421
      dyz     :     0.028735
      dx2y2   :     0.067872
      dxy     :     0.067447

  5 H s       :     0.803520  s :     0.803520
      pz      :     0.009145  p :     0.043723
      px      :     0.008052
      py      :     0.026526

  6 H s       :     0.803556  s :     0.803556
      pz      :     0.008429  p :     0.043824
      px      :     0.025363
      py      :     0.010032

  7 H s       :     0.804048  s :     0.804048
      pz      :     0.023662  p :     0.044297
      px      :     0.012186
      py      :     0.008449

  8 H s       :     0.802553  s :     0.802553
      pz      :     0.009448  p :     0.043291
      px      :     0.008036
      py      :     0.025806

  9 H s       :     0.802433  s :     0.802433
      pz      :     0.021990  p :     0.043317
      px      :     0.013083
      py      :     0.008245

 10 H s       :     0.798761  s :     0.798761
      pz      :     0.020413  p :     0.043073
      px      :     0.010651
      py      :     0.012009

 11 H s       :     0.798701  s :     0.798701
      pz      :     0.008846  p :     0.043481
      px      :     0.007735
      py      :     0.026901

 12 H s       :     0.808370  s :     0.808370
      pz      :     0.008598  p :     0.040435
      px      :     0.006628
      py      :     0.025209

 13 H s       :     0.786371  s :     0.786371
      pz      :     0.019588  p :     0.040590
      px      :     0.008261
      py      :     0.012742

 14 H s       :     0.670082  s :     0.670082
      pz      :     0.036377  p :     0.085809
      px      :     0.017064
      py      :     0.032369

 15 H s       :     0.669159  s :     0.669159
      pz      :     0.033392  p :     0.086160
      px      :     0.026678
      py      :     0.026090


---------------------------------
LOEWDIN BOND ORDERS (THRESH 0.050000)
---------------------------------
B(  0-C ,  1-C ) :   1.1420 B(  0-C ,  2-C ) :   0.0643 B(  0-C ,  5-H ) :   0.9297 
B(  0-C ,  6-H ) :   0.9302 B(  0-C ,  7-H ) :   0.9278 B(  1-C ,  2-C ) :   1.1099 
B(  1-C ,  3-C ) :   0.0694 B(  1-C ,  8-H ) :   0.8940 B(  1-C ,  9-H ) :   0.8941 
B(  2-C ,  3-C ) :   1.0331 B(  2-C ,  4-N ) :   0.1786 B(  2-C , 10-H ) :   0.8851 
B(  2-C , 11-H ) :   0.8875 B(  3-C ,  4-N ) :   1.4159 B(  3-C , 12-H ) :   0.8374 
B(  3-C , 13-H ) :   0.8293 B(  4-N , 12-H ) :   0.1046 B(  4-N , 13-H ) :   0.0986 
B(  4-N , 14-H ) :   0.9357 B(  4-N , 15-H ) :   0.9350 

------------------------------------------
LOEWDIN REDUCED ORBITAL POPULATIONS PER MO
-------------------------------------------
THRESHOLD FOR PRINTING IS 0.1%%
                      0         1         2         3         4         5   
                 -14.12754 -10.04016 -10.01664 -10.01342 -10.00662  -0.83906
                   2.00000   2.00000   2.00000   2.00000   2.00000   2.00000
                  --------  --------  --------  --------  --------  --------
 0 C  s               0.0       0.0       0.0       0.0      99.7       0.1
 1 C  s               0.0       0.0      99.6       0.1       0.0       0.6
 1 C  px              0.0       0.0       0.0       0.1       0.0       0.4
 2 C  s               0.0       0.0       0.1      99.6       0.0       3.6
 2 C  pz              0.0       0.0       0.0       0.0       0.0       0.9
 2 C  px              0.0       0.0       0.1       0.0       0.0       1.2
 3 C  s               0.0      99.4       0.0       0.0       0.0      16.1
 3 C  pz              0.0       0.0       0.0       0.1       0.0       0.7
 3 C  px              0.0       0.0       0.0       0.0       0.0       4.7
 3 C  py              0.0       0.0       0.0       0.0       0.0       0.6
 3 C  dx2y2           0.0       0.0       0.0       0.0       0.0       0.2
 4 N  s              99.8       0.0       0.0       0.0       0.0      44.5
 4 N  pz              0.0       0.0       0.0       0.0       0.0       0.1
 4 N  px              0.0       0.1       0.0       0.0       0.0       0.7
 4 N  py              0.0       0.0       0.0       0.0       0.0       1.6
 4 N  dx2y2           0.0       0.1       0.0       0.0       0.0       0.3
 4 N  dxy             0.0       0.1       0.0       0.0       0.0       0.1
10 H  s               0.0       0.0       0.0       0.0       0.0       0.4
11 H  s               0.0       0.0       0.0       0.0       0.0       0.3
12 H  s               0.0       0.0       0.0       0.0       0.0       1.6
12 H  py              0.0       0.0       0.0       0.0       0.0       0.1
13 H  s               0.0       0.0       0.0       0.0       0.0       1.6
14 H  s               0.0       0.0       0.0       0.0       0.0       8.1
14 H  pz              0.0       0.0       0.0       0.0       0.0       0.8
14 H  px              0.0       0.0       0.0       0.0       0.0       0.2
14 H  py              0.0       0.0       0.0       0.0       0.0       0.2
15 H  s               0.0       0.0       0.0       0.0       0.0       8.1
15 H  pz              0.0       0.0       0.0       0.0       0.0       0.7
15 H  px              0.0       0.0       0.0       0.0       0.0       0.5

                      6         7         8         9        10        11   
                  -0.74537  -0.66159  -0.58593  -0.52813  -0.44886  -0.42458
                   2.00000   2.00000   2.00000   2.00000   2.00000   2.00000
                  --------  --------  --------  --------  --------  --------
 0 C  s              14.4      20.7       8.9       3.4       0.1       0.0
 0 C  pz              1.4       0.0       2.6       2.3       0.4       6.3
 0 C  px              1.0       0.2       0.6       0.6       0.9       2.8
 0 C  py              0.6       0.0       0.9       3.5       1.4       0.0
 1 C  s              26.0       2.1       8.0       8.5       0.0       0.3
 1 C  pz              0.3       2.2       4.8       0.1       0.5       5.4
 1 C  px              0.4       8.0       1.0       1.5       0.4      10.7
 1 C  py              0.9       0.2       0.9       5.6       5.1       0.8
 2 C  s              16.8      12.8       2.0       8.6       0.5       0.5
 2 C  pz              0.3       0.2       4.6       3.7       0.1       1.3
 2 C  px              3.0       2.5       4.9       2.2       4.2       1.1
 2 C  py              0.3       0.0       0.1       3.6       7.6       5.5
 2 C  dxz             0.0       0.1       0.1       0.0       0.0       0.1
 3 C  s               1.5       7.9      12.4       3.9       0.2       0.3
 3 C  pz              0.8       0.8       2.3       7.9       8.1       1.1
 3 C  px              4.9       3.7       0.4       0.1       0.0       7.5
 3 C  py              0.0       0.0       0.0       1.1       7.7       8.9
 3 C  dxz             0.1       0.1       0.0       0.0       0.0       0.1
 4 N  s               3.7       4.2       2.4       0.2       0.1       0.1
 4 N  pz              0.0       0.0       0.8       3.6      29.0       1.4
 4 N  px              0.7       4.4       7.9       1.2       1.1      23.5
 4 N  py              0.1       0.1       0.1       0.1       3.7       0.3
 4 N  dz2             0.1       0.3       0.3       0.0       0.1       0.1
 4 N  dxz             0.0       0.0       0.5       0.6       0.1       0.1
 4 N  dyz             0.0       0.0       0.1       0.1       0.3       0.0
 4 N  dx2y2           0.1       0.5       0.3       0.0       0.2       0.1
 4 N  dxy             0.0       0.3       0.4       0.2       0.3       0.1
 5 H  s               2.0       4.2       3.0       2.7       0.3       0.1
 5 H  py              0.2       0.3       0.2       0.1       0.0       0.0
 6 H  s               2.0       4.8       3.0       1.3       0.6       0.4
 6 H  px              0.2       0.4       0.2       0.1       0.0       0.0
 7 H  s               2.0       4.1       3.7       1.7       0.1       3.2
 7 H  pz              0.1       0.3       0.2       0.1       0.0       0.1
 8 H  s               3.6       0.4       2.3       6.2       1.8       0.3
 8 H  py              0.3       0.0       0.2       0.4       0.1       0.0
 9 H  s               3.6       0.5       3.4       3.9       0.0       5.8
 9 H  pz              0.2       0.1       0.2       0.2       0.0       0.2
 9 H  px              0.1       0.0       0.1       0.0       0.0       0.0
10 H  s               2.3       2.9       1.1       4.8       0.5       0.1
10 H  pz              0.1       0.2       0.0       0.2       0.0       0.0
10 H  py              0.0       0.1       0.0       0.1       0.0       0.0
11 H  s               2.3       2.5       0.5       6.3       3.5       0.9
11 H  py              0.2       0.2       0.1       0.4       0.1       0.0
12 H  s               0.2       1.6       3.8       3.1       1.8       2.9
12 H  py              0.0       0.1       0.3       0.2       0.0       0.1
13 H  s               0.2       1.6       5.5       3.1       3.1       0.0
13 H  pz              0.0       0.1       0.2       0.1       0.1       0.0
13 H  py              0.0       0.0       0.1       0.1       0.0       0.0
14 H  s               0.8       1.4       2.1       1.3       7.0       0.3
14 H  pz              0.1       0.2       0.2       0.0       0.1       0.1
14 H  px              0.0       0.0       0.0       0.0       0.2       0.2
15 H  s               1.0       1.9       1.4       0.0       7.7       5.6
15 H  pz              0.1       0.2       0.2       0.0       0.1       0.3
15 H  px              0.0       0.1       0.0       0.0       0.3       0.0
15 H  py              0.0       0.0       0.0       0.0       0.1       0.0

                     12        13        14        15        16        17   
                  -0.40572  -0.39336  -0.35683  -0.33466  -0.32910  -0.29228
                   2.00000   2.00000   2.00000   2.00000   2.00000   2.00000
                  --------  --------  --------  --------  --------  --------
 0 C  s               0.3       0.0       0.0       0.4       0.0       0.0
 0 C  pz              0.1       9.3       2.7      14.5       3.9       1.4
 0 C  px             12.7       0.5      17.3       0.4       4.3       9.2
 0 C  py              0.7      13.6       8.3       3.0      14.8       4.0
 0 C  dz2             0.0       0.0       0.1       0.0       0.3       0.0
 0 C  dxz             0.0       0.0       0.0       0.2       0.0       0.0
 0 C  dx2y2           0.0       0.1       0.1       0.0       0.1       0.6
 1 C  s               0.5       0.0       0.2       0.2       0.0       0.3
 1 C  pz              8.0       4.4       0.0      15.3       0.0       1.6
 1 C  px              0.5       0.0       5.1       0.6       1.8      15.1
 1 C  py              0.8      14.4       0.1       3.1       3.2       8.1
 1 C  dz2             0.0       0.0       0.0       0.0       0.2       0.0
 1 C  dx2y2           0.0       0.0       0.0       0.0       0.0       0.6
 1 C  dxy             0.0       0.0       0.0       0.0       0.0       0.1
 2 C  s               0.3       0.2       0.2       0.3       0.1       0.7
 2 C  pz             14.3       0.4       1.3       3.0       7.6       3.4
 2 C  px              1.1       3.0       1.7       0.9       1.0      17.9
 2 C  py              6.5       0.1       4.5       0.3      10.3       3.5
 2 C  dx2y2           0.0       0.0       0.1       0.0       0.1       0.3
 3 C  s               0.1       0.4       0.3       0.2       0.1       0.2
 3 C  pz              0.2       1.2       1.1      11.0       3.7       0.1
 3 C  px              2.7       0.6      11.8       1.3       4.6       0.7
 3 C  py              8.2       9.3       0.1       4.5       6.3       0.2
 3 C  dz2             0.0       0.0       0.1       0.1       0.0       0.1
 3 C  dxz             0.0       0.0       0.0       0.3       0.1       0.0
 3 C  dyz             0.0       0.0       0.0       0.1       0.0       0.0
 3 C  dx2y2           0.0       0.1       0.1       0.0       0.1       0.2
 3 C  dxy             0.0       0.1       0.2       0.0       0.0       0.0
 4 N  s               0.3       0.3       0.3       0.1       0.4       0.3
 4 N  pz             12.3       4.0       1.2       7.1       0.1       0.0
 4 N  px              0.0       2.5      13.9       0.4       0.2       2.8
 4 N  py              0.6       3.5       0.2       0.5       5.3       0.1
 4 N  dz2             0.0       0.0       0.0       0.2       0.0       0.0
 4 N  dxz             0.3       0.4       0.0       1.7       0.2       0.2
 4 N  dyz             0.2       0.0       0.0       0.1       0.1       0.0
 4 N  dx2y2           0.1       0.2       0.3       0.0       0.4       0.1
 4 N  dxy             0.5       0.1       0.2       0.3       0.1       0.0
 5 H  s               0.6       6.5       3.1       0.2       9.5       4.4
 5 H  pz              0.0       0.0       0.1       0.1       0.0       0.0
 5 H  px              0.1       0.0       0.1       0.0       0.0       0.1
 5 H  py              0.0       0.2       0.0       0.0       0.1       0.0
 6 H  s               4.7       1.7      10.7       0.0       0.2       9.1
 6 H  pz              0.0       0.0       0.0       0.1       0.0       0.0
 6 H  px              0.1       0.1       0.2       0.0       0.0       0.1
 6 H  py              0.1       0.0       0.0       0.0       0.2       0.0
 7 H  s               0.3       3.2       4.1       5.5       5.6       0.0
 7 H  pz              0.0       0.1       0.1       0.0       0.1       0.0
 8 H  s               0.1       6.2       0.0       0.1       1.5       6.1
 8 H  pz              0.0       0.0       0.0       0.2       0.0       0.0
 8 H  px              0.0       0.0       0.0       0.0       0.0       0.2
 8 H  py              0.0       0.2       0.0       0.0       0.0       0.0
 9 H  s               1.5       1.9       0.2       4.5       0.3       0.2
 9 H  px              0.0       0.0       0.0       0.1       0.0       0.1
10 H  s               9.5       1.1       0.4       0.6       0.0       2.4
10 H  pz              0.2       0.0       0.0       0.0       0.1       0.0
10 H  px              0.1       0.0       0.0       0.0       0.0       0.1
10 H  py              0.0       0.0       0.0       0.0       0.1       0.1
11 H  s               0.5       0.0       2.5       0.2       6.6       2.5
11 H  pz              0.1       0.0       0.0       0.0       0.0       0.0
11 H  px              0.0       0.0       0.0       0.0       0.0       0.2
11 H  py              0.0       0.0       0.0       0.0       0.1       0.0
12 H  s               3.5       5.9       0.2       0.7       4.6       0.5
12 H  pz              0.0       0.0       0.0       0.1       0.0       0.0
12 H  py              0.1       0.2       0.0       0.0       0.1       0.0
13 H  s               0.8       0.0       2.6      11.8       0.0       0.3
14 H  s               3.2       2.8       1.7       2.9       0.2       0.0
14 H  py              0.1       0.0       0.1       0.1       0.0       0.0
15 H  s               2.4       0.2       0.8       1.3       0.3       0.5
15 H  px              0.1       0.1       0.1       0.1       0.0       0.0

                     18        19        20        21        22        23   
                  -0.28955  -0.27906  -0.20468   0.08667   0.10002   0.12449
                   2.00000   2.00000   2.00000   0.00000   0.00000   0.00000
                  --------  --------  --------  --------  --------  --------
 0 C  s               0.5       0.1       0.0       0.2      15.4      12.9
 0 C  pz              1.7       9.5       0.0       0.2       1.8       7.4
 0 C  px              5.8       0.4       0.0       0.3       0.7       5.7
 0 C  py              5.9       0.1       0.0       1.2       0.4       0.6
 0 C  dz2             0.2       0.3       0.0       0.0       0.1       0.3
 0 C  dxz             0.0       0.1       0.0       0.1       0.2       0.0
 0 C  dyz             0.1       0.0       0.0       0.0       0.3       0.0
 0 C  dx2y2           0.0       0.0       0.0       0.1       0.2       0.0
 0 C  dxy             0.0       0.0       0.0       0.0       0.1       0.2
 1 C  s               0.1       0.1       0.0       1.9      13.8       2.7
 1 C  pz              0.2      12.7       0.0       0.3       1.2       7.0
 1 C  px              4.6       3.1       0.2       1.0       1.0       1.6
 1 C  py             12.7       0.0       0.1       0.1       1.6       3.6
 1 C  dz2             0.3       0.2       0.0       0.0       0.0       0.2
 1 C  dxz             0.0       0.6       0.0       0.0       0.4       0.1
 1 C  dyz             0.2       0.0       0.0       0.1       0.0       0.6
 1 C  dx2y2           0.3       0.0       0.0       0.0       0.0       0.0
 1 C  dxy             0.1       0.0       0.0       0.0       0.0       0.0
 2 C  s               0.0       0.1       0.3       1.4       7.9       4.9
 2 C  pz              1.0      11.8       0.7       1.7       1.8       2.2
 2 C  px              4.1       2.7       0.7       6.1       1.0       1.2
 2 C  py             13.8       0.6       0.1       0.0       0.2       0.2
 2 C  dz2             0.3       0.0       0.0       0.6       0.1       0.1
 2 C  dxz             0.0       0.6       0.0       0.1       0.1       0.1
 2 C  dyz             0.2       0.1       0.0       0.1       0.1       0.1
 2 C  dx2y2           0.3       0.0       0.0       0.1       0.2       0.4
 2 C  dxy             0.1       0.0       0.0       0.1       0.2       0.0
 3 C  s               0.0       0.4       0.3      10.4       7.1       1.7
 3 C  pz              0.0      13.8       0.2       1.3       1.1      17.2
 3 C  px              2.1       2.1       0.0      18.2       5.3       0.5
 3 C  py              2.1       0.6       4.6       0.8       0.8       1.1
 3 C  dz2             0.2       0.0       0.1       0.2       0.4       0.5
 3 C  dxz             0.0       0.3       0.0       0.1       0.2       0.0
 3 C  dyz             0.1       0.1       0.2       0.0       0.1       0.1
 3 C  dx2y2           0.0       0.0       0.7       1.0       0.1       0.1
 3 C  dxy             0.0       0.0       0.5       0.3       0.1       0.0
 4 N  s               0.1       0.0       5.4      14.7       0.4       0.2
 4 N  pz              0.0       1.5       2.4       0.1       0.4       1.4
 4 N  px              0.6       0.6       0.3       2.4       1.2       0.4
 4 N  py              2.1       0.1      67.4       1.0       0.1       0.0
 4 N  dz2             0.0       0.5       0.0       1.2       0.0       1.3
 4 N  dxz             0.0       1.6       0.0       0.2       0.2       2.7
 4 N  dyz             0.2       0.0       0.2       0.5       0.8       0.8
 4 N  dx2y2           0.2       0.1       0.4       1.1       1.5       0.1
 4 N  dxy             0.0       0.1       0.7       1.0       0.5       0.1
 5 H  s               2.9       0.5       0.0       0.3       1.6       0.4
 5 H  pz              0.0       0.1       0.0       0.0       0.4       0.0
 5 H  px              0.0       0.0       0.0       0.0       0.1       0.3
 5 H  py              0.0       0.0       0.0       0.0       0.5       0.5
 6 H  s               1.1       0.4       0.0       0.3       3.1       0.5
 6 H  pz              0.0       0.1       0.0       0.0       0.1       0.0
 6 H  px              0.0       0.0       0.0       0.0       0.9       0.5
 6 H  py              0.1       0.0       0.0       0.0       0.3       0.0
 7 H  s               0.5       6.1       0.0       0.2       2.3       4.7
 7 H  pz              0.0       0.0       0.0       0.0       0.4       2.3
 7 H  px              0.1       0.0       0.0       0.0       0.9       0.2
 7 H  py              0.0       0.0       0.0       0.1       0.1       0.0
 8 H  s              10.2       1.2       0.0       0.0       2.0       0.2
 8 H  pz              0.0       0.1       0.0       0.1       0.3       0.3
 8 H  py              0.0       0.0       0.0       0.1       1.1       0.1
 9 H  s               1.2      12.9       0.0       0.2       2.8       0.0
 9 H  pz              0.0       0.1       0.0       0.1       1.2       0.5
 9 H  px              0.0       0.0       0.0       0.1       0.4       0.1
 9 H  py              0.1       0.0       0.0       0.0       0.1       0.2
10 H  s               8.1       5.6       0.1       0.5       2.9       1.3
10 H  pz              0.1       0.0       0.0       0.0       0.7       0.7
10 H  px              0.0       0.1       0.0       0.4       0.0       0.0
10 H  py              0.0       0.0       0.0       0.2       0.6       0.6
11 H  s              10.9       0.0       0.3       0.4       1.5       0.7
11 H  pz              0.0       0.1       0.0       0.2       0.0       0.0
11 H  px              0.0       0.0       0.0       0.1       0.1       0.1
11 H  py              0.1       0.0       0.0       0.1       0.8       0.5
12 H  s               1.7       0.1       8.3       1.9       1.4       0.3
12 H  pz              0.0       0.2       0.0       0.0       0.1       0.3
12 H  px              0.0       0.0       0.0       0.7       0.1       0.0
12 H  py              0.0       0.0       0.0       0.8       0.6       0.0
13 H  s               2.0       5.0       1.6       2.0       1.8       1.1
13 H  pz              0.0       0.0       0.0       0.3       0.1       1.3
13 H  px              0.0       0.1       0.0       0.2       0.7       0.1
13 H  py              0.0       0.0       0.0       0.8       0.3       0.0
14 H  s               0.0       0.7       0.9       6.8       0.1       0.7
14 H  pz              0.0       0.0       0.2       2.0       0.0       0.1
14 H  px              0.0       0.0       0.0       0.2       0.1       0.2
14 H  py              0.0       0.0       0.8       0.5       0.1       0.1
15 H  s               0.1       1.3       0.8       7.3       0.0       0.8
15 H  pz              0.0       0.0       0.0       1.9       0.0       0.1
15 H  px              0.0       0.0       0.0       0.9       0.1       0.0
15 H  py              0.0       0.0       1.0       0.0       0.0       0.0

                     24        25        26        27        28        29   
                   0.14061   0.14556   0.15512   0.16863   0.17089   0.18768
                   0.00000   0.00000   0.00000   0.00000   0.00000   0.00000
                  --------  --------  --------  --------  --------  --------
 0 C  s               1.3       4.3       5.0       0.0       1.4       0.1
 0 C  pz              0.7       3.9       5.9       7.2       0.2      10.3
 0 C  px              3.4       4.4       7.5       4.3       0.5       2.4
 0 C  py              6.7       8.0       0.6       4.3       6.7       0.7
 0 C  dz2             0.0       0.1       0.0       0.9       0.1       0.4
 0 C  dxz             0.1       0.3       0.4       0.0       0.1       1.1
 0 C  dyz             0.1       0.2       0.2       0.3       0.7       0.1
 0 C  dx2y2           0.0       0.1       0.0       0.1       1.1       0.4
 0 C  dxy             0.4       0.4       0.0       0.1       0.0       0.2
 1 C  s               1.1       4.0       0.4       3.1       2.1       0.7
 1 C  pz              1.0       4.9       0.3       3.6       2.2       0.7
 1 C  px              5.2       0.0       9.8      10.7       0.1       1.5
 1 C  py              2.7       8.8       5.7       3.1       2.5       3.5
 1 C  dz2             0.2       0.3       0.3       0.2       0.0       0.1
 1 C  dxz             0.4       0.4       0.0       0.0       1.2       0.0
 1 C  dyz             0.2       0.2       0.0       0.2       0.8       0.1
 1 C  dx2y2           0.3       0.1       0.0       0.5       0.2       1.2
 1 C  dxy             0.1       0.0       1.2       0.2       0.0       0.0
 2 C  s               0.5       4.5       3.9       2.9       0.4       4.5
 2 C  pz              9.1       9.2       4.0       0.5       6.1       3.6
 2 C  px              1.6       1.1       1.5       0.3       7.1       1.1
 2 C  py              2.9       5.6       4.6       5.1       1.8       3.1
 2 C  dz2             0.3       0.1       0.3       0.0       0.0       0.3
 2 C  dxz             0.0       0.1       0.1       0.1       2.5       0.1
 2 C  dyz             0.0       0.3       0.8       0.0       0.2       0.1
 2 C  dx2y2           0.6       0.0       0.2       0.0       0.1       1.1
 2 C  dxy             0.2       0.0       0.3       0.0       0.2       0.0
 3 C  s               0.7       3.2       0.7       1.0       5.3       1.8
 3 C  pz              1.9       6.0       5.8       7.1       5.8       1.9
 3 C  px              2.0       0.3       2.4       2.8       2.0       0.1
 3 C  py             19.1       5.2       2.2       1.4       0.3       3.1
 3 C  dz2             0.1       0.0       0.1       0.4       0.1       0.0
 3 C  dxz             0.0       0.0       0.5       0.3       0.1       0.8
 3 C  dyz             0.7       0.1       0.1       0.2       0.5       0.0
 3 C  dx2y2           0.0       0.1       0.1       0.2       0.4       0.2
 3 C  dxy             0.2       0.0       0.1       0.0       0.0       0.2
 4 N  s               0.6       0.5       0.3       1.0       3.2       0.0
 4 N  pz              0.9       2.0       0.9       3.1       0.5       5.7
 4 N  px              1.5       0.0       0.5       0.6       2.5       0.2
 4 N  py              0.0       0.2       2.0       0.1       0.4       0.6
 4 N  dz2             2.2       0.2       0.3       1.4       2.8       0.9
 4 N  dxz             0.7       0.5       3.3       0.2       0.4       5.4
 4 N  dyz             0.4       0.2       0.6       4.4       1.1       3.1
 4 N  dx2y2           0.8       0.0       0.0       0.3       1.2       1.8
 4 N  dxy             1.2       0.2       0.1       0.3       0.4       0.5
 5 H  s               0.5       1.4       0.5       3.3       5.6       0.4
 5 H  pz              0.0       0.0       0.2       0.1       0.8       0.4
 5 H  px              0.3       0.1       0.1       0.2       0.0       0.4
 5 H  py              0.4       1.3       0.3       0.4       0.8       0.1
 6 H  s               1.7       0.1       2.3       0.9       2.7       5.6
 6 H  pz              0.1       0.3       0.2       0.0       0.0       0.5
 6 H  px              0.1       0.2       0.9       0.1       0.3       0.8
 6 H  py              0.3       0.0       0.3       0.7       0.2       0.1
 7 H  s               0.0       0.4       1.1       1.5       0.6       4.8
 7 H  pz              0.1       0.0       0.0       0.8       0.2       0.3
 7 H  px              0.2       0.1       0.2       0.0       0.0       0.0
 7 H  py              0.2       0.0       0.1       0.1       0.8       0.3
 8 H  s               1.9       1.5       1.0       2.1       4.5       0.9
 8 H  pz              0.5       0.1       0.1       0.0       0.3       0.0
 8 H  px              0.3       0.0       0.7       0.1       0.1       0.0
 8 H  py              0.2       1.8       0.4       0.1       0.9       0.2
 9 H  s               2.6       1.5       0.2       2.6       2.6       0.6
 9 H  pz              0.5       0.0       0.1       1.3       0.0       0.0
 9 H  px              0.0       0.0       0.2       0.7       0.4       0.9
 9 H  py              0.4       0.1       0.0       0.3       0.5       0.0
10 H  s               0.1       0.5       3.1       0.1       4.4       1.3
10 H  pz              0.6       0.5       0.1       0.2       0.4       1.1
10 H  px              0.3       0.3       0.0       0.1       0.7       0.0
10 H  py              0.3       0.0       0.0       0.1       0.1       0.0
11 H  s               2.2       1.0       4.2       0.1       0.2       2.4
11 H  pz              0.2       0.3       0.7       0.0       0.4       0.0
11 H  px              0.1       0.0       0.2       0.0       0.6       0.0
11 H  py              0.4       0.9       1.8       0.0       0.0       0.1
12 H  s               0.8       2.5       0.5       2.3       0.3       0.3
12 H  pz              0.5       0.2       0.0       0.4       0.7       0.0
12 H  px              0.3       0.0       0.2       0.2       0.0       0.0
12 H  py              0.2       1.4       0.1       1.1       0.1       0.0
13 H  s               5.2       0.5       2.1       1.4       0.7       0.2
13 H  pz              0.7       0.3       0.8       0.0       0.1       0.0
13 H  px              0.2       0.0       0.3       0.3       0.1       0.1
13 H  py              1.0       0.1       0.0       0.6       0.1       0.1
14 H  s               2.1       1.8       2.0       0.1       0.6       6.5
14 H  pz              0.4       0.4       0.3       0.0       0.1       0.9
14 H  px              0.0       0.1       0.4       0.0       0.2       0.4
14 H  py              0.1       0.1       0.1       0.1       0.0       0.6
15 H  s               1.4       0.0       0.9       3.7       2.0       4.1
15 H  pz              0.3       0.0       0.1       0.7       0.2       0.1
15 H  px              0.0       0.0       0.0       0.4       0.9       1.2

                     30        31        32        33        34        35   
                   0.19641   0.20596   0.21538   0.22965   0.23687   0.24499
                   0.00000   0.00000   0.00000   0.00000   0.00000   0.00000
                  --------  --------  --------  --------  --------  --------
 0 C  s               0.3       0.5       0.7       1.1       1.3       3.8
 0 C  pz              2.7       5.6       1.7       2.7      22.5       6.3
 0 C  px              0.2      24.1       3.3       4.6       0.3       0.5
 0 C  py              9.8       1.8      19.1       6.2       2.7       2.9
 0 C  dz2             0.7       0.0       0.1       1.9       0.0       0.0
 0 C  dxz             0.2       0.0       0.0       0.1       1.0       0.6
 0 C  dyz             0.0       0.0       0.5       0.1       0.0       0.7
 0 C  dx2y2           1.4       1.4       0.0       0.0       0.4       0.0
 0 C  dxy             0.0       0.0       0.9       0.1       0.1       0.0
 1 C  s               1.3       0.2       1.6       0.8       2.0       1.2
 1 C  pz              0.7       0.6      18.5       4.6       7.2       4.6
 1 C  px              3.4       6.8       0.4       1.7       2.2       5.6
 1 C  py              1.7       0.9       0.3       7.6       5.0       6.7
 1 C  dz2             0.8       0.4       0.0       0.9       0.2       0.1
 1 C  dxz             0.1       0.1       0.0       0.6       0.0       0.1
 1 C  dyz             0.0       0.1       0.1       0.4       0.1       0.5
 1 C  dx2y2           0.6       0.5       0.1       0.1       0.0       0.1
 1 C  dxy             0.0       0.9       0.0       0.2       0.3       0.2
 2 C  s               0.0       0.9       1.4       1.3       0.2       0.7
 2 C  pz              1.0       7.8       1.5       2.3       1.4       2.0
 2 C  px              1.7       6.4       4.2       1.0       3.9       0.5
 2 C  py              1.3       0.7       8.8       2.8       1.2      10.8
 2 C  dz2             0.1       0.7       0.2       0.1       0.6       0.0
 2 C  dyz             0.3       0.0       0.0       0.0       0.2       0.7
 2 C  dx2y2           0.1       0.0       0.0       0.8       0.0       0.1
 2 C  dxy             0.1       0.4       0.1       0.0       0.1       0.3
 3 C  s               2.5       0.1       1.1       1.9       0.4       1.1
 3 C  pz              0.4       2.4       1.9       3.3       2.7       1.4
 3 C  px              1.6       2.0       0.3       0.8       3.1       3.2
 3 C  py             10.1       2.4       0.2       2.4       0.2       0.5
 3 C  dz2             0.4       0.2       0.0       0.0       0.6       0.0
 3 C  dxz             0.0       0.0       0.0       0.1       0.7       0.2
 3 C  dyz             0.4       0.1       0.0       0.0       0.0       0.7
 3 C  dx2y2           0.2       0.7       0.1       0.1       0.0       0.1
 3 C  dxy             0.0       0.0       0.1       0.1       0.0       0.4
 4 N  s               1.1       0.3       0.0       0.1       0.1       0.4
 4 N  pz              1.0       0.1       3.7       1.6       1.1       0.8
[...]
 1 C  s               0.3       0.1       0.6       0.1       0.2       0.0
 1 C  pz              1.4       1.8       0.0       2.7       0.1       0.0
 1 C  px              0.5       0.0       1.8       0.3       0.3       0.0
 1 C  py              0.1       0.2       0.6       2.6       0.0       0.0
 1 C  dz2             0.7       0.7       0.2       4.4       0.1       0.0
 1 C  dxz             3.9       1.3       0.3       1.6       0.1       0.0
 1 C  dyz             0.1       0.0       0.0       1.2       0.0       0.0
 1 C  dx2y2           0.4       1.9       1.9       5.9       0.0       0.0
 1 C  dxy             0.0       0.0       0.7       0.0       0.0       0.0
 2 C  s               0.1       0.9       2.4       0.0       0.0       0.0
 2 C  pz              1.6       1.7       3.7       0.8       0.0       0.0
 2 C  px              0.1       0.0       0.2       0.1       0.2       0.2
 2 C  py              5.2       0.3       1.9       3.8       0.0       0.0
 2 C  dz2             1.5       0.0       0.0       4.0       0.1       0.0
 2 C  dxz             1.8       2.6       1.9       1.3       0.1       0.0
 2 C  dyz             3.8       1.2       0.1       3.4       0.0       0.0
 2 C  dx2y2           2.3       0.5       9.6       3.0       0.1       0.0
 2 C  dxy             0.1       0.4       0.5       0.1       0.1       0.0
 3 C  s               0.1       0.1       1.8       0.2       1.6       0.0
 3 C  pz              0.1       4.2       3.3       0.6       0.7       0.0
 3 C  px              0.5       0.3       0.0       0.4       6.6       0.0
 3 C  py              2.4       6.5       2.6       0.2       0.6       0.0
 3 C  dz2             0.6       3.4       0.7       0.6       2.3       0.0
 3 C  dxz             0.0       4.3       0.9       0.4       0.8       0.2
 3 C  dyz             1.0       9.9       0.0       0.9       0.2       0.1
 3 C  dx2y2           1.0       1.5       8.0       0.0       5.0       0.0
 3 C  dxy             0.0       0.3       0.2       0.5       2.7       0.0
 4 N  s               0.0       0.2       7.9       1.6       1.3       0.0
 4 N  pz              0.0       0.4       0.0       0.0       0.4      14.7
 4 N  px              0.0       0.1       0.8       0.1      18.8       0.3
 4 N  py              0.1       0.0       0.8       0.2       0.2       0.6
 4 N  dz2             0.0       0.6       2.3       0.3      12.3       0.0
 4 N  dxz             0.1       0.0       0.4       0.0       5.4      25.2
 4 N  dyz             0.0       0.0       1.5       0.2       2.5      16.5
 4 N  dx2y2           0.1       0.1       4.0       1.1       2.2       3.0
 4 N  dxy             0.1       0.4       0.0       0.3      13.7       0.2
 5 H  s               2.7       0.1       0.0       0.4       0.0       0.0
 5 H  pz              0.3       0.1       0.0       0.0       0.0       0.0
 5 H  px              0.3       0.0       0.0       0.0       0.0       0.0
 5 H  py              5.5       0.2       0.0       0.9       0.0       0.0
 6 H  s               1.9       0.1       0.0       0.0       0.0       0.0
 6 H  px              4.1       0.3       0.1       0.0       0.0       0.0
 6 H  py              0.6       0.0       0.0       0.0       0.0       0.0
 7 H  s               0.6       0.6       0.1       0.5       0.0       0.0
 7 H  pz              1.1       0.9       0.2       1.7       0.0       0.0
 7 H  px              0.8       0.4       0.0       0.0       0.0       0.0
 8 H  s               0.3       0.5       0.3       4.1       0.0       0.0
 8 H  pz              0.0       0.0       0.2       0.1       0.0       0.0
 8 H  py              0.6       1.3       0.8      10.2       0.1       0.0
 9 H  s               1.8       1.3       0.1       2.9       0.1       0.0
 9 H  pz              4.4       2.1       0.3       4.2       0.1       0.0
 9 H  px              0.7       1.3       0.0       1.8       0.0       0.0
10 H  s               3.4       0.9       0.7       2.6       0.0       0.0
10 H  pz              6.0       1.8       1.0       3.7       0.0       0.0
10 H  px              1.8       0.2       0.3       1.3       0.0       0.0
10 H  py              0.6       1.0       1.3       1.0       0.0       0.0
11 H  s               3.2       0.2       2.4       3.3       0.0       0.0
11 H  pz              0.9       0.0       0.0       0.9       0.0       0.0
11 H  px              0.0       0.1       0.0       0.0       0.0       0.0
11 H  py              6.6       0.5       7.3       7.1       0.1       0.0
12 H  s               1.1       3.8       3.0       0.1       0.2       0.0
12 H  pz              0.2       1.8       0.1       0.2       0.0       0.0
12 H  px              0.1       0.1       0.0       0.0       0.2       0.0
12 H  py              2.2       7.3       8.5       0.1       0.3       0.0
13 H  s               1.0       6.9       0.2       1.0       0.4       0.1
13 H  pz              1.9      10.9       0.2       2.0       0.4       0.1
13 H  px              0.2       2.8       0.0       0.0       0.0       0.0
13 H  py              0.2       3.0       0.8       1.1       0.6       0.0
14 H  s               0.0       0.0       1.2       0.3       2.7       8.0
14 H  pz              0.1       0.0       1.7       0.7       4.3       7.1
14 H  px              0.0       0.0       0.8       0.0       0.1       2.1
14 H  py              0.0       0.1       1.1       0.3       1.3       2.6
15 H  s               0.0       0.1       0.9       0.2       3.4       7.7
15 H  pz              0.1       0.0       2.0       0.5       5.3       5.5
15 H  px              0.0       0.3       1.7       0.3       1.2       5.1
15 H  py              0.0       0.1       0.3       0.0       0.1       0.3

                    150       151       152       153       154   
                  21.93404  21.99747  22.02697  22.04250  31.86125
                   0.00000   0.00000   0.00000   0.00000   0.00000
                  --------  --------  --------  --------  --------
 0 C  s              85.5       4.3       2.5       7.3       0.0
 1 C  s               0.6      34.3      36.9      27.9       0.0
 2 C  s               9.6       0.1      37.7      52.2       0.0
 3 C  s               3.8      60.9      22.6      12.2       0.1
 4 N  s               0.0       0.1       0.0       0.0      99.7


                      *****************************
                      * MAYER POPULATION ANALYSIS *
                      *****************************

  NA   - Mulliken gross atomic population
  ZA   - Total nuclear charge
  QA   - Mulliken gross atomic charge
  VA   - Mayer's total valence
  BVA  - Mayer's bonded valence
  FA   - Mayer's free valence

  ATOM       NA         ZA         QA         VA         BVA        FA
  0 C      6.5206     6.0000    -0.5206     3.8019     3.8019    -0.0000
  1 C      6.2561     6.0000    -0.2561     3.6687     3.6687     0.0000
  2 C      6.2237     6.0000    -0.2237     3.5447     3.5447     0.0000
  3 C      6.2643     6.0000    -0.2643     3.8273     3.8273    -0.0000
  4 N      7.6329     7.0000    -0.6329     2.7065     2.7065     0.0000
  5 H      0.8462     1.0000     0.1538     0.9613     0.9613    -0.0000
  6 H      0.8445     1.0000     0.1555     0.9594     0.9594    -0.0000
  7 H      0.8418     1.0000     0.1582     0.9589     0.9589    -0.0000
  8 H      0.8585     1.0000     0.1415     0.9634     0.9634     0.0000
  9 H      0.8510     1.0000     0.1490     0.9580     0.9580    -0.0000
 10 H      0.8539     1.0000     0.1461     0.9611     0.9611    -0.0000
 11 H      0.8539     1.0000     0.1461     0.9657     0.9657    -0.0000
 12 H      0.8675     1.0000     0.1325     0.9534     0.9534    -0.0000
 13 H      0.8444     1.0000     0.1556     0.9488     0.9488    -0.0000
 14 H      0.7203     1.0000     0.2797     0.9149     0.9149     0.0000
 15 H      0.7204     1.0000     0.2796     0.9138     0.9138     0.0000

  Mayer bond orders larger than 0.100000
B(  0-C ,  1-C ) :   0.8986 B(  0-C ,  5-H ) :   0.9787 B(  0-C ,  6-H ) :   0.9690 
B(  0-C ,  7-H ) :   0.9786 B(  1-C ,  2-C ) :   0.9006 B(  1-C ,  8-H ) :   0.9797 
B(  1-C ,  9-H ) :   0.9683 B(  2-C ,  3-C ) :   0.8961 B(  2-C , 10-H ) :   0.9569 
B(  2-C , 11-H ) :   0.9698 B(  3-C ,  4-N ) :   0.9479 B(  3-C , 12-H ) :   0.9787 
B(  3-C , 13-H ) :   0.9858 B(  4-N , 14-H ) :   0.9047 B(  4-N , 15-H ) :   0.9035 


-------
TIMINGS
-------

Total SCF time: 0 days 0 hours 0 min 19 sec 

Total time                  ....      19.044 sec
Sum of individual times     ....      18.419 sec  ( 96.7%)

SCF preparation             ....       0.348 sec  (  1.8%)
Fock matrix formation       ....      17.068 sec  ( 89.6%)
  Startup                   ....       0.078 sec  (  0.5% of F)
  Split-RI-J                ....       2.170 sec  ( 12.7% of F)
  XC integration            ....      11.539 sec  ( 67.6% of F)
    Basis function eval.    ....       2.228 sec  ( 19.3% of XC)
    Density eval.           ....       3.030 sec  ( 26.3% of XC)
    XC-Functional eval.     ....       1.866 sec  ( 16.2% of XC)
    XC-Potential eval.      ....       3.464 sec  ( 30.0% of XC)
  CPCM terms                ....       2.682 sec  ( 15.7% of F)
Diagonalization             ....       0.000 sec  (  0.0%)
Density matrix formation    ....       0.282 sec  (  1.5%)
Total Energy calculation    ....       0.063 sec  (  0.3%)
Population analysis         ....       0.086 sec  (  0.4%)
Orbital Transformation      ....       0.048 sec  (  0.3%)
Orbital Orthonormalization  ....       0.000 sec  (  0.0%)
DIIS solution               ....       0.441 sec  (  2.3%)
  MO trafo                  ....       0.000 sec  (  0.0 % of DIIS)
  Orb grad                  ....       0.000 sec  (  0.0 % of DIIS)
  Energy W gradient         ....       0.000 sec  (  0.0 % of DIIS)
  DIIS error                ....       0.006 sec  (  1.3 % of DIIS)
  DIIS work                 ....       0.387 sec  ( 87.7 % of DIIS)
  Form Q                    ....       0.000 sec  (  0.0 % of DIIS)
  Form QpQm                 ....       0.000 sec  (  0.0 % of DIIS)
  Exp/Cayley                ....       0.000 sec  (  0.0 % of DIIS)
  Orb update                ....       0.000 sec  (  0.0 % of DIIS)
  Wake-sleep                ....       0.024 sec  (  5.5 % of DIIS)
SOSCF solution              ....       0.084 sec  (  0.4%)
  MO trafo                  ....       0.052 sec  ( 61.9 % of SOSCF)
  Orb grad                  ....       0.001 sec  (  1.5 % of SOSCF)
  Rot update                ....       0.011 sec  ( 13.3 % of SOSCF)
  Step                      ....       0.019 sec  ( 23.2 % of SOSCF)
Finished LeanSCF after  19.2 sec

Maximum memory used throughout the entire LEANSCF-calculation: 20.0 MB


-------------------------------------------------------------------------------
                          DFT DISPERSION CORRECTION                            
                                                                               
                                DFTD4 V3.4.0                                   
-------------------------------------------------------------------------------
The R2SCAN3C composite method is recognized
Using three-body term ABC
Active option DFTDOPT                   ...         5   

-------------------------   ----------------
Dispersion correction           -0.003428076
-------------------------   ----------------

------------------   -----------------
gCP correction             0.010532130
------------------   -----------------

-------------------------   --------------------
FINAL SINGLE POINT ENERGY      -213.727822817667
-------------------------   --------------------


------------------------------------------------------------------------------
                              ORCA PROPERTY CALCULATIONS
------------------------------------------------------------------------------

GBWName                                 ... sp_solv.gbw
Number of atoms                         ...     16
Number of basis functions               ...    155
Max core memory                         ...   1024 MB

Electric properties:
Dipole moment                           ... YES
Quadrupole moment                       ...  NO
Static polarizability (Dipole/Dipole)   ...  NO
Static polarizability (Dipole/Quad.)    ...  NO
Static polarizability (Quad./Quad.)     ...  NO
Static polarizability (Velocity)        ...  NO

Atomic electric properties:
Dipole moment                           ...  NO
Quadrupole moment                       ...  NO
Static polarizability                   ...  NO

Choice of electric origin               ... Center of mass
Position of electric origin             ...    -0.000011    -0.000000     0.000002

General magnetic properties:
Magnetizability                         ...  NO

EPR properties:
g-Tensor (aka g-matrix)                 ...  NO
Zero-Field splitting spin-orbit         ...  NO
Zero-field splitting spin-spin          ...  NO
Hyperfine couplings                     ...  NO (   0 nuclei)
Quadrupole couplings                    ...  NO (   0 nuclei)
Contact density                         ...  NO (   0 nuclei)

NMR properties:
Chemical shifts                         ...  NO (   0 nuclei)
Spin-rotation constants                 ...  NO (   0 nuclei)
Spin-spin couplings                     ...  NO (   0 nuclei,    0 pairs)

Choice of magnetic origin               ... GIAO
Position of magnetic origin             ...     0.000000     0.000000     0.000000

Properties with geometric perturbations:
SCF Hessian                             ...  NO
IR spectrum                             ...  NO
VCD spectrum                            ...  NO
X-ray spectroscopy properties:
SCF XES/XAS/RIXS spectra                ...  NO


-------------
DIPOLE MOMENT
-------------

Method             : SCF
Type of density    : Electron Density
Multiplicity       :   1
Irrep              :   0
Energy             :  -213.7349268714161497 Eh
Relativity type    : 
Basis              : AO
                                X                 Y                 Z
Electronic contribution:     -2.414326528       0.053537669      -0.467346222
Nuclear contribution   :      2.369620830       0.626502072       0.565944499
                        -----------------------------------------
Total Dipole Moment    :     -0.044705698       0.680039741       0.098598277
                        -----------------------------------------
Magnitude (a.u.)       :      0.688603129
Magnitude (Debye)      :      1.750290055



--------------------
Rotational spectrum 
--------------------
 
Rotational constants in cm-1:             0.408676             0.077912             0.071906 
Rotational constants in MHz :         12251.809672          2335.735757          2155.701258 

Dipole components along the rotational axes: 
x,y,z [a.u.] :    -0.032809     0.108194     0.679258 
x,y,z [Debye]:    -0.083394     0.275007     1.726537 

 

Dipole moment calculation done in   0.0 sec 

Maximum memory used throughout the entire PROP-calculation: 8.9 MB

--------------------------------
SUGGESTED CITATIONS FOR THIS RUN
--------------------------------

Below you find a list of papers that are relevant to this ORCA run
We neither can nor want to force you to cite these papers, but we appreciate if you do
You receive ORCA, which is the product of decades of hard work by many enthusiastic individuals, for free
The only thing we kindly ask in return is that you cite our papers,
We deeply appreciate it, if you show your appreciation for ORCA by not just citing the generic ORCA reference.

Please note that relegating all ORCA citations to the supporting information does *not* help us.
SI sections are not indexed - citations you put there will not count into any citation statistics
But we need these citations in order to attract the funding resources that allow us to do what we are doing

Therefore, if you are a happy ORCA user, please consider citing a few of the papers listed below in the main body of your paper

In addition to the list printed below, the program has created the file sp_solv.bibtex that contains the list in bibtex format
You can import this file easily into all common literature databanks and citation aid programs


List of essential papers. We consider these as the minimum necessary citations

  1. Neese,F.
     Software update: the ORCA program system, version 5.0
     WIRES Comput. Molec. Sci., 2022 12(1)e1606
     doi.org/10.1002/wcms.1606
  2. Grimme,S.; Hansen,A.; Ehlert,S.; Mewes,J.
     r2SCAN-3c: A 'Swiss army knife' composite electronic-structure method
     J. Chem. Phys., 2021 154 064103
     doi.org/10.1063/5.0040021

List of papers to cite with high priority. The work reported in these papers was absolutely
necessary for this run to complete.
Our perspective: the developers of density functionals and basis sets usually get cited in chemistry papers
Good! But without the algorithms to do something with them, the functionals or basis sets would not do anything.
Hence, in our opinion, the algorithm design and method developments papers are equally worthy of getting cited

  1. Neese,F.
     An improvement of the resolution of the identity approximation for the formation of the Coulomb matrix
     J. Comp. Chem., 2003 24(14)1740-1747
     doi.org/10.1002/jcc.10318
  2. Garcia-Rates,M.; Neese,F.
     Effect of the Solute Cavity on the Solvation Energy and its Derivatives within the Framework of the Gaussian Charge Scheme
     J. Comput. Chem., 2020 41 922-939
     doi.org/10.1002/jcc.26139
  3. Neese,F.
     The SHARK Integral Generation and Digestion System
     J. Comp. Chem., 2022  1-16
     doi.org/10.1002/jcc.26942
  4. Lehtola,S.; Steigemann,C.; Oliveira,M.; Marques,M.
     Recent developments in Libxc - A comprehensive library of functionals for density functional theory
     Software X, 2018 7 
     doi.org/10.1016/j.softx.2017.11.002
  5. Caldeweyher,E.; Bannwarth,C.; Grimme,S.
     Extension of the D3 dispersion coefficient model
     J. Chem. Phys., 2017 147 034112-XXXX
     doi.org/10.1063/1.4993215
  6. Caldeweyher,E.; Ehlert,S.; Hansen,A.; Neugebauer,H.; Spicher,S.; Bannwarth,C.; Grimme,S.
     A generally applicable atomic-charge dependent London dispersion correction
     J. Chem. Phys., 2019 150 154122-XXXX
     doi.org/10.1063/1.5090222
  7. Caldeweyher,E.; Mewes,J.; Ehlert,S.; Grimme,S.
     Extension and evaluation of the D4 London-dispersion model for periodic systems
     Phys. Chem. Chem. Phys., 2020 22(16)8499-8512
     doi.org/10.1039/D0CP00502A

List of suggested additional citations. These are papers that are important in the 'surrounding' of 
of this run, or papers that preceded the highly important papers. If you like your results we are grateful for a citation.

  1. Neese,F.
     The ORCA program system
     WIRES Comput. Molec. Sci., 2012 2(1)73-78
     doi.org/10.1002/wcms.81
  2. Neese,F.
     Software update: the ORCA program system, version 4.0
     WIRES Comput. Molec. Sci., 2018 8(1)1-6
     doi.org/10.1002/wcms.1327
  3. Neese,F.; Wennmohs,F.; Becker,U.; Riplinger,C.
     The ORCA quantum chemistry program package
     J. Chem. Phys., 2020 152 Art. No. L224108
     doi.org/10.1063/5.0004608

List of optional additional citations

  1. Neese,F.
     Approximate second-order SCF convergence for spin unrestricted wavefunctions
     Chem. Phys. Lett., 2000 325(1-3)93-98
     doi.org/10.1016/s0009-2614(00)00662-x

Timings for individual modules:

Sum of individual times          ...       20.648 sec (=   0.344 min)
Startup calculation              ...        0.970 sec (=   0.016 min)   4.7 %
SCF iterations                   ...       19.569 sec (=   0.326 min)  94.8 %
Property calculations            ...        0.109 sec (=   0.002 min)   0.5 %
                             ****ORCA TERMINATED NORMALLY****
TOTAL RUN TIME: 0 days 0 hours 0 minutes 21 seconds 417 msec
