
                                 *****************
                                 * O   R   C   A *
                                 *****************

                                            #,                                       
                                            ###                                      
                                            ####                                     
                                            #####                                    
                                            ######                                   
                                           ########,                                 
                                     ,,################,,,,,                         
                               ,,#################################,,                 
                          ,,##########################################,,             
                       ,#########################################, ''#####,          
                    ,#############################################,,   '####,        
                  ,##################################################,,,,####,       
                ,###########''''           ''''###############################       
              ,#####''   ,,,,##########,,,,          '''####'''          '####       
            ,##' ,,,,###########################,,,                        '##       
           ' ,,###''''                  '''############,,,                           
         ,,##''                                '''############,,,,        ,,,,,,###''
      ,#''                                            '''#######################'''  
     '                                                          ''''####''''         
             ,#######,   #######,   ,#######,      ##                                
            ,#'     '#,  ##    ##  ,#'     '#,    #''#        ,####,   ,####,        
            ##       ##  ##   ,#'  ##            #'  '#       #'       #'  '#        
            ##       ##  #######   ##           ,######,      #####,   #    #        
            '#,     ,#'  ##    ##  '#,     ,#' ,#      #,     #,   #   #,  ,#        
             '#######'   ##     ##  '#######'  #'      '#     '####' # '####'        



                #########################################################
                #                        -***-                          #
                #          Department of theory and spectroscopy        #
                #                                                       #
                #                      Frank Neese                      #
                #                                                       #
                #     Directorship, Architecture, Infrastructure        #
                #                    SHARK, DRIVERS                     #
                #        Core code/Algorithms in most modules           #
                #                                                       #
                #        Max Planck Institute fuer Kohlenforschung      #
                #                Kaiser Wilhelm Platz 1                 #
                #                 D-45470 Muelheim/Ruhr                 #
                #                      Germany                          #
                #                                                       #
                #                  All rights reserved                  #
                #                        -***-                          #
                #########################################################


                         Program Version 6.0.0  -   RELEASE  -


 With contributions from (in alphabetic order):
   Daniel Aravena         : Magnetic Suceptibility
   Michael Atanasov       : Ab Initio Ligand Field Theory (pilot matlab implementation)
   Alexander A. Auer      : GIAO ZORA, VPT2 properties, NMR spectrum
   Ute Becker             : All parallelization in ORCA, NUMFREQ, NUMCALC
   Giovanni Bistoni       : ED, misc. LED, open-shell LED, HFLD
   Martin Brehm           : Molecular dynamics
   Dmytro Bykov           : pre 5.0 version of the SCF Hessian
   Marcos Casanova-Páez   : Triplet and SCS-CIS(D). UHF-(DLPNO)-IP/EA/STEOM-CCSD. UHF-CVS-IP/STEOM-CCSD
   Vijay G. Chilkuri      : MRCI spin determinant printing, contributions to CSF-ICE
   Pauline Colinet        : FMM embedding
   Dipayan Datta          : RHF DLPNO-CCSD density
   Achintya Kumar Dutta   : EOM-CC, STEOM-CC
   Nicolas Foglia         : Exact transition moments, OPA infrastructure, MCD improvements
   Dmitry Ganyushin       : Spin-Orbit,Spin-Spin,Magnetic field MRCI
   Miquel Garcia          : C-PCM and meta-GGA Hessian, CCSD/C-PCM, Gaussian charge scheme
   Tiago L. C. Gouveia    : GS-ROHF, GS-ROCIS
   Yang Guo               : DLPNO-NEVPT2, F12-NEVPT2, CIM, IAO-localization
   Andreas Hansen         : Spin unrestricted coupled pair/coupled cluster methods
   Ingolf Harden          : AUTO-CI MPn and infrastructure 
   Benjamin Helmich-Paris : MC-RPA, TRAH-(SCF,CASSCF), AVAS, COSX integrals, SCF dyn. polar.
   Lee Huntington         : MR-EOM, pCC
   Robert Izsak           : Overlap fitted RIJCOSX, COSX-SCS-MP3, EOM
   Riya Kayal             : Wick's Theorem for AUTO-CI, AUTO-CI UHF-CCSDT
   Emily Kempfer          : AUTO-CI, RHF CISDT and CCSDT
   Christian Kollmar      : KDIIS, OOCD, Brueckner-CCSD(T), CCSD density, CASPT2, CASPT2-K, improved NEVPT2
   Axel Koslowski         : Symmetry handling
   Simone Kossmann        : Meta GGA functionals, TD-DFT gradient, OOMP2, (MP2 Hessian; deprecated post 5.0)
   Lucas Lang             : DCDCAS
   Marvin Lechner         : AUTO-CI (C++ implementation), FIC-MRCC
   Spencer Leger          : CASSCF response
   Dagmar Lenk            : GEPOL surface, SMD, ORCA-2-JSON
   Dimitrios Liakos       : Extrapolation schemes; Compound Job, initial MDCI parallelization
   Dimitrios Manganas     : Further ROCIS development; embedding schemes. LFT, Crystal Embedding
   Dimitrios Pantazis     : SARC Basis sets
   Anastasios Papadopoulos: AUTO-CI, single reference methods and gradients
   Taras Petrenko         : pre 6.0 DFT Hessian and TD-DFT gradient, (ASA, deprecated), ECA, 1-Electron XAS/XES, NRVS
   Peter Pinski           : DLPNO-MP2, DLPNO-MP2 Gradient
   Christoph Reimann      : Effective Core Potentials
   Marius Retegan         : Local ZFS, SOC
   Christoph Riplinger    : Optimizer, TS searches, QM/MM, DLPNO-CCSD(T), (RO)-DLPNO pert. Triples
   Michael Roemelt        : Original ROCIS implementation
   Masaaki Saitow         : Open-shell DLPNO-CCSD energy and density
   Barbara Sandhoefer     : DKH picture change effects
   Kantharuban Sivalingam : CASSCF convergence/infrastructure, NEVPT2 and variants, FIC-MRCI
   Bernardo de Souza      : ESD, SOC TD-DFT
   Georgi Stoychev        : AutoAux, RI-MP2 NMR, DLPNO-MP2 response, X2C
   Van Anh Tran           : RI-MP2 g-tensors
   Willem Van den Heuvel  : Paramagnetic NMR
   Zikuan Wang            : NOTCH, Electric field optimization 
   Frank Wennmohs         : Technical directorship and infrastructure
   Hang Xu                : AUTO-CI-Response properties 


 We gratefully acknowledge several colleagues who have allowed us to
 interface, adapt or use parts of their codes:
   Stefan Grimme, W. Hujo, H. Kruse, P. Pracht,  : VdW corrections, initial TS optimization,
                  C. Bannwarth, S. Ehlert,         DFT functionals, gCP, sTDA/sTD-DF
                  L. Wittmann, M. Mueller
   Ed Valeev, F. Pavosevic, A. Kumar             : LibInt (2-el integral package), F12 methods
   Garnet Chan, S. Sharma, J. Yang, R. Olivares  : DMRG
   Ulf Ekstrom                                   : XCFun DFT Library
   Mihaly Kallay                                 : mrcc  (arbitrary order and MRCC methods)
   Frank Weinhold                                : gennbo (NPA and NBO analysis)
   Simon Mueller                                 : openCOSMO-RS
   Christopher J. Cramer and Donald G. Truhlar   : smd solvation model
   Lars Goerigk                                  : TD-DFT with DH, B97 family of functionals
   V. Asgeirsson, H. Jonsson                     : NEB implementation
   FAccTs GmbH                                   : IRC, NEB, NEB-TS, DLPNO-Multilevel, CI-OPT
                                                   MM, QMMM, 2- and 3-layer-ONIOM, Crystal-QMMM,
                                                   LR-CPCM, SF, NACMEs, symmetry and pop. for TD-DFT,
                                                   nearIR, NL-DFT gradient (VV10), updates on ESD,
                                                   ML-optimized integration grids, MBIS, APM,
                                                   GOAT, DOCKER, SOLVATOR, interface openCOSMO-RS
   S Lehtola, MJT Oliveira, MAL Marques          : LibXC Library
   Liviu Ungur et al                             : ANISO software


 Your calculation uses the libint2 library for the computation of 2-el integrals
 For citations please refer to: http://libint.valeyev.net

 Your ORCA version has been built with support for libXC version: 6.2.2
 For citations please refer to: https://libxc.gitlab.io

 This ORCA versions uses:
   CBLAS   interface :  Fast vector & matrix operations
   LAPACKE interface :  Fast linear algebra routines
   SCALAPACK package :  Parallel linear algebra routines
   Shared memory     :  Shared parallel matrices
   BLAS/LAPACK       :  OpenBLAS 0.3.27  USE64BITINT DYNAMIC_ARCH NO_AFFINITY SkylakeX SINGLE_THREADED
        Core in use  :  SkylakeX
   Copyright (c) 2011-2014, The OpenBLAS Project


Your calculation utilizes the geometrical counterpoise correction gCP
Please cite in your paper:
H.Kruse, S. Grimme J.Chem.Phys., 136, (2012), 154101 
   

Your calculation utilizes the atom-pairwise dispersion correction
based on EEQ partial charges (D4)


================================================================================

----- Orbital basis set information -----
Your calculation utilizes the basis: def2-SV(P)
   F. Weigend and R. Ahlrichs, Phys. Chem. Chem. Phys. 7, 3297 (2005).

----- AuxJ basis set information -----
Your calculation utilizes the auxiliary basis: def2/J
   F. Weigend, Phys. Chem. Chem. Phys. 8, 1057 (2006).

================================================================================
                                        WARNINGS
                       Please study these warnings very carefully!
================================================================================


================================================================================
                                       INPUT FILE
================================================================================
NAME = sp.inp
|  1> ! pbe def2-sv(p) def2/J RI DEFGRID1 loosescf d4 GCP(DFT/SV(P)) printgap
|  2> %output
|  3>     printlevel normal
|  4> end
|  5> * xyz 0 1
|  6> C 2.3208333414 0.301899321 -0.0031755898
|  7> C 1.1626520269 -0.1960339664 0.3867825641
|  8> C -7.47795e-05 -0.4596858722 -0.5236813793
|  9> C -1.1616417892 0.4092472578 -0.1413026208
| 10> C -2.3217064395 -0.0419295862 0.2969554462
| 11> H 3.1262612939 0.4824538005 0.6881024332
| 12> H 2.5147346683 0.5441511006 -1.0354528332
| 13> H 0.9879021438 -0.4278674104 1.4293953555
| 14> H -0.2911279295 -1.509917415 -0.447939387
| 15> H 0.2900031907 -0.2462534037 -1.5551060773
| 16> H -0.9842087943 1.4732770515 -0.2293788181
| 17> H -3.1261164744 0.620379075 0.5678957002
| 18> H -2.5181911884 -1.0970564106 0.3968494079
| 19> *
| 20> 
| 21>                          ****END OF INPUT****
================================================================================

                       ****************************
                       * Single Point Calculation *
                       ****************************

---------------------------------
CARTESIAN COORDINATES (ANGSTROEM)
---------------------------------
  C      2.320833    0.301899   -0.003176
  C      1.162652   -0.196034    0.386783
  C     -0.000075   -0.459686   -0.523681
  C     -1.161642    0.409247   -0.141303
  C     -2.321706   -0.041930    0.296955
  H      3.126261    0.482454    0.688102
  H      2.514735    0.544151   -1.035453
  H      0.987902   -0.427867    1.429395
  H     -0.291128   -1.509917   -0.447939
  H      0.290003   -0.246253   -1.555106
  H     -0.984209    1.473277   -0.229379
  H     -3.126116    0.620379    0.567896
  H     -2.518191   -1.097056    0.396849

----------------------------
CARTESIAN COORDINATES (A.U.)
----------------------------
  NO LB      ZA    FRAG     MASS         X           Y           Z
   0 C     6.0000    0    12.011    4.385739    0.570507   -0.006001
   1 C     6.0000    0    12.011    2.197094   -0.370451    0.730913
   2 C     6.0000    0    12.011   -0.000141   -0.868680   -0.989614
   3 C     6.0000    0    12.011   -2.195185    0.773365   -0.267023
   4 C     6.0000    0    12.011   -4.387389   -0.079235    0.561164
   5 H     1.0000    0     1.008    5.907778    0.911706    1.300325
   6 H     1.0000    0     1.008    4.752160    1.028297   -1.956722
   7 H     1.0000    0     1.008    1.866864   -0.808552    2.701166
   8 H     1.0000    0     1.008   -0.550152   -2.853330   -0.846483
   9 H     1.0000    0     1.008    0.548027   -0.465351   -2.938725
  10 H     1.0000    0     1.008   -1.859885    2.784090   -0.433463
  11 H     1.0000    0     1.008   -5.907504    1.172347    1.073167
  12 H     1.0000    0     1.008   -4.758692   -2.073136    0.749937

--------------------------------
INTERNAL COORDINATES (ANGSTROEM)
--------------------------------
 C      0   0   0     0.000000000000     0.00000000     0.00000000
 C      1   0   0     1.319616943568     0.00000000     0.00000000
 C      2   1   0     1.500130176346   124.55728193     0.00000000
 C      3   2   1     1.500165396677   110.09892821   243.80454742
 C      4   3   2     1.319613833941   124.56151663   243.51021203
 H      1   2   3     1.076651945532   122.01301983   179.48244591
 H      1   2   3     1.077905356019   121.71422878   359.04236080
 H      2   1   3     1.082278014279   120.47870390   181.23864282
 H      3   2   1     1.092444542764   109.47421766   123.44842915
 H      3   2   1     1.092490528586   109.44263436     4.15525453
 H      4   3   2     1.082312009585   114.94585438    62.33135475
 H      5   4   3     1.076632197264   122.01018845   179.48551397
 H      5   4   3     1.077904298026   121.71529825   359.05065141

---------------------------
INTERNAL COORDINATES (A.U.)
---------------------------
 C      0   0   0     0.000000000000     0.00000000     0.00000000
 C      1   0   0     2.493714625025     0.00000000     0.00000000
 C      2   1   0     2.834835198525   124.55728193     0.00000000
 C      3   2   1     2.834901755305   110.09892821   243.80454742
 C      4   3   2     2.493708748682   124.56151663   243.51021203
 H      1   2   3     2.034577318610   122.01301983   179.48244591
 H      1   2   3     2.036945921163   121.71422878   359.04236080
 H      2   1   3     2.045209047751   120.47870390   181.23864282
 H      3   2   1     2.064421002321   109.47421766   123.44842915
 H      3   2   1     2.064507902930   109.44263436     4.15525453
 H      4   3   2     2.045273289569   114.94585438    62.33135475
 H      5   4   3     2.034539999791   122.01018845   179.48551397
 H      5   4   3     2.036943921846   121.71529825   359.05065141

---------------------
BASIS SET INFORMATION
---------------------
There are 2 groups of distinct atoms

 Group   1 Type C   : 7s4p1d contracted to 3s2p1d pattern {511/31/1}
 Group   2 Type H   : 4s contracted to 2s pattern {31}

Atom   0C    basis set group =>   1
Atom   1C    basis set group =>   1
Atom   2C    basis set group =>   1
Atom   3C    basis set group =>   1
Atom   4C    basis set group =>   1
Atom   5H    basis set group =>   2
Atom   6H    basis set group =>   2
Atom   7H    basis set group =>   2
Atom   8H    basis set group =>   2
Atom   9H    basis set group =>   2
Atom  10H    basis set group =>   2
Atom  11H    basis set group =>   2
Atom  12H    basis set group =>   2
---------------------------------
AUXILIARY/J BASIS SET INFORMATION
---------------------------------
There are 2 groups of distinct atoms

 Group   1 Type C   : 12s5p4d2f1g contracted to 6s4p3d1f1g pattern {711111/2111/211/2/1}
 Group   2 Type H   : 5s2p1d contracted to 3s1p1d pattern {311/2/1}

Atom   0C    basis set group =>   1
Atom   1C    basis set group =>   1
Atom   2C    basis set group =>   1
Atom   3C    basis set group =>   1
Atom   4C    basis set group =>   1
Atom   5H    basis set group =>   2
Atom   6H    basis set group =>   2
Atom   7H    basis set group =>   2
Atom   8H    basis set group =>   2
Atom   9H    basis set group =>   2
Atom  10H    basis set group =>   2
Atom  11H    basis set group =>   2
Atom  12H    basis set group =>   2
------------------------------------------------------------------------------
                             ORCA STARTUP CALCULATIONS
                           -- RI-GTO INTEGRALS CHOSEN --
------------------------------------------------------------------------------
------------------------------------------------------------------------------
                   ___                                                        
                  /   \      - P O W E R E D   B Y -                         
                 /     \                                                     
                 |  |  |   _    _      __       _____    __    __             
                 |  |  |  | |  | |    /  \     |  _  \  |  |  /  |          
                  \  \/   | |  | |   /    \    | | | |  |  | /  /          
                 / \  \   | |__| |  /  /\  \   | |_| |  |  |/  /          
                |  |  |   |  __  | /  /__\  \  |    /   |      \           
                |  |  |   | |  | | |   __   |  |    \   |  |\   \          
                \     /   | |  | | |  |  |  |  | |\  \  |  | \   \       
                 \___/    |_|  |_| |__|  |__|  |_| \__\ |__|  \__/        
                                                                              
                      - O R C A' S   B I G   F R I E N D -                    
                                      &                                       
                       - I N T E G R A L  F E E D E R -                       
                                                                              
 v1 FN, 2020, v2 2021, v3 2022-2024                                           
------------------------------------------------------------------------------


----------------------
SHARK INTEGRAL PACKAGE
----------------------

Number of atoms                             ...     13
Number of basis functions                   ...     86
Number of shells                            ...     46
Maximum angular momentum                    ...      2
Integral batch strategy                     ... SHARK/LIBINT Hybrid
RI-J (if used) integral strategy            ... SPLIT-RIJ (Revised 2003 algorithm where possible)
Printlevel                                  ...      1
Contraction scheme used                     ... SEGMENTED contraction
Prescreening option                         ... SCHWARTZ
   Thresh                                   ... 1.000e-09
   Tcut                                     ... 1.000e-10
   Tpresel                                  ... 1.000e-10 
Coulomb Range Separation                    ... NOT USED
Exchange Range Separation                   ... NOT USED
Multipole approximations                    ... NOT USED
Finite Nucleus Model                        ... NOT USED
CABS basis                                  ... NOT available
Auxiliary Coulomb fitting basis             ... AVAILABLE
   # of basis functions in Aux-J            ...    333
   # of shells in Aux-J                     ...    115
   Maximum angular momentum in Aux-J        ...      4
Auxiliary J/K fitting basis                 ... NOT available
Auxiliary Correlation fitting basis         ... NOT available
Auxiliary 'external' fitting basis          ... NOT available

Checking pre-screening integrals            ... done (  0.0 sec) Dimension = 46
Check shell pair data                       ... done (  0.0 sec)
Shell pair information
Shell pair cut-off parameter TPreSel        ...   1.0e-10
Total number of shell pairs                 ...      1081
Shell pairs after pre-screening             ...      1046
Total number of primitive shell pairs       ...      4367
Primitive shell pairs kept                  ...      3214
          la=0 lb=0:    476 shell pairs
          la=1 lb=0:    306 shell pairs
          la=1 lb=1:     55 shell pairs
          la=2 lb=0:    145 shell pairs
          la=2 lb=1:     50 shell pairs
          la=2 lb=2:     14 shell pairs

Calculating one electron integrals          ... done (  0.0 sec)
Calculating RI/J V-Matrix + Cholesky decomp.... done (  0.0 sec)
Calculating Nuclear repulsion               ... done (  0.0 sec) ENN=    156.628682775111 Eh

Diagonalization of the overlap matrix:
Smallest eigenvalue                        ... 2.479e-03
Time for diagonalization                   ...    0.001 sec
Threshold for overlap eigenvalues          ... 1.000e-07
Number of eigenvalues below threshold      ... 0
Time for construction of square roots      ...    0.018 sec
Total time needed                          ...    0.028 sec

-------------------
DFT GRID GENERATION
-------------------

General Integration Accuracy     IntAcc      ... 4.159
Radial Grid Type                 RadialGrid  ... OptM3 with GC (2021)
Angular Grid (max. ang.)         AngularGrid ... 3 (Lebedev-194)
Angular grid pruning method      GridPruning ... 4 (adaptive)
Weight generation scheme         WeightScheme... mBecke (2022)
Basis function cutoff            BFCut       ... 1.0000e-10
Integration weight cutoff        WCut        ... 1.0000e-14
Partially contracted basis set               ... off
Rotationally invariant grid construction     ... off
Angular grids for H and He will be reduced by one unit

Total number of grid points                  ...    27833
Total number of batches                      ...      441
Average number of points per batch           ...       63
Average number of grid points per atom       ...     2141
Initializing property integral containers    ... done (  0.0 sec)

SHARK setup successfully completed in   0.5 seconds

Maximum memory used throughout the entire STARTUP-calculation: 13.3 MB
-------------------------------------------------------------------------------
                                 ORCA GUESS
                   Start orbitals & Density for SCF / CASSCF
-------------------------------------------------------------------------------

------------
SCF SETTINGS
------------
Hamiltonian:
 Density Functional     Method          .... DFT(GTOs)
 Exchange Functional    Exchange        .... PBE
   PBE kappa parameter   XKappa         ....  0.804000
   PBE mue parameter    XMuePBE         ....  0.219520
 Correlation Functional Correlation     .... PBE
   PBE beta parameter  CBetaPBE         ....  0.066725
 LDA part of GGA corr.  LDAOpt          .... PW91-LDA
 Gradients option       PostSCFGGA      .... off
   NL short-range parameter             ....  6.400000
 RI-approximation to the Coulomb term is turned on
   Number of AuxJ basis functions       .... 333


General Settings:
 Integral files         IntName         .... sp
 Hartree-Fock type      HFTyp           .... RHF
 Total Charge           Charge          ....    0
 Multiplicity           Mult            ....    1
 Number of Electrons    NEL             ....   38
 Basis Dimension        Dim             ....   86
 Nuclear Repulsion      ENuc            ....    156.6286827751 Eh

Convergence Acceleration:
 AO-DIIS                CNVDIIS         .... on
   Start iteration      DIISMaxIt       ....    12
   Startup error        DIISStart       ....  0.200000
   # of expansion vecs  DIISMaxEq       ....     5
   Bias factor          DIISBfac        ....   1.050
   Max. coefficient     DIISMaxC        ....  10.000
 MO-DIIS                CNVKDIIS        .... off
 Trust-Rad. Augm. Hess. CNVTRAH         .... auto
   Auto Start mean grad. ratio tolernc. ....  1.125000
   Auto Start start iteration           ....    50
   Auto Start num. interpolation iter.  ....    10
   Max. Number of Micro iterations      ....    24
   Max. Number of Macro iterations      .... Maxiter - #DIIS iter
   Number of Davidson start vectors     ....     2
   Converg. threshold    (grad. norm)   ....   1.000e-04
   Grad. Scal. Fac. for Micro threshold ....   0.100
   Minimum threshold for Micro iter.    ....   1.000e-02
   NR start threshold (gradient norm)   ....   1.000e-04
   Initial trust radius                 ....   0.400
   Minimum AH scaling param. (alpha)    ....   1.000
   Maximum AH scaling param. (alpha)    .... 1000.000
   Quad. conv. algorithm                .... NR
   White noise on init. David. guess    .... on
   Maximum white noise                  ....   0.010
   Pseudo random numbers                .... off
   Inactive MOs                         .... canonical
   Orbital update algorithm             .... Taylor
   Preconditioner                       .... Diag
   Full preconditioner red. dimension   ....   250
 SOSCF                  CNVSOSCF        .... on
   Start iteration      SOSCFMaxIt      ....   150
   Startup grad/error   SOSCFStart      ....  0.003300
   Hessian update       SOSCFHessUp     .... L-BFGS
 Level Shifting         CNVShift        .... on
   Level shift para.    LevelShift      ....    0.2500
   Turn off err/grad.   ShiftErr        ....    0.0010
 Zerner damping         CNVZerner       .... off
 Static damping         CNVDamp         .... on
   Fraction old density DampFac         ....    0.7000
   Max. Damping (<1)    DampMax         ....    0.9800
   Min. Damping (>=0)   DampMin         ....    0.0000
   Turn off err/grad.   DampErr         ....    0.1000

SCF Procedure:
 Maximum # iterations   MaxIter         ....   125
 SCF integral mode      SCFMode         .... Direct
   Integral package                     .... SHARK and LIBINT hybrid scheme
 Reset frequency        DirectResetFreq ....    20
 Integral Threshold     Thresh          ....  1.000e-09 Eh
 Primitive CutOff       TCut            ....  1.000e-10 Eh

Convergence Tolerance:
 Convergence Check Mode ConvCheckMode   .... Total+1el-Energy
 Convergence forced     ConvForced      .... 0
 Energy Change          TolE            ....  1.000e-05 Eh
 1-El. energy change                    ....  1.000e-02 Eh
 Orbital Gradient       TolG            ....  1.000e-04
 Orbital Rotation angle TolX            ....  1.000e-04
 DIIS Error             TolErr          ....  5.000e-04

------------------------------
INITIAL GUESS: MODEL POTENTIAL
------------------------------
Loading Hartree-Fock densities                     ... done
Calculating cut-offs                               ... done
Initializing the effective Hamiltonian             ... done
Setting up the integral package (SHARK)            ... done
Starting the Coulomb interaction                   ... done (   0.1 sec)
Making the grid                                    ... done (   0.1 sec)
Mapping shells                                     ... done
Starting the XC term evaluation                    ... done (   0.1 sec)
  promolecular density results
     # of electrons  =     37.996593434
     EX              =    -27.885180980
     EC              =     -1.209535968
     EX+EC           =    -29.094716949
Transforming the Hamiltonian                       ... done (   0.0 sec)
Diagonalizing the Hamiltonian                      ... done (   0.0 sec)
Back transforming the eigenvectors                 ... done (   0.0 sec)
Now organizing SCF variables                       ... done
                      ------------------
                      INITIAL GUESS DONE (   0.3 sec)
                      ------------------
             **** ENERGY FILE WAS UPDATED (sp.en.tmp) ****
Finished Guess after   0.4 sec
Maximum memory used throughout the entire GUESS-calculation: 10.3 MB

-------------------------------------------------------------------------------------------
                                      ORCA LEAN-SCF
                              memory conserving SCF solver
-------------------------------------------------------------------------------------------

----------------------------------------D-I-I-S--------------------------------------------
Iteration    Energy (Eh)           Delta-E    RMSDP     MaxDP     DIISErr   Damp  Time(sec)
-------------------------------------------------------------------------------------------
               ***  Starting incremental Fock matrix formation  ***
    1    -194.7186002143682799     0.00e+00  4.88e-03  6.83e-02  1.49e-01  0.700   0.4
    2    -194.7839290935062877    -6.53e-02  3.65e-03  4.23e-02  7.53e-02  0.700   0.4
                               ***Turning on AO-DIIS***
    3    -194.8090987922756767    -2.52e-02  1.48e-03  1.23e-02  2.52e-02  0.700   0.4
    4    -194.8232881526932374    -1.42e-02  2.28e-03  2.05e-02  1.01e-02  0.000   0.4
    5    -194.8543641692770052    -3.11e-02  5.40e-04  4.62e-03  5.58e-03  0.000   0.4
                              *** Initializing SOSCF ***
---------------------------------------S-O-S-C-F--------------------------------------
Iteration    Energy (Eh)           Delta-E    RMSDP     MaxDP     MaxGrad    Time(sec)
--------------------------------------------------------------------------------------
    6    -194.8545927494206467    -2.29e-04  1.97e-04  1.71e-03  1.18e-03     0.4
               *** Restarting incremental Fock matrix formation ***
    7    -194.8546067345233155    -1.40e-05  1.36e-04  1.42e-03  3.71e-04     0.4
    8    -194.8546018142978369     4.92e-06  6.39e-05  1.05e-03  8.83e-04     0.4
                 **** Energy Check signals convergence ****

               *****************************************************
               *                     SUCCESS                       *
               *           SCF CONVERGED AFTER   8 CYCLES          *
               *****************************************************

             **** ENERGY FILE WAS UPDATED (sp.en.tmp) ****

----------------
TOTAL SCF ENERGY
----------------

Total Energy       :       -194.85460181429784 Eh           -5302.26328 eV

Components:
Nuclear Repulsion  :        156.62868277511069 Eh            4262.08314 eV
Electronic Energy  :       -351.48328458940853 Eh           -9564.34642 eV
One Electron Energy:       -570.73275156893203 Eh          -15530.42772 eV
Two Electron Energy:        219.24946697952350 Eh            5966.08131 eV

Virial components:
Potential Energy   :       -387.98033240794297 Eh          -10557.48158 eV
Kinetic Energy     :        193.12573059364513 Eh            5255.21830 eV
Virial Ratio       :          2.00895205012475

DFT components:
N(Alpha)           :       18.999999116728 electrons
N(Beta)            :       18.999999116728 electrons
N(Total)           :       37.999998233456 electrons
E(X)               :      -28.553048958118 Eh       
E(C)               :       -1.226081571583 Eh       
E(XC)              :      -29.779130529701 Eh       

---------------
SCF CONVERGENCE
---------------

  Last Energy change         ...   -4.9202e-06  Tolerance :   1.0000e-05
  Last MAX-Density change    ...    1.0453e-03  Tolerance :   1.0000e-03
  Last RMS-Density change    ...    6.3929e-05  Tolerance :   1.0000e-04
  Last DIIS Error            ...    1.1755e-03  Tolerance :   5.0000e-04
  Last Orbital Gradient      ...    8.8329e-04  Tolerance :   1.0000e-04
  Last Orbital Rotation      ...    1.1537e-03  Tolerance :   1.0000e-04


----------------
ORBITAL ENERGIES
----------------

  NO   OCC          E(Eh)            E(eV) 
   0   2.0000      -9.895797      -269.2783 
   1   2.0000      -9.895784      -269.2780 
   2   2.0000      -9.895401      -269.2676 
   3   2.0000      -9.878216      -268.7999 
   4   2.0000      -9.878196      -268.7994 
   5   2.0000      -0.734395       -19.9839 
   6   2.0000      -0.679118       -18.4797 
   7   2.0000      -0.607969       -16.5437 
   8   2.0000      -0.508270       -13.8307 
   9   2.0000      -0.490658       -13.3515 
  10   2.0000      -0.437599       -11.9077 
  11   2.0000      -0.391072       -10.6416 
  12   2.0000      -0.386160       -10.5079 
  13   2.0000      -0.385746       -10.4967 
  14   2.0000      -0.319695        -8.6993 
  15   2.0000      -0.313057        -8.5187 
  16   2.0000      -0.305143        -8.3034 
  17   2.0000      -0.238449        -6.4885 
  18   2.0000      -0.226216        -6.1556 
  19   0.0000      -0.033052        -0.8994 
  20   0.0000       0.003875         0.1055 
  21   0.0000       0.057990         1.5780 
  22   0.0000       0.067761         1.8439 
  23   0.0000       0.079521         2.1639 
  24   0.0000       0.083566         2.2739 
  25   0.0000       0.107968         2.9379 
  26   0.0000       0.131006         3.5649 
  27   0.0000       0.139253         3.7893 
  28   0.0000       0.139585         3.7983 
  29   0.0000       0.208176         5.6648 
*Only the first 10 virtual orbitals were printed.

                    ********************************
                    * MULLIKEN POPULATION ANALYSIS *
                    ********************************

-----------------------
MULLIKEN ATOMIC CHARGES
-----------------------
   0 C :   -0.200725
   1 C :   -0.125687
   2 C :   -0.075568
   3 C :   -0.125321
   4 C :   -0.200799
   5 H :    0.099787
   6 H :    0.093092
   7 H :    0.077893
   8 H :    0.093216
   9 H :    0.093433
  10 H :    0.077793
  11 H :    0.099793
  12 H :    0.093092
Sum of atomic charges:   -0.0000000

--------------------------------
MULLIKEN REDUCED ORBITAL CHARGES
--------------------------------
  0 C s       :     3.162852  s :     3.162852
      pz      :     0.962666  p :     3.010727
      px      :     1.017260
      py      :     1.030801
      dz2     :     0.006903  d :     0.027145
      dxz     :     0.009366
      dyz     :     0.002220
      dx2y2   :     0.004821
      dxy     :     0.003835

  1 C s       :     3.158631  s :     3.158631
      pz      :     0.959662  p :     2.931090
      px      :     0.988906
      py      :     0.982523
      dz2     :     0.010689  d :     0.035966
      dxz     :     0.009185
      dyz     :     0.002928
      dx2y2   :     0.006511
      dxy     :     0.006653

  2 C s       :     2.996172  s :     2.996172
      pz      :     1.023755  p :     3.042700
      px      :     0.996095
      py      :     1.022850
      dz2     :     0.009863  d :     0.036696
      dxz     :     0.007531
      dyz     :     0.002914
      dx2y2   :     0.009067
      dxy     :     0.007320

  3 C s       :     3.158666  s :     3.158666
      pz      :     0.981644  p :     2.930689
      px      :     0.988706
      py      :     0.960339
      dz2     :     0.004644  d :     0.035966
      dxz     :     0.006779
      dyz     :     0.002147
      dx2y2   :     0.013295
      dxy     :     0.009101

  4 C s       :     3.162851  s :     3.162851
      pz      :     1.031236  p :     3.010800
      px      :     1.017375
      py      :     0.962189
      dz2     :     0.003632  d :     0.027147
      dxz     :     0.004109
      dyz     :     0.001671
      dx2y2   :     0.008601
      dxy     :     0.009135

  5 H s       :     0.900213  s :     0.900213

  6 H s       :     0.906908  s :     0.906908

  7 H s       :     0.922107  s :     0.922107

  8 H s       :     0.906784  s :     0.906784

  9 H s       :     0.906567  s :     0.906567

 10 H s       :     0.922207  s :     0.922207

 11 H s       :     0.900207  s :     0.900207

 12 H s       :     0.906908  s :     0.906908


------------------------
MULLIKEN OVERLAP CHARGES
------------------------
B(  0-C ,  1-C ) :   1.4480 B(  0-C ,  2-C ) :  -0.0688 B(  0-C ,  5-H ) :   0.7166 
B(  0-C ,  6-H ) :   0.7132 B(  0-C ,  7-H ) :  -0.0924 B(  1-C ,  2-C ) :   0.7889 
B(  1-C ,  3-C ) :  -0.1138 B(  1-C ,  7-H ) :   0.7630 B(  2-C ,  3-C ) :   0.7891 
B(  2-C ,  4-C ) :  -0.0686 B(  2-C ,  6-H ) :  -0.0530 B(  2-C ,  7-H ) :  -0.1483 
B(  2-C ,  8-H ) :   0.6535 B(  2-C ,  9-H ) :   0.6537 B(  2-C , 10-H ) :  -0.1485 
B(  2-C , 12-H ) :  -0.0531 B(  3-C ,  4-C ) :   1.4475 B(  3-C , 10-H ) :   0.7630 
B(  4-C , 10-H ) :  -0.0924 B(  4-C , 11-H ) :   0.7165 B(  4-C , 12-H ) :   0.7132 
B(  5-H ,  6-H ) :  -0.1091 B(  8-H ,  9-H ) :  -0.0597 B( 11-H , 12-H ) :  -0.1091 



                     *******************************
                     * LOEWDIN POPULATION ANALYSIS *
                     *******************************

----------------------
LOEWDIN ATOMIC CHARGES
----------------------
   0 C :   -0.256023
   1 C :   -0.128808
   2 C :   -0.214955
   3 C :   -0.128734
   4 C :   -0.256072
   5 H :    0.122139
   6 H :    0.118801
   7 H :    0.122324
   8 H :    0.129020
   9 H :    0.129061
  10 H :    0.122301
  11 H :    0.122148
  12 H :    0.118798

-------------------------------
LOEWDIN REDUCED ORBITAL CHARGES
-------------------------------
  0 C s       :     2.956042  s :     2.956042
      pz      :     1.086750  p :     3.229794
      px      :     1.100128
      py      :     1.042916
      dz2     :     0.017839  d :     0.070187
      dxz     :     0.025248
      dyz     :     0.005672
      dx2y2   :     0.011846
      dxy     :     0.009582

  1 C s       :     2.912761  s :     2.912761
      pz      :     1.068768  p :     3.124757
      px      :     1.071206
      py      :     0.984782
      dz2     :     0.025376  d :     0.091291
      dxz     :     0.026888
      dyz     :     0.007083
      dx2y2   :     0.016579
      dxy     :     0.015364

  2 C s       :     2.899228  s :     2.899228
      pz      :     1.086382  p :     3.225338
      px      :     1.050348
      py      :     1.088609
      dz2     :     0.023990  d :     0.090389
      dxz     :     0.020319
      dyz     :     0.005984
      dx2y2   :     0.020966
      dxy     :     0.019129

  3 C s       :     2.912781  s :     2.912781
      pz      :     0.979678  p :     3.124661
      px      :     1.071483
      py      :     1.073500
      dz2     :     0.009650  d :     0.091293
      dxz     :     0.015440
      dyz     :     0.005468
      dx2y2   :     0.033838
      dxy     :     0.026897

  4 C s       :     2.956035  s :     2.956035
      pz      :     1.040137  p :     3.229851
      px      :     1.100300
      py      :     1.089414
      dz2     :     0.006995  d :     0.070186
      dxz     :     0.009803
      dyz     :     0.004349
      dx2y2   :     0.023929
      dxy     :     0.025111

  5 H s       :     0.877861  s :     0.877861

  6 H s       :     0.881199  s :     0.881199

  7 H s       :     0.877676  s :     0.877676

  8 H s       :     0.870980  s :     0.870980

  9 H s       :     0.870939  s :     0.870939

 10 H s       :     0.877699  s :     0.877699

 11 H s       :     0.877852  s :     0.877852

 12 H s       :     0.881202  s :     0.881202


---------------------------------
LOEWDIN BOND ORDERS (THRESH 0.050000)
---------------------------------
B(  0-C ,  1-C ) :   2.0796 B(  0-C ,  2-C ) :   0.0899 B(  0-C ,  5-H ) :   0.9218 
B(  0-C ,  6-H ) :   0.9204 B(  1-C ,  2-C ) :   1.0890 B(  1-C ,  3-C ) :   0.0727 
B(  1-C ,  7-H ) :   0.8892 B(  2-C ,  3-C ) :   1.0889 B(  2-C ,  4-C ) :   0.0899 
B(  2-C ,  8-H ) :   0.8873 B(  2-C ,  9-H ) :   0.8872 B(  3-C ,  4-C ) :   2.0796 
B(  3-C , 10-H ) :   0.8892 B(  4-C , 11-H ) :   0.9218 B(  4-C , 12-H ) :   0.9204 


------------------------------------------
LOEWDIN REDUCED ORBITAL POPULATIONS PER MO
-------------------------------------------
THRESHOLD FOR PRINTING IS 0.1%%
                      0         1         2         3         4         5   
                  -9.89580  -9.89578  -9.89540  -9.87822  -9.87820  -0.73440
                   2.00000   2.00000   2.00000   2.00000   2.00000   2.00000
                  --------  --------  --------  --------  --------  --------
 0 C  s               0.0       0.0       0.0      97.9       1.7       6.7
 0 C  px              0.1       0.0       0.0       0.0       0.0       2.1
 0 C  py              0.0       0.0       0.0       0.0       0.0       0.3
 1 C  s              69.5      30.0       0.1       0.1       0.0      16.8
 1 C  pz              0.0       0.0       0.0       0.0       0.0       1.4
 1 C  px              0.0       0.0       0.1       0.1       0.0       0.6
 1 C  dx2y2           0.0       0.0       0.0       0.0       0.0       0.1
 2 C  s               0.1       0.0      99.5       0.0       0.0      23.0
 2 C  pz              0.0       0.0       0.0       0.0       0.0       1.0
 2 C  px              0.0       0.1       0.0       0.0       0.0       0.0
 2 C  py              0.0       0.0       0.0       0.0       0.0       0.8
 3 C  s              29.9      69.5       0.1       0.0       0.1      16.8
 3 C  px              0.0       0.0       0.1       0.0       0.1       0.6
 3 C  py              0.0       0.0       0.0       0.0       0.0       1.4
 3 C  dz2             0.0       0.0       0.0       0.0       0.0       0.1
 4 C  s               0.0       0.0       0.0       1.7      97.9       6.7
 4 C  pz              0.0       0.0       0.0       0.0       0.0       0.3
 4 C  px              0.0       0.1       0.0       0.0       0.0       2.1
 4 C  py              0.0       0.0       0.0       0.0       0.0       0.1
 5 H  s               0.0       0.0       0.0       0.1       0.0       0.9
 6 H  s               0.0       0.0       0.0       0.1       0.0       1.2
 7 H  s               0.0       0.0       0.0       0.0       0.0       2.8
 8 H  s               0.0       0.0       0.1       0.0       0.0       4.2
 9 H  s               0.0       0.0       0.1       0.0       0.0       4.2
10 H  s               0.0       0.0       0.0       0.0       0.0       2.8
11 H  s               0.0       0.0       0.0       0.0       0.1       0.9
12 H  s               0.0       0.0       0.0       0.0       0.1       1.2

                      6         7         8         9        10        11   
                  -0.67912  -0.60797  -0.50827  -0.49066  -0.43760  -0.39107
                   2.00000   2.00000   2.00000   2.00000   2.00000   2.00000
                  --------  --------  --------  --------  --------  --------
 0 C  s              16.6      14.1       6.2       2.6       0.7       0.1
 0 C  pz              0.2       0.2       1.5       3.7       5.5       8.9
 0 C  px              1.7       0.2       4.7       3.1       7.6      11.7
 0 C  py              0.3       0.0       1.4       0.6       0.3       0.3
 0 C  dxz             0.0       0.0       0.1       0.1       0.0       0.1
 0 C  dx2y2           0.1       0.0       0.0       0.0       0.0       0.0
 1 C  s              14.5       0.4       7.4       5.2       0.2       0.4
 1 C  pz              0.2       0.6       2.4       8.0      11.6       6.7
 1 C  px              3.3      12.6       2.5       0.5       0.1       0.3
 1 C  py              0.3       1.5       2.2       0.0       0.5       1.5
 1 C  dxz             0.0       0.3       0.0       0.0       0.0       0.1
 1 C  dxy             0.1       0.0       0.0       0.0       0.0       0.0
 2 C  s               0.0      16.0       0.0       3.9       0.0       1.0
 2 C  pz              0.1       0.2       2.8       6.7       3.3       2.9
 2 C  px              7.0       0.0       4.6       0.0      12.5       0.0
 2 C  py              0.2       0.2       3.7       5.1       4.3       2.4
 2 C  dxz             0.1       0.0       0.2       0.1       0.0       0.0
 2 C  dx2y2           0.0       0.0       0.0       0.0       0.0       0.3
 2 C  dxy             0.1       0.0       0.1       0.1       0.0       0.0
 3 C  s              14.5       0.4       7.4       5.2       0.2       0.4
 3 C  pz              0.3       1.7       1.6       0.2       0.1       0.7
 3 C  px              3.4      12.6       2.5       0.5       0.1       0.3
 3 C  py              0.2       0.4       3.0       7.8      12.0       7.6
 3 C  dxy             0.1       0.3       0.0       0.0       0.0       0.1
 4 C  s              16.6      14.1       6.2       2.6       0.7       0.1
 4 C  pz              0.3       0.0       1.0       0.2       0.7       0.9
 4 C  px              1.8       0.2       4.8       3.1       7.5      11.4
 4 C  py              0.3       0.2       1.8       4.1       5.1       8.7
 4 C  dxy             0.0       0.0       0.1       0.1       0.0       0.1
 5 H  s               3.0       4.2       3.8       1.3       6.8      10.2
 6 H  s               3.0       3.1       5.2       4.7       0.2       1.3
 7 H  s               2.5       0.1       6.3       7.2       3.0       2.5
 8 H  s               0.0       4.3       0.5       4.9       3.3       2.3
 9 H  s               0.0       4.3       0.5       4.9       3.3       2.2
10 H  s               2.5       0.1       6.3       7.2       3.0       2.5
11 H  s               3.0       4.2       3.8       1.3       6.8      10.3
12 H  s               3.0       3.1       5.2       4.7       0.2       1.4

                     12        13        14        15        16        17   
                  -0.38616  -0.38575  -0.31970  -0.31306  -0.30514  -0.23845
                   2.00000   2.00000   2.00000   2.00000   2.00000   2.00000
                  --------  --------  --------  --------  --------  --------
 0 C  s               0.2       0.2       0.5       0.1       0.1       0.0
 0 C  pz             12.3       3.7       0.5       9.4       7.1       0.3
 0 C  px              3.3       6.4       4.1       0.0       3.9       3.7
 0 C  py              0.6       3.8       1.6       0.2       0.2      18.2
 0 C  dz2             0.1       0.1       0.1       0.2       0.2       0.0
 0 C  dxz             0.0       0.0       0.0       0.3       0.6       0.1
 0 C  dyz             0.0       0.0       0.0       0.1       0.1       0.0
 0 C  dx2y2           0.0       0.0       0.0       0.1       0.0       0.0
 0 C  dxy             0.0       0.1       0.0       0.0       0.0       0.1
 1 C  s               0.0       0.1       0.1       0.1       0.0       0.4
 1 C  pz              0.9       0.2       4.1       7.7       7.2       2.3
 1 C  px              7.3      12.6       5.4       0.4       1.9       0.7
 1 C  py              4.5       0.5       0.3       3.6       1.4      19.1
 1 C  dz2             0.0       0.0       0.6       0.4       0.0       0.0
 1 C  dxz             0.0       0.0       0.0       0.3       0.5       0.0
 1 C  dyz             0.0       0.0       0.0       0.0       0.2       0.0
 1 C  dx2y2           0.0       0.0       0.1       0.2       0.0       0.2
 1 C  dxy             0.0       0.1       0.1       0.0       0.0       0.1
 2 C  s               0.0       0.1       0.0       1.2       0.0       0.0
 2 C  pz              9.7      11.0       8.1       5.5       0.1       2.1
 2 C  px              3.4       0.0       4.8       0.0      19.5       0.0
 2 C  py             10.2      10.1      10.5       4.3       0.2       1.6
 2 C  dz2             0.0       0.0       0.8       0.0       0.0       0.1
 2 C  dxz             0.1       0.0       0.0       0.0       0.0       0.2
 2 C  dx2y2           0.0       0.0       0.3       0.1       0.0       0.3
 2 C  dxy             0.1       0.1       0.0       0.0       0.0       0.3
 3 C  s               0.0       0.1       0.1       0.1       0.0       0.4
 3 C  pz              5.2       0.4       0.1       2.3       2.4      20.5
 3 C  px              5.6      14.4       5.5       0.4       1.9       0.7
 3 C  py              0.4       0.1       4.1       9.3       6.2       0.8
 3 C  dxz             0.0       0.0       0.1       0.0       0.0       0.1
 3 C  dyz             0.0       0.0       0.0       0.0       0.1       0.0
 3 C  dx2y2           0.0       0.0       0.6       0.7       0.1       0.1
 3 C  dxy             0.0       0.0       0.1       0.3       0.5       0.0
 4 C  s               0.2       0.2       0.5       0.1       0.1       0.0
 4 C  pz              0.1       2.9       1.4       0.7       0.0      18.5
 4 C  px              2.7       7.3       4.1       0.0       3.9       3.7
 4 C  py             10.9       6.2       0.7       9.0       7.2       0.0
 4 C  dxz             0.0       0.0       0.0       0.0       0.1       0.1
 4 C  dx2y2           0.1       0.1       0.1       0.4       0.2       0.0
 4 C  dxy             0.0       0.0       0.0       0.3       0.5       0.0
 5 H  s               0.1       0.9       0.6       4.0       7.8       0.2
 6 H  s               7.9       4.4       1.1       6.5       5.2       0.1
 7 H  s               0.0       0.3       6.5       8.7       3.5       0.3
 8 H  s               3.2       3.6      12.1       1.6       0.2       2.0
 9 H  s               3.9       3.0      12.2       1.5       0.2       2.0
10 H  s               0.0       0.3       6.3       8.9       3.5       0.3
11 H  s               0.1       0.9       0.6       3.9       7.8       0.2
12 H  s               6.6       5.5       1.1       6.6       5.2       0.1

                     18        19        20        21        22        23   
                  -0.22622  -0.03305   0.00388   0.05799   0.06776   0.07952
                   2.00000   0.00000   0.00000   0.00000   0.00000   0.00000
                  --------  --------  --------  --------  --------  --------
 0 C  s               0.0       0.0       0.0       4.0       0.3       0.0
 0 C  pz              0.8       0.4       1.0       0.1       3.2       4.6
 0 C  px              2.3       2.6       2.9       1.9       0.2       0.3
 0 C  py             24.2      22.4      16.4       0.2       0.5       0.1
 0 C  dxz             0.0       0.1       0.0       0.5       0.2       0.3
 0 C  dx2y2           0.1       0.2       0.6       0.0       0.0       0.0
 0 C  dxy             0.1       0.4       0.4       0.0       0.0       0.0
 1 C  s               0.3       0.3       0.6       1.9       2.0       1.4
 1 C  pz              0.0       1.1       0.1       2.1       3.4       3.7
 1 C  px              5.0       1.3       5.5       0.0       0.3       0.0
 1 C  py             13.6      18.4      19.2       0.3       0.2       0.5
 1 C  dz2             0.0       0.0       0.0       0.0       0.5       0.7
 1 C  dxz             0.0       0.1       0.1       0.0       0.0       0.1
 1 C  dyz             0.0       0.1       0.0       0.1       0.2       0.0
 1 C  dx2y2           0.2       0.4       0.1       0.0       0.0       0.0
 1 C  dxy             0.2       0.4       0.2       0.0       0.0       0.0
 2 C  s               0.0       0.1       0.0       8.1       0.0       2.4
 2 C  pz              0.7       0.0       0.1       2.8       3.3       2.9
 2 C  px              0.6       0.0       0.6       0.0       0.4       0.0
 2 C  py              0.9       0.0       0.1       2.2       4.3       2.2
 2 C  dz2             0.1       0.2       0.1       0.0       0.4       0.1
 2 C  dxz             0.3       0.3       0.7       0.1       0.0       0.0
 2 C  dyz             0.0       0.4       0.0       0.1       0.0       0.0
 2 C  dx2y2           0.0       0.3       0.0       0.0       0.1       0.4
 2 C  dxy             0.2       0.4       0.5       0.1       0.0       0.0
 3 C  s               0.3       0.3       0.7       1.8       2.0       1.4
 3 C  pz             13.4      19.3      19.2       0.3       0.3       0.3
 3 C  px              5.0       1.2       5.4       0.0       0.3       0.0
 3 C  py              0.3       0.2       0.2       2.0       3.5       3.9
 3 C  dz2             0.2       0.2       0.1       0.0       0.1       0.1
 3 C  dxz             0.3       0.4       0.3       0.0       0.1       0.0
 3 C  dyz             0.0       0.1       0.1       0.1       0.1       0.0
 3 C  dx2y2           0.0       0.1       0.0       0.0       0.6       0.6
 3 C  dxy             0.0       0.0       0.0       0.0       0.0       0.1
 4 C  s               0.0       0.0       0.0       4.0       0.3       0.0
 4 C  pz             25.1      22.8      17.2       0.2       0.2       0.3
 4 C  px              2.3       2.5       2.9       1.9       0.2       0.3
 4 C  py              0.1       0.0       0.2       0.2       3.5       4.3
 4 C  dz2             0.0       0.2       0.3       0.0       0.0       0.0
 4 C  dxz             0.1       0.4       0.4       0.0       0.0       0.0
 4 C  dyz             0.0       0.1       0.1       0.0       0.0       0.1
 4 C  dx2y2           0.1       0.0       0.3       0.0       0.1       0.1
 4 C  dxy             0.0       0.0       0.0       0.5       0.2       0.3
 5 H  s               0.1       0.0       0.1       7.6       1.6       6.3
 6 H  s               0.1       0.1       0.3       5.4       8.3       6.1
 7 H  s               0.2       0.0       0.1       6.3      14.5      13.7
 8 H  s               1.2       0.9       1.3      13.1       9.8       8.0
 9 H  s               1.2       1.0       1.2      12.9       9.9       8.1
10 H  s               0.2       0.0       0.1       6.1      14.7      13.7
11 H  s               0.1       0.0       0.1       7.5       1.7       6.3
12 H  s               0.1       0.1       0.3       5.4       8.2       6.1

                     24        25        26        27        28        29   
                   0.08357   0.10797   0.13101   0.13925   0.13958   0.20818
                   0.00000   0.00000   0.00000   0.00000   0.00000   0.00000
                  --------  --------  --------  --------  --------  --------
 0 C  s               9.4       7.7       2.9       0.2       0.2       0.9
 0 C  pz              0.1       0.6       0.5       5.0       5.8       1.3
 0 C  px              3.6       2.0       0.3       0.7       1.2       1.0
 0 C  py              0.8       0.3       0.3       0.2       0.2       0.1
 0 C  dz2             0.2       0.3       0.0       0.2       0.1       0.6
 0 C  dxz             0.1       0.1       0.3       0.0       0.0       0.0
 0 C  dyz             0.0       0.1       0.2       0.0       0.0       0.2
 0 C  dx2y2           0.1       0.1       0.0       0.1       0.0       0.1
 0 C  dxy             0.0       0.1       0.1       0.0       0.1       0.1
 1 C  s               1.3       1.2       1.7       5.2       3.9       7.5
 1 C  pz              0.6       0.8       1.6       0.8       0.6       3.1
 1 C  px              0.3       0.1       1.1       1.4       0.7       2.8
 1 C  py              0.5       0.0       0.2       0.0       1.6       0.8
 1 C  dxz             0.0       0.4       0.7       1.0       0.8       0.6
 1 C  dyz             0.0       0.1       0.0       0.0       0.2       0.8
 1 C  dx2y2           0.0       0.0       0.3       0.7       0.2       1.4
 1 C  dxy             0.0       0.0       0.8       0.2       0.1       0.5
 2 C  s               0.0       6.9       0.0       8.2       0.0       4.6
 2 C  pz              0.6       0.9       6.1       1.4       0.1      11.7
 2 C  px              0.6       0.0       2.2       0.0       7.5       0.0
 2 C  py              0.7       0.7       8.0       1.0       0.2       9.0
 2 C  dz2             0.2       0.0       0.8       0.0       0.5       0.4
 2 C  dxz             0.1       0.0       0.0       0.2       0.6       0.8
 2 C  dyz             0.0       0.0       0.0       0.4       0.0       2.1
 2 C  dx2y2           0.1       0.0       0.3       0.0       0.2       2.0
 2 C  dxy             0.0       0.0       0.0       0.3       0.4       1.1
 3 C  s               1.3       1.2       1.8       5.1       4.0       7.6
 3 C  pz              0.4       0.1       0.1       0.0       1.5       0.9
 3 C  px              0.3       0.1       1.1       1.4       0.7       2.8
 3 C  py              0.8       0.7       1.7       0.8       0.7       2.9
 3 C  dz2             0.0       0.0       0.1       0.5       0.1       1.6
 3 C  dxz             0.0       0.0       0.6       0.3       0.2       0.6
 3 C  dyz             0.0       0.1       0.0       0.0       0.3       0.5
 3 C  dx2y2           0.0       0.0       0.3       0.2       0.0       0.1
 3 C  dxy             0.0       0.4       0.8       0.9       0.7       0.5
 4 C  s               9.4       7.6       2.9       0.2       0.2       0.9
 4 C  pz              0.7       0.2       0.2       0.1       0.3       0.2
 4 C  px              3.6       2.0       0.3       0.6       1.3       1.0
 4 C  py              0.2       0.7       0.5       5.1       5.8       1.2
 4 C  dz2             0.2       0.3       0.1       0.0       0.0       0.1
 4 C  dyz             0.0       0.0       0.1       0.0       0.0       0.1
 4 C  dx2y2           0.1       0.1       0.0       0.3       0.1       0.8
 4 C  dxy             0.1       0.2       0.4       0.0       0.0       0.0
 5 H  s              16.9       8.5       0.2      10.2      14.0       2.4
 6 H  s              10.2      12.3       4.3       6.4       6.2       5.3
 7 H  s               3.1       3.4       5.8       9.9       8.4       1.7
 8 H  s               1.4       7.6      20.0       2.4       0.4       3.1
 9 H  s               1.4       7.6      20.1       2.3       0.4       3.1
10 H  s               3.0       3.4       5.9       9.6       8.6       1.6
11 H  s              16.9       8.4       0.3       9.9      14.3       2.5
12 H  s              10.3      12.3       4.2       6.4       6.3       5.3

                     30        31        32        33        34        35   
                   0.23763   0.32072   0.32175   0.37045   0.37917   0.40970
                   0.00000   0.00000   0.00000   0.00000   0.00000   0.00000
                  --------  --------  --------  --------  --------  --------
 0 C  s               0.3       7.3       4.1       4.7       2.6       2.1
 0 C  pz              1.2       1.7       1.3       1.1       2.9       1.0
 0 C  px              1.2      13.6      12.3       9.6       0.7       1.7
 0 C  py              0.7       2.0       2.8       0.0       0.5      12.4
 0 C  dz2             0.8       1.2       1.5       0.0       0.1       1.4
 0 C  dxz             0.1       1.3       2.1       1.0       2.0       0.2
 0 C  dyz             0.0       0.3       0.2       0.1       0.1       0.0
 0 C  dx2y2           0.2       2.4       1.0       0.6       0.8       0.2
 0 C  dxy             0.3       2.1       1.7       0.4       0.1       0.0
 1 C  s               5.4       3.7       4.9       4.6       8.3       1.9
 1 C  pz              6.3       1.4       0.1       1.1       2.7       0.5
 1 C  px              2.8       3.2       6.6       8.4       2.3       8.1
 1 C  py              1.6       2.0       1.3       1.9       0.3       0.8
 1 C  dz2             0.5       0.5       0.1       0.1       0.9       1.2
 1 C  dxz             0.6       0.7       1.3       0.1       1.9       0.9
 1 C  dyz             0.5       0.0       0.3       0.0       1.0       0.1
 1 C  dx2y2           0.1       0.0       0.9       0.9       0.0       0.0
 1 C  dxy             0.2       0.2       1.0       1.6       0.5       0.1
 2 C  s               0.0       0.3       0.0       0.0       2.4       1.5
 2 C  pz              1.5       1.2       1.1       2.1       3.7       8.0
 2 C  px             25.6       0.0       0.8       5.5       0.0       0.0
 2 C  py              2.0       1.1       1.3       2.8       2.8       6.0
 2 C  dz2             0.4       0.1       1.1       1.4       0.0       0.4
 2 C  dxz             4.0       0.2       0.0       0.9       0.1       0.1
 2 C  dyz             0.0       0.0       0.0       0.0       0.1       1.4
 2 C  dx2y2           0.2       0.3       0.3       0.4       0.1       2.0
 2 C  dxy             3.1       0.2       0.0       0.7       0.1       0.1
 3 C  s               5.3       4.1       4.6       4.7       8.2       1.8
 3 C  pz              2.2       1.5       1.2       1.9       0.5       0.6
 3 C  px              2.8       3.9       5.9       8.5       2.2       7.7
 3 C  py              5.7       2.0       0.1       1.1       2.5       0.7
 3 C  dz2             0.2       0.0       0.6       0.4       0.7       0.1
 3 C  dxz             0.2       0.1       0.6       1.5       0.2       0.1
 3 C  dyz             0.8       0.0       0.3       0.1       0.5       0.3
 3 C  dx2y2           0.1       0.6       0.4       0.6       0.7       1.0
 3 C  dxy             0.5       0.9       1.4       0.2       2.2       0.7
 4 C  s               0.3       8.0       3.5       4.8       2.6       2.1
 4 C  pz              0.6       1.7       2.2       0.1       0.3      11.6
 4 C  px              1.2      15.2      10.8       9.7       0.8       1.7
 4 C  py              1.4       2.4       1.5       1.1       3.0       1.7
 4 C  dz2             0.0       0.9       0.1       0.6       0.3       0.9
 4 C  dxz             0.3       1.8       1.0       0.2       0.2       0.0
 4 C  dyz             0.0       0.3       0.3       0.0       0.2       0.1
 4 C  dx2y2           1.0       3.0       2.0       0.1       0.5       0.5
 4 C  dxy             0.0       2.0       2.4       1.1       1.8       0.2
 5 H  s               1.7       0.3       1.2       0.3       8.5       1.2
 6 H  s               4.9       0.3       1.3       0.9       1.3       2.9
 7 H  s               2.2       0.8       0.4       0.4       7.5       1.1
 8 H  s               0.1       1.0       3.8       5.2       0.6       2.7
 9 H  s               0.1       0.8       3.9       5.1       0.6       2.5
10 H  s               2.2       0.8       0.4       0.4       7.5       1.3
11 H  s               1.7       0.3       1.1       0.3       8.5       1.4
12 H  s               4.9       0.4       1.2       0.9       1.3       2.6

                     36        37        38        39        40        41   
                   0.41337   0.42376   0.46193   0.48113   0.49834   0.51569
                   0.00000   0.00000   0.00000   0.00000   0.00000   0.00000
                  --------  --------  --------  --------  --------  --------
 0 C  s               0.0       6.5       6.2       6.7       4.7       4.3
 0 C  pz              6.2       0.1       1.9       0.2       0.6       0.7
 0 C  px              0.4       3.6       1.7       0.3      13.8       0.3
 0 C  py              0.5       4.1      10.4      21.1       1.7       1.4
 0 C  dz2             1.1       0.7       1.0       1.1       0.0       1.0
 0 C  dxz             1.0       0.6       0.0       0.0       0.2       0.0
 0 C  dyz             0.5       0.1       0.2       0.1       0.0       0.3
 0 C  dx2y2           0.8       0.3       0.0       1.0       0.2       0.6
 0 C  dxy             0.1       0.7       0.6       0.3       0.2       0.2
 1 C  s               0.4       5.3       1.5       1.3       1.7       1.3
 1 C  pz              3.1       0.3       2.1       0.1       0.5       0.6
 1 C  px              2.7       1.7       3.7       0.8       6.5       0.9
 1 C  py              1.4       5.4      10.4       1.8       1.9      13.1
 1 C  dz2             1.0       1.1       0.2       0.1       1.5       2.1
 1 C  dxz             1.5       0.0       0.0       0.2       0.9       0.1
 1 C  dyz             0.3       0.1       0.3       0.0       0.0       0.0
 1 C  dx2y2           0.3       0.5       0.5       0.7       1.8       0.5
 1 C  dxy             0.0       0.0       0.0       0.3       2.6       0.1
 2 C  s               0.0       0.0       1.2       0.0       5.9       1.5
 2 C  pz              0.2       1.7       2.1       0.4       4.0       7.7
 2 C  px             18.4       2.9       0.0       3.9       0.0       0.0
 2 C  py              0.3       2.2       1.6       0.5       3.1       5.8
 2 C  dz2             1.0       1.1       0.0       0.1       0.4       0.1
 2 C  dxz             0.6       0.2       0.3       0.1       1.1       0.1
 2 C  dyz             0.0       0.0       0.3       0.0       0.5       0.3
 2 C  dx2y2           0.3       0.4       0.0       0.0       0.8       0.5
 2 C  dxy             0.5       0.2       0.4       0.1       1.5       0.1
 3 C  s               0.4       5.4       1.5       1.3       1.7       1.3
 3 C  pz              1.8       5.6      11.3       2.1       1.6      12.1
 3 C  px              3.0       1.7       3.6       0.8       6.5       1.0
 3 C  py              2.7       0.1       1.1       0.0       0.7       1.4
 3 C  dz2             0.0       1.4       0.1       0.8       0.4       1.6
 3 C  dxz             0.0       0.0       0.0       0.2       2.2       0.1
 3 C  dyz             0.1       0.0       0.2       0.0       0.1       0.2
 3 C  dx2y2           1.4       0.3       0.7       0.0       2.9       0.8
 3 C  dxy             1.5       0.0       0.0       0.2       1.3       0.1
 4 C  s               0.0       6.6       6.2       6.7       4.7       4.2
 4 C  pz              0.6       4.2      11.0      20.9       1.8       1.2
 4 C  px              0.4       3.6       1.7       0.3      14.1       0.3
 4 C  py              6.1       0.0       1.0       1.0       0.4       1.0
 4 C  dz2             0.0       0.9       0.5       2.0       0.2       1.5
 4 C  dxz             0.2       0.9       0.5       0.3       0.3       0.2
 4 C  dyz             0.3       0.0       0.0       0.0       0.0       0.0
 4 C  dx2y2           2.2       0.2       0.7       0.2       0.1       0.3
 4 C  dxy             0.9       0.4       0.0       0.0       0.2       0.0
 5 H  s               4.7       4.9       0.7       3.4       0.9       1.8
 6 H  s               5.5       2.5       4.9       5.0       0.0       6.0
 7 H  s               6.7       3.6       0.7       1.9       0.2       6.8
 8 H  s               0.8       3.4       0.3       0.5       1.0       0.2
 9 H  s               0.9       3.4       0.3       0.4       1.0       0.2
10 H  s               6.6       3.6       0.7       2.0       0.2       6.7
11 H  s               4.5       4.9       0.7       3.4       1.0       1.7
12 H  s               5.8       2.5       4.9       5.1       0.0       5.9

                     42        43        44        45        46        47   
                   0.53518   0.55713   0.59937   0.61750   0.63680   0.63820
                   0.00000   0.00000   0.00000   0.00000   0.00000   0.00000
                  --------  --------  --------  --------  --------  --------
 0 C  s               2.1       0.8       0.6       0.1      12.6       6.2
 0 C  pz              0.7       2.7       0.7       0.0       1.2       5.6
 0 C  px              4.9       0.8       0.7       0.3       1.7       0.6
 0 C  py             17.0      15.4       2.4       0.2       0.0       2.0
 0 C  dz2             0.1       0.0       0.1       0.0       0.2       0.4
 0 C  dxz             0.0       0.1       0.3       0.1       0.0       0.0
 0 C  dyz             0.0       0.0       0.0       0.2       0.0       0.0
 0 C  dx2y2           0.2       0.2       0.1       0.0       0.5       0.0
 0 C  dxy             0.4       0.2       0.2       0.0       0.1       0.0
 1 C  s               1.0       2.8      11.9       2.7       0.1       0.1
 1 C  pz              0.2       0.0       1.7       0.3       2.5       0.8
 1 C  px              0.0       8.3       6.2       0.8       0.6       0.4
 1 C  py              5.1      10.9       4.5      23.7       1.1       1.2
 1 C  dz2             0.6       0.0       0.3       0.0       0.1       0.0
 1 C  dxz             0.1       0.0       0.1       0.4       0.1       0.0
 1 C  dyz             0.2       0.0       0.0       1.1       0.0       0.0
 1 C  dx2y2           0.2       0.0       0.0       0.1       0.0       0.0
 1 C  dxy             0.2       0.3       0.1       0.0       0.0       0.1
 2 C  s               0.0       2.0       5.9       0.0       0.0      21.6
 2 C  pz              1.4       1.5       2.3       5.7       7.5       9.7
 2 C  px             12.5       0.0       0.0      18.9       1.7       0.0
 2 C  py              1.8       1.2       1.7       7.5       9.9       7.3
 2 C  dz2             0.5       0.0       0.0       0.5       0.9       0.1
 2 C  dxz             0.5       0.6       0.0       0.2       0.0       0.0
 2 C  dyz             0.0       0.4       0.0       0.0       0.0       0.1
 2 C  dx2y2           0.2       0.3       0.0       0.2       0.3       0.2
 2 C  dxy             0.4       0.8       0.0       0.1       0.0       0.0
 3 C  s               1.0       2.8      11.9       2.8       0.1       0.1
 3 C  pz              5.3      10.8       5.0      23.9       1.4       1.2
 3 C  px              0.1       8.2       6.2       0.8       0.6       0.4
 3 C  py              0.0       0.2       1.0       0.1       2.2       0.9
 3 C  dz2             0.8       0.0       0.1       0.4       0.0       0.0
 3 C  dxz             0.3       0.3       0.1       0.0       0.0       0.1
 3 C  dyz             0.0       0.0       0.1       0.8       0.0       0.0
 3 C  dx2y2           0.2       0.0       0.2       0.0       0.1       0.0
 3 C  dxy             0.1       0.0       0.1       0.4       0.1       0.0
 4 C  s               2.1       0.8       0.6       0.1      12.8       6.0
 4 C  pz             17.4      17.0       2.1       0.2       0.0       1.2
 4 C  px              4.7       0.8       0.7       0.3       1.8       0.6
 4 C  py              0.1       1.3       1.0       0.0       1.2       6.3
 4 C  dz2             0.4       0.2       0.1       0.0       0.7       0.1
 4 C  dxz             0.4       0.2       0.3       0.0       0.1       0.0
 4 C  dyz             0.0       0.0       0.1       0.2       0.0       0.0
 4 C  dx2y2           0.0       0.0       0.0       0.0       0.0       0.3
 4 C  dxy             0.0       0.1       0.3       0.1       0.0       0.1
 5 H  s               1.4       1.5       4.4       0.2       4.9       0.1
 6 H  s               0.9       0.3       0.4       0.1       6.0       8.2
 7 H  s               3.1       0.0       3.3       2.9       0.8       0.4
 8 H  s               2.8       2.1       7.1       0.2       7.0       4.6
 9 H  s               2.9       2.1       7.2       0.1       6.9       4.8
10 H  s               3.2       0.0       3.3       2.9       0.8       0.4
11 H  s               1.4       1.5       4.4       0.3       4.9       0.1
12 H  s               1.0       0.3       0.4       0.1       6.2       8.0

                     48        49        50        51        52        53   
                   0.66054   0.66405   0.67024   0.67603   0.68899   0.69347
                   0.00000   0.00000   0.00000   0.00000   0.00000   0.00000
                  --------  --------  --------  --------  --------  --------
 0 C  s               1.9       0.6      10.1      10.9       0.2       3.9
 0 C  pz              7.9      19.8       8.9       1.8       3.1       4.0
 0 C  px              0.5       3.1      10.0       1.5       0.5       1.0
 0 C  py              0.1       0.1       0.1       1.6       0.1       0.0
 0 C  dz2             0.0       0.0       0.0       0.1       0.2       0.1
 0 C  dxz             0.4       0.2       0.2       0.0       0.4       0.1
 0 C  dyz             0.1       0.1       0.0       0.0       0.0       0.1
 0 C  dx2y2           0.1       0.2       0.1       0.1       0.0       0.0
 1 C  s               7.1       3.5       1.5       0.7       1.8       0.2
 1 C  pz             14.1       1.7       0.4       6.5      16.6      10.6
 1 C  px              0.8       0.7       0.4       0.6       0.1       0.0
 1 C  py              0.4       0.3       0.4       0.3       1.2       0.8
 1 C  dz2             0.0       0.0       0.0       0.1       0.1       0.1
 1 C  dxz             0.4       0.1       0.0       0.0       0.1       0.0
 1 C  dyz             0.1       0.1       0.0       0.0       0.0       0.1
 1 C  dx2y2           0.0       0.4       0.0       0.0       0.0       0.0
 2 C  s               1.6       0.0       3.1       0.0       0.0       4.1
 2 C  pz              0.9       4.3       0.2       4.6       7.4      12.9
 2 C  px              0.0       5.8       0.0       3.1       1.2       0.0
 2 C  py              0.7       5.6       0.2       5.9       9.6       9.9
 2 C  dz2             0.1       0.0       0.1       1.0       0.0       0.1
 2 C  dxz             0.0       0.2       0.0       0.0       0.1       0.0
 2 C  dx2y2           0.4       0.0       0.2       0.3       0.0       0.3
 2 C  dxy             0.0       0.2       0.0       0.0       0.1       0.1
 3 C  s               7.2       3.4       1.5       0.8       1.9       0.2
 3 C  pz              0.1       0.6       0.4       0.8       0.3       1.8
 3 C  px              0.7       0.7       0.4       0.6       0.1       0.0
 3 C  py             14.5       1.4       0.4       6.2      17.5       9.6
 3 C  dz2             0.1       0.2       0.0       0.0       0.0       0.1
 3 C  dx2y2           0.0       0.2       0.0       0.1       0.1       0.1
 3 C  dxy             0.3       0.1       0.0       0.0       0.1       0.0
 4 C  s               1.8       0.6      10.1      11.0       0.2       3.9
 4 C  pz              0.4       0.3       0.4       1.1       0.0       0.1
 4 C  px              0.6       3.0      10.0       1.6       0.5       1.0
 4 C  py              7.8      19.2       8.7       2.3       3.1       4.0
 4 C  dyz             0.0       0.2       0.0       0.0       0.0       0.1
 4 C  dx2y2           0.0       0.1       0.0       0.2       0.1       0.1
 4 C  dxy             0.4       0.2       0.2       0.0       0.5       0.1
 5 H  s               0.3       8.6      14.4       1.5       2.2       0.4
 6 H  s               2.7       1.8       0.1       4.6       4.5       6.2
 7 H  s               7.0       0.7       0.9       3.8       6.6       4.7
 8 H  s               4.2       0.3       0.4       8.0       3.0       3.9
 9 H  s               4.2       0.3       0.4       8.0       3.0       3.9
10 H  s               7.0       0.7       0.9       3.8       6.6       4.6
11 H  s               0.4       8.5      14.5       1.5       2.2       0.4
12 H  s               2.7       1.7       0.1       4.6       4.5       6.3

                     54        55        56        57        58        59   
                   0.77155   0.80026   0.82174   0.90297   1.05946   1.09376
                   0.00000   0.00000   0.00000   0.00000   0.00000   0.00000
                  --------  --------  --------  --------  --------  --------
 0 C  s               1.7       5.1       4.1       0.1       0.2       0.8
 0 C  pz              5.3       1.6       5.7       1.2      15.1      12.4
 0 C  px              2.3      14.7       6.5       1.5       2.4       3.3
 0 C  py              0.7       2.1       2.4       0.0       0.1       0.0
 0 C  dz2             0.0       0.8       0.4       0.1       0.5       0.8
 0 C  dxz             0.0       0.7       1.6       0.0       1.2       0.5
 0 C  dyz             0.1       0.0       0.1       0.2       0.4       0.3
 0 C  dx2y2           0.2       0.3       0.1       0.5       0.0       0.6
 0 C  dxy             0.6       0.3       0.3       0.0       0.5       0.0
 1 C  s              18.7       3.4       6.0       1.0       0.4       1.0
 1 C  pz              1.0       0.3       1.8       0.5       9.8      16.6
 1 C  px              6.3      14.7      15.6       0.1       5.2       0.4
 1 C  py              4.1       1.7       2.5       0.7       0.0       0.3
 1 C  dz2             0.9       0.4       0.1       0.0       0.0       1.3
 1 C  dxz             0.1       0.3       0.1       0.1       0.5       0.6
 1 C  dyz             0.1       0.1       0.0       0.2       0.6       0.1
 1 C  dx2y2           1.8       0.5       0.2       0.1       0.9       0.1
 1 C  dxy             0.0       0.5       0.1       0.9       0.1       0.5
 2 C  s               0.0       0.0       0.2      58.6       0.0       2.8
 2 C  pz              0.2       0.1       0.4       1.7       1.4       0.6
 2 C  px              8.2       1.8       0.0       0.0       3.4       0.0
 2 C  py              0.2       0.2       0.3       1.3       1.9       0.4
 2 C  dz2             0.1       0.0       0.1       0.0       3.1       0.6
 2 C  dxz             0.1       0.0       0.0       0.4       0.1       1.6
 2 C  dx2y2           0.0       0.0       0.2       0.0       1.0       1.9
 2 C  dxy             0.1       0.0       0.0       0.5       0.1       2.0
 3 C  s              18.8       3.4       6.0       1.0       0.4       1.0
 3 C  pz              3.6       1.5       1.9       0.8       0.3       0.0
 3 C  px              6.2      14.6      15.9       0.1       5.1       0.4
 3 C  py              1.6       0.5       2.2       0.4       9.8      16.1
 3 C  dz2             2.8       0.1       0.1       0.1       0.3       0.7
 3 C  dxz             0.0       0.4       0.1       0.9       0.0       0.7
 3 C  dyz             0.0       0.1       0.0       0.1       0.8       0.0
 3 C  dx2y2           0.0       0.7       0.2       0.0       0.5       0.7
 3 C  dxy             0.1       0.4       0.2       0.0       0.5       0.5
 4 C  s               1.7       5.0       4.2       0.1       0.2       0.8
 4 C  pz              1.1       1.6       1.6       0.0       0.2       0.3
 4 C  px              2.2      14.6       6.7       1.5       2.4       3.3
 4 C  py              4.9       2.0       6.6       1.2      15.2      12.0
 4 C  dz2             0.1       0.0       0.0       0.7       0.1       0.0
 4 C  dxz             0.5       0.2       0.2       0.0       0.7       0.0
 4 C  dyz             0.1       0.1       0.2       0.1       0.2       0.2
 4 C  dx2y2           0.0       1.0       0.5       0.0       0.5       1.5
 4 C  dxy             0.1       0.8       1.8       0.0       1.0       0.5
 5 H  s               0.6       0.5       0.4       0.2       2.4       2.1
 6 H  s               0.5       0.7       0.3       0.7       2.6       2.2
 7 H  s               0.2       0.3       0.7       0.4       1.3       1.7
 8 H  s               0.3       0.1       0.0      10.5       0.0       0.1
 9 H  s               0.3       0.1       0.0      10.5       0.0       0.1
10 H  s               0.2       0.3       0.7       0.4       1.3       1.5
11 H  s               0.6       0.5       0.4       0.2       2.5       2.0
12 H  s               0.5       0.6       0.3       0.7       2.6       2.1

                     60        61        62        63        64        65   
                   1.11254   1.25953   1.43298   1.45546   1.55372   1.63625
                   0.00000   0.00000   0.00000   0.00000   0.00000   0.00000
                  --------  --------  --------  --------  --------  --------
 0 C  s               1.4       0.0       0.0       0.1       0.1       0.0
 0 C  pz              0.3       0.1       0.2       0.1       0.0       0.0
 0 C  px              0.5       0.1       0.1       0.0       0.0       0.0
 0 C  py              0.0       0.3       0.5       0.2       0.1       0.0
 0 C  dz2             0.1       0.4       0.0       0.4       2.8       2.1
 0 C  dxz             0.0       1.2       0.4       0.0       3.0       3.2
 0 C  dyz             0.5       2.2       0.0       2.6      28.6      33.6
 0 C  dx2y2           0.5       2.7       9.6       5.2       0.3       0.6
[...]
 4 C  px              0.9       0.7       0.8       0.1       0.0       0.9
 4 C  py              0.5       0.2       0.2       0.3       0.1       0.3
 4 C  dz2             0.3       0.0       0.1      10.6      12.1       0.8
 4 C  dxz             2.6       1.4       4.0       1.4       1.1       5.6
 4 C  dyz             0.0       0.3       2.5       0.2       0.2       2.7
 4 C  dx2y2           5.5      15.5       0.0      12.9       2.4       0.0
 4 C  dxy             6.0       3.0      14.0       0.3       0.0       4.9
 5 H  s               0.1       0.3       1.1       0.4       0.1       0.3
 6 H  s               0.2       1.0       0.5       2.8       1.3       0.4
 7 H  s               0.4       0.2       0.2       1.0       0.4       0.0
 8 H  s               2.5       0.3       0.4       0.2       0.4       3.8
 9 H  s               2.5       0.3       0.4       0.2       0.4       3.8
10 H  s               0.4       0.2       0.2       1.0       0.4       0.0
11 H  s               0.1       0.3       1.1       0.4       0.1       0.3
12 H  s               0.2       1.0       0.5       2.8       1.3       0.4

                     78        79        80        81        82        83   
                   2.30359   2.33545   2.35570   2.46790   2.67571   2.67856
                   0.00000   0.00000   0.00000   0.00000   0.00000   0.00000
                  --------  --------  --------  --------  --------  --------
 0 C  s               0.0       0.5       0.2       0.4       2.2       2.9
 0 C  pz              0.0       0.1       0.3       0.0       0.3       0.3
 0 C  px              0.2       0.1       0.1       0.5       2.1       2.7
 0 C  py              0.5       0.3       0.0       0.2       0.5       0.5
 0 C  dz2             0.2       0.1       0.8       0.0       5.9       3.2
 0 C  dxz             1.9       1.5       8.9       0.4       0.2       0.6
 0 C  dyz             0.4       0.2       0.2       1.0       0.0       0.0
 0 C  dx2y2          14.2       0.4       3.1      10.3       4.0       3.9
 0 C  dxy             6.7      11.1       1.6       0.8       3.5       3.9
 1 C  s               0.1       2.3       2.2       0.6       1.0       1.6
 1 C  pz              0.1       0.8       0.7       0.2       0.1       0.2
 1 C  px              0.2       0.0       0.5       0.1       2.9       3.5
 1 C  py              0.6       0.1       0.0       0.1       0.6       0.4
 1 C  dz2             0.0       8.1       8.2       1.2       0.7       1.1
 1 C  dxz             2.0       0.4       0.1       0.1      16.2      10.0
 1 C  dyz             1.3       0.1       3.2       0.2       4.4       0.5
 1 C  dx2y2           8.8       8.8       2.5       5.0       0.8       1.5
 1 C  dxy             9.6       0.1       0.0      17.5       0.4       4.6
 2 C  s               0.0       1.2       0.0       0.1       1.6       0.0
 2 C  pz              0.3       0.7       0.1       0.2       0.4       0.0
 2 C  px              0.2       0.0       1.4       0.0       0.0       1.0
 2 C  py              0.4       0.5       0.1       0.2       0.3       0.0
 2 C  dz2             2.7       3.8       0.2       3.3       2.0       2.0
 2 C  dxz             0.3       0.4      14.3       1.8       1.8       2.4
 2 C  dyz             0.1       4.6       0.0       8.8       0.2       0.0
 2 C  dx2y2           0.9      15.7       0.1       5.4       5.8       0.9
 2 C  dxy             0.2       0.4      11.0       2.4       2.0       2.2
 3 C  s               0.1       2.2       2.2       0.6       0.7       1.9
 3 C  pz              0.6       0.2       0.0       0.1       0.5       0.4
 3 C  px              0.2       0.0       0.5       0.1       2.3       4.1
 3 C  py              0.1       0.7       0.7       0.2       0.1       0.3
 3 C  dz2             5.1      14.5      10.1       2.1       0.6       0.6
 3 C  dxz            10.8       0.0       0.0      17.6       0.0       2.9
 3 C  dyz             2.2       1.7       0.7       0.1       4.0       0.9
 3 C  dx2y2           2.6       0.7       3.5       4.1       0.6       2.4
 3 C  dxy             1.0       0.5       0.1       0.1      13.9      14.4
 4 C  s               0.0       0.5       0.2       0.4       1.8       3.3
 4 C  pz              0.5       0.2       0.0       0.2       0.3       0.5
 4 C  px              0.2       0.1       0.1       0.5       1.7       3.2
 4 C  py              0.0       0.1       0.3       0.0       0.3       0.5
 4 C  dz2            10.5       0.3       0.9       5.8       0.2       0.8
 4 C  dxz             7.5      12.0       2.9       1.0       3.0       4.1
 4 C  dyz             1.5       0.2       0.2       1.9       0.0       0.1
 4 C  dx2y2           2.8       0.2       3.0       3.7       8.0       7.9
 4 C  dxy             1.0       0.5       7.9       0.3       0.1       1.1
 5 H  s               0.0       0.5       1.6       0.1       0.2       0.0
 6 H  s               0.0       0.0       0.3       0.0       0.5       0.1
 7 H  s               0.0       0.5       1.2       0.1       0.1       0.0
 8 H  s               0.6       0.6       0.2       0.0       0.2       0.2
 9 H  s               0.6       0.6       0.2       0.0       0.2       0.2
10 H  s               0.0       0.4       1.2       0.1       0.1       0.0
11 H  s               0.0       0.5       1.6       0.1       0.2       0.0
12 H  s               0.0       0.0       0.3       0.0       0.4       0.2

                     84        85   
                   2.73218   2.79157
                   0.00000   0.00000
                  --------  --------
 0 C  s               1.1       0.3
 0 C  pz              0.5       0.3
 0 C  px              1.1       0.3
 0 C  py              0.2       0.1
 0 C  dz2             0.5       1.4
 0 C  dxz            10.8       6.3
 0 C  dyz             2.4       2.0
 0 C  dxy             0.7       0.1
 1 C  s               1.5       2.1
 1 C  pz              0.1       0.4
 1 C  px              0.7       0.2
 1 C  py              0.1       0.0
 1 C  dz2            10.9       3.3
 1 C  dxz             2.0       7.5
 1 C  dyz             0.6       0.8
 1 C  dx2y2           6.7       8.8
 1 C  dxy             3.3       2.6
 2 C  s               0.9       0.0
 2 C  pz              0.5       0.3
 2 C  px              0.0       2.6
 2 C  py              0.4       0.4
 2 C  dz2             0.7       4.7
 2 C  dxz             2.5       8.2
 2 C  dyz             0.6       0.1
 2 C  dx2y2           1.5       1.6
 2 C  dxy             3.2       6.2
 3 C  s               1.4       2.1
 3 C  pz              0.1       0.0
 3 C  px              0.6       0.2
 3 C  py              0.1       0.4
 3 C  dz2             0.2       2.1
 3 C  dxz             3.9       3.8
 3 C  dyz             0.1       0.7
 3 C  dx2y2          17.7      10.2
 3 C  dxy             1.4       6.3
 4 C  s               1.0       0.4
 4 C  pz              0.2       0.1
 4 C  px              1.0       0.3
 4 C  py              0.6       0.4
 4 C  dz2             0.5       0.5
 4 C  dxz             0.2       0.0
 4 C  dyz             1.7       1.3
 4 C  dx2y2           0.6       1.7
 4 C  dxy            11.3       6.6
 5 H  s               0.7       0.4
 6 H  s               0.5       0.5
 7 H  s               0.9       0.4
10 H  s               0.9       0.4
11 H  s               0.7       0.4
12 H  s               0.5       0.5


                      *****************************
                      * MAYER POPULATION ANALYSIS *
                      *****************************

  NA   - Mulliken gross atomic population
  ZA   - Total nuclear charge
  QA   - Mulliken gross atomic charge
  VA   - Mayer's total valence
  BVA  - Mayer's bonded valence
  FA   - Mayer's free valence

  ATOM       NA         ZA         QA         VA         BVA        FA
  0 C      6.2007     6.0000    -0.2007     3.9619     3.9619    -0.0000
  1 C      6.1257     6.0000    -0.1257     4.1288     4.1288    -0.0000
  2 C      6.0756     6.0000    -0.0756     3.9225     3.9225    -0.0000
  3 C      6.1253     6.0000    -0.1253     4.1287     4.1287     0.0000
  4 C      6.2008     6.0000    -0.2008     3.9618     3.9618     0.0000
  5 H      0.9002     1.0000     0.0998     0.9413     0.9413    -0.0000
  6 H      0.9069     1.0000     0.0931     0.9509     0.9509    -0.0000
  7 H      0.9221     1.0000     0.0779     0.9518     0.9518    -0.0000
  8 H      0.9068     1.0000     0.0932     0.9560     0.9560    -0.0000
  9 H      0.9066     1.0000     0.0934     0.9559     0.9559    -0.0000
 10 H      0.9222     1.0000     0.0778     0.9518     0.9518     0.0000
 11 H      0.9002     1.0000     0.0998     0.9413     0.9413    -0.0000
 12 H      0.9069     1.0000     0.0931     0.9509     0.9509    -0.0000

  Mayer bond orders larger than 0.100000
B(  0-C ,  1-C ) :   2.0632 B(  0-C ,  5-H ) :   0.9244 B(  0-C ,  6-H ) :   0.9204 
B(  1-C ,  2-C ) :   1.0616 B(  1-C ,  7-H ) :   0.9333 B(  2-C ,  3-C ) :   1.0616 
B(  2-C ,  8-H ) :   0.9017 B(  2-C ,  9-H ) :   0.9017 B(  3-C ,  4-C ) :   2.0630 
B(  3-C , 10-H ) :   0.9333 B(  4-C , 11-H ) :   0.9244 B(  4-C , 12-H ) :   0.9205 


-------
TIMINGS
-------

Total SCF time: 0 days 0 hours 0 min 3 sec 

Total time                  ....       3.732 sec
Sum of individual times     ....       3.416 sec  ( 91.5%)

SCF preparation             ....       0.150 sec  (  4.0%)
Fock matrix formation       ....       2.728 sec  ( 73.1%)
  Startup                   ....       0.050 sec  (  1.8% of F)
  Split-RI-J                ....       0.626 sec  ( 22.9% of F)
  XC integration            ....       1.600 sec  ( 58.7% of F)
    Basis function eval.    ....       0.535 sec  ( 33.4% of XC)
    Density eval.           ....       0.154 sec  (  9.6% of XC)
    XC-Functional eval.     ....       0.181 sec  ( 11.3% of XC)
    XC-Potential eval.      ....       0.296 sec  ( 18.5% of XC)
Diagonalization             ....       0.000 sec  (  0.0%)
Density matrix formation    ....       0.133 sec  (  3.6%)
Total Energy calculation    ....       0.025 sec  (  0.7%)
Population analysis         ....       0.048 sec  (  1.3%)
Orbital Transformation      ....       0.049 sec  (  1.3%)
Orbital Orthonormalization  ....       0.000 sec  (  0.0%)
DIIS solution               ....       0.215 sec  (  5.8%)
  MO trafo                  ....       0.000 sec  (  0.0 % of DIIS)
  Orb grad                  ....       0.000 sec  (  0.0 % of DIIS)
  Energy W gradient         ....       0.000 sec  (  0.0 % of DIIS)
  DIIS error                ....       0.001 sec  (  0.5 % of DIIS)
  DIIS work                 ....       0.174 sec  ( 80.6 % of DIIS)
  Form Q                    ....       0.000 sec  (  0.0 % of DIIS)
  Form QpQm                 ....       0.000 sec  (  0.0 % of DIIS)
  Exp/Cayley                ....       0.000 sec  (  0.0 % of DIIS)
  Orb update                ....       0.000 sec  (  0.0 % of DIIS)
  Wake-sleep                ....       0.013 sec  (  6.0 % of DIIS)
SOSCF solution              ....       0.067 sec  (  1.8%)
  MO trafo                  ....       0.037 sec  ( 55.6 % of SOSCF)
  Orb grad                  ....       0.001 sec  (  1.5 % of SOSCF)
  Rot update                ....       0.014 sec  ( 21.4 % of SOSCF)
  Step                      ....       0.014 sec  ( 21.4 % of SOSCF)
Finished LeanSCF after   3.8 sec

Maximum memory used throughout the entire LEANSCF-calculation: 8.4 MB


-------------------------------------------------------------------------------
                          DFT DISPERSION CORRECTION                            
                                                                               
                                DFTD4 V3.4.0                                   
-------------------------------------------------------------------------------
The PBE functional is recognized
Active option DFTDOPT                   ...         5   

-------------------------   ----------------
Dispersion correction           -0.008584076
-------------------------   ----------------

------------------   -----------------
gCP correction             0.047715582
------------------   -----------------

-------------------------   --------------------
FINAL SINGLE POINT ENERGY      -194.815470307628
-------------------------   --------------------


------------------------------------------------------------------------------
                              ORCA PROPERTY CALCULATIONS
------------------------------------------------------------------------------

GBWName                                 ... sp.gbw
Number of atoms                         ...     13
Number of basis functions               ...     86
Max core memory                         ...   1024 MB

Electric properties:
Dipole moment                           ... YES
Quadrupole moment                       ...  NO
Static polarizability (Dipole/Dipole)   ...  NO
Static polarizability (Dipole/Quad.)    ...  NO
Static polarizability (Quad./Quad.)     ...  NO
Static polarizability (Velocity)        ...  NO

Atomic electric properties:
Dipole moment                           ...  NO
Quadrupole moment                       ...  NO
Static polarizability                   ...  NO

Choice of electric origin               ... Center of mass
Position of electric origin             ...    -0.000000    -0.000000    -0.000000

General magnetic properties:
Magnetizability                         ...  NO

EPR properties:
g-Tensor (aka g-matrix)                 ...  NO
Zero-Field splitting spin-orbit         ...  NO
Zero-field splitting spin-spin          ...  NO
Hyperfine couplings                     ...  NO (   0 nuclei)
Quadrupole couplings                    ...  NO (   0 nuclei)
Contact density                         ...  NO (   0 nuclei)

NMR properties:
Chemical shifts                         ...  NO (   0 nuclei)
Spin-rotation constants                 ...  NO (   0 nuclei)
Spin-spin couplings                     ...  NO (   0 nuclei,    0 pairs)

Choice of magnetic origin               ... GIAO
Position of magnetic origin             ...     0.000000     0.000000     0.000000

Properties with geometric perturbations:
SCF Hessian                             ...  NO
IR spectrum                             ...  NO
VCD spectrum                            ...  NO
X-ray spectroscopy properties:
SCF XES/XAS/RIXS spectra                ...  NO


-------------
DIPOLE MOMENT
-------------

Method             : SCF
Type of density    : Electron Density
Multiplicity       :   1
Irrep              :   0
Energy             :  -194.8546018142978369 Eh
Relativity type    : 
Basis              : AO
                                X                 Y                 Z
Electronic contribution:      0.000818972       0.123860414       0.143387086
Nuclear contribution   :     -0.000697146      -0.150889645      -0.174156888
                        -----------------------------------------
Total Dipole Moment    :      0.000121825      -0.027029230      -0.030769801
                        -----------------------------------------
Magnitude (a.u.)       :      0.040955767
Magnitude (Debye)      :      0.104101286



--------------------
Rotational spectrum 
--------------------
 
Rotational constants in cm-1:             0.646629             0.080796             0.080046 
Rotational constants in MHz :         19385.442674          2422.189378          2399.711506 

Dipole components along the rotational axes: 
x,y,z [a.u.] :     0.000118     0.040953     0.000483 
x,y,z [Debye]:     0.000300     0.104094     0.001227 

 

Dipole moment calculation done in   0.0 sec 

Maximum memory used throughout the entire PROP-calculation: 5.4 MB

--------------------------------
SUGGESTED CITATIONS FOR THIS RUN
--------------------------------

Below you find a list of papers that are relevant to this ORCA run
We neither can nor want to force you to cite these papers, but we appreciate if you do
You receive ORCA, which is the product of decades of hard work by many enthusiastic individuals, for free
The only thing we kindly ask in return is that you cite our papers,
We deeply appreciate it, if you show your appreciation for ORCA by not just citing the generic ORCA reference.

Please note that relegating all ORCA citations to the supporting information does *not* help us.
SI sections are not indexed - citations you put there will not count into any citation statistics
But we need these citations in order to attract the funding resources that allow us to do what we are doing

Therefore, if you are a happy ORCA user, please consider citing a few of the papers listed below in the main body of your paper

In addition to the list printed below, the program has created the file sp.bibtex that contains the list in bibtex format
You can import this file easily into all common literature databanks and citation aid programs


List of essential papers. We consider these as the minimum necessary citations

  1. Neese,F.
     Software update: the ORCA program system, version 5.0
     WIRES Comput. Molec. Sci., 2022 12(1)e1606
     doi.org/10.1002/wcms.1606

List of papers to cite with high priority. The work reported in these papers was absolutely
necessary for this run to complete.
Our perspective: the developers of density functionals and basis sets usually get cited in chemistry papers
Good! But without the algorithms to do something with them, the functionals or basis sets would not do anything.
Hence, in our opinion, the algorithm design and method developments papers are equally worthy of getting cited

  1. Neese,F.
     An improvement of the resolution of the identity approximation for the formation of the Coulomb matrix
     J. Comp. Chem., 2003 24(14)1740-1747
     doi.org/10.1002/jcc.10318
  2. Neese,F.
     The SHARK Integral Generation and Digestion System
     J. Comp. Chem., 2022  1-16
     doi.org/10.1002/jcc.26942
  3. Caldeweyher,E.; Bannwarth,C.; Grimme,S.
     Extension of the D3 dispersion coefficient model
     J. Chem. Phys., 2017 147 034112-XXXX
     doi.org/10.1063/1.4993215
  4. Caldeweyher,E.; Ehlert,S.; Hansen,A.; Neugebauer,H.; Spicher,S.; Bannwarth,C.; Grimme,S.
     A generally applicable atomic-charge dependent London dispersion correction
     J. Chem. Phys., 2019 150 154122-XXXX
     doi.org/10.1063/1.5090222
  5. Caldeweyher,E.; Mewes,J.; Ehlert,S.; Grimme,S.
     Extension and evaluation of the D4 London-dispersion model for periodic systems
     Phys. Chem. Chem. Phys., 2020 22(16)8499-8512
     doi.org/10.1039/D0CP00502A

List of suggested additional citations. These are papers that are important in the 'surrounding' of 
of this run, or papers that preceded the highly important papers. If you like your results we are grateful for a citation.

  1. Neese,F.
     The ORCA program system
     WIRES Comput. Molec. Sci., 2012 2(1)73-78
     doi.org/10.1002/wcms.81
  2. Neese,F.
     Software update: the ORCA program system, version 4.0
     WIRES Comput. Molec. Sci., 2018 8(1)1-6
     doi.org/10.1002/wcms.1327
  3. Neese,F.; Wennmohs,F.; Becker,U.; Riplinger,C.
     The ORCA quantum chemistry program package
     J. Chem. Phys., 2020 152 Art. No. L224108
     doi.org/10.1063/5.0004608

List of optional additional citations

  1. Neese,F.
     Approximate second-order SCF convergence for spin unrestricted wavefunctions
     Chem. Phys. Lett., 2000 325(1-3)93-98
     doi.org/10.1016/s0009-2614(00)00662-x

Timings for individual modules:

Sum of individual times          ...        4.838 sec (=   0.081 min)
Startup calculation              ...        0.486 sec (=   0.008 min)  10.0 %
SCF iterations                   ...        4.258 sec (=   0.071 min)  88.0 %
Property calculations            ...        0.094 sec (=   0.002 min)   1.9 %
                             ****ORCA TERMINATED NORMALLY****
TOTAL RUN TIME: 0 days 0 hours 0 minutes 5 seconds 502 msec
