
                                 *****************
                                 * O   R   C   A *
                                 *****************

                                            #,                                       
                                            ###                                      
                                            ####                                     
                                            #####                                    
                                            ######                                   
                                           ########,                                 
                                     ,,################,,,,,                         
                               ,,#################################,,                 
                          ,,##########################################,,             
                       ,#########################################, ''#####,          
                    ,#############################################,,   '####,        
                  ,##################################################,,,,####,       
                ,###########''''           ''''###############################       
              ,#####''   ,,,,##########,,,,          '''####'''          '####       
            ,##' ,,,,###########################,,,                        '##       
           ' ,,###''''                  '''############,,,                           
         ,,##''                                '''############,,,,        ,,,,,,###''
      ,#''                                            '''#######################'''  
     '                                                          ''''####''''         
             ,#######,   #######,   ,#######,      ##                                
            ,#'     '#,  ##    ##  ,#'     '#,    #''#        ,####,   ,####,        
            ##       ##  ##   ,#'  ##            #'  '#       #'       #'  '#        
            ##       ##  #######   ##           ,######,      #####,   #    #        
            '#,     ,#'  ##    ##  '#,     ,#' ,#      #,     #,   #   #,  ,#        
             '#######'   ##     ##  '#######'  #'      '#     '####' # '####'        



                #########################################################
                #                        -***-                          #
                #          Department of theory and spectroscopy        #
                #                                                       #
                #                      Frank Neese                      #
                #                                                       #
                #     Directorship, Architecture, Infrastructure        #
                #                    SHARK, DRIVERS                     #
                #        Core code/Algorithms in most modules           #
                #                                                       #
                #        Max Planck Institute fuer Kohlenforschung      #
                #                Kaiser Wilhelm Platz 1                 #
                #                 D-45470 Muelheim/Ruhr                 #
                #                      Germany                          #
                #                                                       #
                #                  All rights reserved                  #
                #                        -***-                          #
                #########################################################


                         Program Version 6.0.0  -   RELEASE  -


 With contributions from (in alphabetic order):
   Daniel Aravena         : Magnetic Suceptibility
   Michael Atanasov       : Ab Initio Ligand Field Theory (pilot matlab implementation)
   Alexander A. Auer      : GIAO ZORA, VPT2 properties, NMR spectrum
   Ute Becker             : All parallelization in ORCA, NUMFREQ, NUMCALC
   Giovanni Bistoni       : ED, misc. LED, open-shell LED, HFLD
   Martin Brehm           : Molecular dynamics
   Dmytro Bykov           : pre 5.0 version of the SCF Hessian
   Marcos Casanova-Páez   : Triplet and SCS-CIS(D). UHF-(DLPNO)-IP/EA/STEOM-CCSD. UHF-CVS-IP/STEOM-CCSD
   Vijay G. Chilkuri      : MRCI spin determinant printing, contributions to CSF-ICE
   Pauline Colinet        : FMM embedding
   Dipayan Datta          : RHF DLPNO-CCSD density
   Achintya Kumar Dutta   : EOM-CC, STEOM-CC
   Nicolas Foglia         : Exact transition moments, OPA infrastructure, MCD improvements
   Dmitry Ganyushin       : Spin-Orbit,Spin-Spin,Magnetic field MRCI
   Miquel Garcia          : C-PCM and meta-GGA Hessian, CCSD/C-PCM, Gaussian charge scheme
   Tiago L. C. Gouveia    : GS-ROHF, GS-ROCIS
   Yang Guo               : DLPNO-NEVPT2, F12-NEVPT2, CIM, IAO-localization
   Andreas Hansen         : Spin unrestricted coupled pair/coupled cluster methods
   Ingolf Harden          : AUTO-CI MPn and infrastructure 
   Benjamin Helmich-Paris : MC-RPA, TRAH-(SCF,CASSCF), AVAS, COSX integrals, SCF dyn. polar.
   Lee Huntington         : MR-EOM, pCC
   Robert Izsak           : Overlap fitted RIJCOSX, COSX-SCS-MP3, EOM
   Riya Kayal             : Wick's Theorem for AUTO-CI, AUTO-CI UHF-CCSDT
   Emily Kempfer          : AUTO-CI, RHF CISDT and CCSDT
   Christian Kollmar      : KDIIS, OOCD, Brueckner-CCSD(T), CCSD density, CASPT2, CASPT2-K, improved NEVPT2
   Axel Koslowski         : Symmetry handling
   Simone Kossmann        : Meta GGA functionals, TD-DFT gradient, OOMP2, (MP2 Hessian; deprecated post 5.0)
   Lucas Lang             : DCDCAS
   Marvin Lechner         : AUTO-CI (C++ implementation), FIC-MRCC
   Spencer Leger          : CASSCF response
   Dagmar Lenk            : GEPOL surface, SMD, ORCA-2-JSON
   Dimitrios Liakos       : Extrapolation schemes; Compound Job, initial MDCI parallelization
   Dimitrios Manganas     : Further ROCIS development; embedding schemes. LFT, Crystal Embedding
   Dimitrios Pantazis     : SARC Basis sets
   Anastasios Papadopoulos: AUTO-CI, single reference methods and gradients
   Taras Petrenko         : pre 6.0 DFT Hessian and TD-DFT gradient, (ASA, deprecated), ECA, 1-Electron XAS/XES, NRVS
   Peter Pinski           : DLPNO-MP2, DLPNO-MP2 Gradient
   Christoph Reimann      : Effective Core Potentials
   Marius Retegan         : Local ZFS, SOC
   Christoph Riplinger    : Optimizer, TS searches, QM/MM, DLPNO-CCSD(T), (RO)-DLPNO pert. Triples
   Michael Roemelt        : Original ROCIS implementation
   Masaaki Saitow         : Open-shell DLPNO-CCSD energy and density
   Barbara Sandhoefer     : DKH picture change effects
   Kantharuban Sivalingam : CASSCF convergence/infrastructure, NEVPT2 and variants, FIC-MRCI
   Bernardo de Souza      : ESD, SOC TD-DFT
   Georgi Stoychev        : AutoAux, RI-MP2 NMR, DLPNO-MP2 response, X2C
   Van Anh Tran           : RI-MP2 g-tensors
   Willem Van den Heuvel  : Paramagnetic NMR
   Zikuan Wang            : NOTCH, Electric field optimization 
   Frank Wennmohs         : Technical directorship and infrastructure
   Hang Xu                : AUTO-CI-Response properties 


 We gratefully acknowledge several colleagues who have allowed us to
 interface, adapt or use parts of their codes:
   Stefan Grimme, W. Hujo, H. Kruse, P. Pracht,  : VdW corrections, initial TS optimization,
                  C. Bannwarth, S. Ehlert,         DFT functionals, gCP, sTDA/sTD-DF
                  L. Wittmann, M. Mueller
   Ed Valeev, F. Pavosevic, A. Kumar             : LibInt (2-el integral package), F12 methods
   Garnet Chan, S. Sharma, J. Yang, R. Olivares  : DMRG
   Ulf Ekstrom                                   : XCFun DFT Library
   Mihaly Kallay                                 : mrcc  (arbitrary order and MRCC methods)
   Frank Weinhold                                : gennbo (NPA and NBO analysis)
   Simon Mueller                                 : openCOSMO-RS
   Christopher J. Cramer and Donald G. Truhlar   : smd solvation model
   Lars Goerigk                                  : TD-DFT with DH, B97 family of functionals
   V. Asgeirsson, H. Jonsson                     : NEB implementation
   FAccTs GmbH                                   : IRC, NEB, NEB-TS, DLPNO-Multilevel, CI-OPT
                                                   MM, QMMM, 2- and 3-layer-ONIOM, Crystal-QMMM,
                                                   LR-CPCM, SF, NACMEs, symmetry and pop. for TD-DFT,
                                                   nearIR, NL-DFT gradient (VV10), updates on ESD,
                                                   ML-optimized integration grids, MBIS, APM,
                                                   GOAT, DOCKER, SOLVATOR, interface openCOSMO-RS
   S Lehtola, MJT Oliveira, MAL Marques          : LibXC Library
   Liviu Ungur et al                             : ANISO software


 Your calculation uses the libint2 library for the computation of 2-el integrals
 For citations please refer to: http://libint.valeyev.net

 Your ORCA version has been built with support for libXC version: 6.2.2
 For citations please refer to: https://libxc.gitlab.io

 This ORCA versions uses:
   CBLAS   interface :  Fast vector & matrix operations
   LAPACKE interface :  Fast linear algebra routines
   SCALAPACK package :  Parallel linear algebra routines
   Shared memory     :  Shared parallel matrices
   BLAS/LAPACK       :  OpenBLAS 0.3.27  USE64BITINT DYNAMIC_ARCH NO_AFFINITY SkylakeX SINGLE_THREADED
        Core in use  :  SkylakeX
   Copyright (c) 2011-2014, The OpenBLAS Project


Your calculation utilizes the geometrical counterpoise correction gCP
Please cite in your paper:
H.Kruse, S. Grimme J.Chem.Phys., 136, (2012), 154101 
   

Your calculation utilizes the atom-pairwise dispersion correction
based on EEQ partial charges (D4)


================================================================================

----- Orbital basis set information -----
Your calculation utilizes the basis: def2-SV(P)
   F. Weigend and R. Ahlrichs, Phys. Chem. Chem. Phys. 7, 3297 (2005).

----- AuxJ basis set information -----
Your calculation utilizes the auxiliary basis: def2/J
   F. Weigend, Phys. Chem. Chem. Phys. 8, 1057 (2006).

================================================================================
                                        WARNINGS
                       Please study these warnings very carefully!
================================================================================


================================================================================
                                       INPUT FILE
================================================================================
NAME = sp.inp
|  1> ! pbe def2-sv(p) def2/J RI DEFGRID1 loosescf d4 GCP(DFT/SV(P)) printgap
|  2> %output
|  3>     printlevel normal
|  4> end
|  5> * xyz 0 1
|  6> C -3.3181982667 -1.0574906222 0.2511375909
|  7> C -1.8698302158 -0.8216993576 -0.1571931322
|  8> C -1.3560714063 0.5257214866 0.3726576075
|  9> C 0.0633808525 0.722883523 -0.0853901965
| 10> O 0.388243112 1.2786407601 -1.1145642351
| 11> O 0.9272598461 0.1833392686 0.7648293479
| 12> C 2.3255270912 0.2105753077 0.4328843543
| 13> C 2.707447897 -0.9875982679 -0.4227708367
| 14> H -3.9593334818 -0.2772635594 -0.1507446968
| 15> H -3.6620337347 -2.0159511612 -0.1278394168
| 16> H -3.412646907 -1.0591056355 1.3338018683
| 17> H -1.7856022976 -0.8297985087 -1.2460517247
| 18> H -1.2400805953 -1.6212233336 0.2374062893
| 19> H -1.3845414112 0.5274794473 1.4613650394
| 20> H -1.9683209673 1.3351333707 -0.0237916213
| 21> H 2.5402530323 1.1449262815 -0.0945745443
| 22> H 2.8377724959 0.1914391936 1.3951859732
| 23> H 2.4448958375 -1.9107839813 0.0866647598
| 24> H 2.1834847611 -0.9465290666 -1.3752080061
| 25> H 3.7764238655 -0.9715251703 -0.6078925317
| 26> *
| 27> 
| 28>                          ****END OF INPUT****
================================================================================

                       ****************************
                       * Single Point Calculation *
                       ****************************

---------------------------------
CARTESIAN COORDINATES (ANGSTROEM)
---------------------------------
  C     -3.318198   -1.057491    0.251138
  C     -1.869830   -0.821699   -0.157193
  C     -1.356071    0.525721    0.372658
  C      0.063381    0.722884   -0.085390
  O      0.388243    1.278641   -1.114564
  O      0.927260    0.183339    0.764829
  C      2.325527    0.210575    0.432884
  C      2.707448   -0.987598   -0.422771
  H     -3.959333   -0.277264   -0.150745
  H     -3.662034   -2.015951   -0.127839
  H     -3.412647   -1.059106    1.333802
  H     -1.785602   -0.829799   -1.246052
  H     -1.240081   -1.621223    0.237406
  H     -1.384541    0.527479    1.461365
  H     -1.968321    1.335133   -0.023792
  H      2.540253    1.144926   -0.094575
  H      2.837772    0.191439    1.395186
  H      2.444896   -1.910784    0.086665
  H      2.183485   -0.946529   -1.375208
  H      3.776424   -0.971525   -0.607893

----------------------------
CARTESIAN COORDINATES (A.U.)
----------------------------
  NO LB      ZA    FRAG     MASS         X           Y           Z
   0 C     6.0000    0    12.011   -6.270486   -1.998368    0.474581
   1 C     6.0000    0    12.011   -3.533467   -1.552787   -0.297052
   2 C     6.0000    0    12.011   -2.562604    0.993470    0.704221
   3 C     6.0000    0    12.011    0.119772    1.366052   -0.161364
   4 O     8.0000    0    15.999    0.733673    2.416281   -2.106221
   5 O     8.0000    0    15.999    1.752267    0.346461    1.445318
   6 C     6.0000    0    12.011    4.394609    0.397930    0.818033
   7 C     6.0000    0    12.011    5.116335   -1.866290   -0.798921
   8 H     1.0000    0     1.008   -7.482056   -0.523952   -0.284866
   9 H     1.0000    0     1.008   -6.920241   -3.809596   -0.241581
  10 H     1.0000    0     1.008   -6.448968   -2.001420    2.520520
  11 H     1.0000    0     1.008   -3.374299   -1.568092   -2.354697
  12 H     1.0000    0     1.008   -2.343413   -3.063668    0.448633
  13 H     1.0000    0     1.008   -2.616404    0.996792    2.761580
  14 H     1.0000    0     1.008   -3.719588    2.523036   -0.044960
  15 H     1.0000    0     1.008    4.800383    2.163597   -0.178720
  16 H     1.0000    0     1.008    5.362613    0.361768    2.636519
  17 H     1.0000    0     1.008    4.620184   -3.610858    0.163773
  18 H     1.0000    0     1.008    4.126188   -1.788681   -2.598767
  19 H     1.0000    0     1.008    7.136407   -1.835917   -1.148750

--------------------------------
INTERNAL COORDINATES (ANGSTROEM)
--------------------------------
 C      0   0   0     0.000000000000     0.00000000     0.00000000
 C      1   0   0     1.523187943347     0.00000000     0.00000000
 C      2   1   0     1.536304934603   111.17995659     0.00000000
 C      3   2   1     1.504501703010   108.99239210   181.34342773
 O      4   3   2     1.213919600289   124.79206312    90.95411111
 O      4   3   2     1.326750990849   111.46432177   272.40961735
 C      6   4   3     1.437386715300   118.53572770   176.18830826
 C      7   6   4     1.521061874170   111.05348562   273.37539226
 H      1   2   3     1.086884541584   110.52769640    60.38700792
 H      1   2   3     1.086504949938   110.11876365   180.27770276
 H      1   2   3     1.086777388190   110.48303318   300.21956959
 H      2   1   3     1.092141461952   109.84374205   239.34407224
 H      2   1   3     1.091573119936   109.77259459   120.62625980
 H      3   2   1     1.089081036415   109.72109552    61.82047973
 H      3   2   1     1.089572904437   109.76333459   300.39139783
 H      7   6   4     1.094226604381   108.56586698    35.20478774
 H      7   6   4     1.090314611127   104.64758929   153.07558723
 H      8   7   6     1.086614040198   110.17230198   303.48438901
 H      8   7   6     1.087823794892   109.98948522    63.70987769
 H      8   7   6     1.085005994295   109.37130346   183.31606393

---------------------------
INTERNAL COORDINATES (A.U.)
---------------------------
 C      0   0   0     0.000000000000     0.00000000     0.00000000
 C      1   0   0     2.878408063416     0.00000000     0.00000000
 C      2   1   0     2.903195584591   111.17995659     0.00000000
 C      3   2   1     2.843096186706   108.99239210   181.34342773
 O      4   3   2     2.293975593145   124.79206312    90.95411111
 O      4   3   2     2.507196020614   111.46432177   272.40961735
 C      6   4   3     2.716267240454   118.53572770   176.18830826
 C      7   6   4     2.874390374931   111.05348562   273.37539226
 H      1   2   3     2.053914122786   110.52769640    60.38700792
 H      1   2   3     2.053196798533   110.11876365   180.27770276
 H      1   2   3     2.053711632217   110.48303318   300.21956959
 H      2   1   3     2.063848262589   109.84374205   239.34407224
 H      2   1   3     2.062774251829   109.77259459   120.62625980
 H      3   2   1     2.058064896472   109.72109552    61.82047973
 H      3   2   1     2.058994392327   109.76333459   300.39139783
 H      7   6   4     2.067788610730   108.56586698    35.20478774
 H      7   6   4     2.060396014843   104.64758929   153.07558723
 H      8   7   6     2.053402949247   110.17230198   303.48438901
 H      8   7   6     2.055689054308   109.98948522    63.70987769
 H      8   7   6     2.050364182881   109.37130346   183.31606393

---------------------
BASIS SET INFORMATION
---------------------
There are 3 groups of distinct atoms

 Group   1 Type C   : 7s4p1d contracted to 3s2p1d pattern {511/31/1}
 Group   2 Type O   : 7s4p1d contracted to 3s2p1d pattern {511/31/1}
 Group   3 Type H   : 4s contracted to 2s pattern {31}

Atom   0C    basis set group =>   1
Atom   1C    basis set group =>   1
Atom   2C    basis set group =>   1
Atom   3C    basis set group =>   1
Atom   4O    basis set group =>   2
Atom   5O    basis set group =>   2
Atom   6C    basis set group =>   1
Atom   7C    basis set group =>   1
Atom   8H    basis set group =>   3
Atom   9H    basis set group =>   3
Atom  10H    basis set group =>   3
Atom  11H    basis set group =>   3
Atom  12H    basis set group =>   3
Atom  13H    basis set group =>   3
Atom  14H    basis set group =>   3
Atom  15H    basis set group =>   3
Atom  16H    basis set group =>   3
Atom  17H    basis set group =>   3
Atom  18H    basis set group =>   3
Atom  19H    basis set group =>   3
---------------------------------
AUXILIARY/J BASIS SET INFORMATION
---------------------------------
There are 3 groups of distinct atoms

 Group   1 Type C   : 12s5p4d2f1g contracted to 6s4p3d1f1g pattern {711111/2111/211/2/1}
 Group   2 Type O   : 12s5p4d2f1g contracted to 6s4p3d1f1g pattern {711111/2111/211/2/1}
 Group   3 Type H   : 5s2p1d contracted to 3s1p1d pattern {311/2/1}

Atom   0C    basis set group =>   1
Atom   1C    basis set group =>   1
Atom   2C    basis set group =>   1
Atom   3C    basis set group =>   1
Atom   4O    basis set group =>   2
Atom   5O    basis set group =>   2
Atom   6C    basis set group =>   1
Atom   7C    basis set group =>   1
Atom   8H    basis set group =>   3
Atom   9H    basis set group =>   3
Atom  10H    basis set group =>   3
Atom  11H    basis set group =>   3
Atom  12H    basis set group =>   3
Atom  13H    basis set group =>   3
Atom  14H    basis set group =>   3
Atom  15H    basis set group =>   3
Atom  16H    basis set group =>   3
Atom  17H    basis set group =>   3
Atom  18H    basis set group =>   3
Atom  19H    basis set group =>   3
------------------------------------------------------------------------------
                             ORCA STARTUP CALCULATIONS
                           -- RI-GTO INTEGRALS CHOSEN --
------------------------------------------------------------------------------
------------------------------------------------------------------------------
                   ___                                                        
                  /   \      - P O W E R E D   B Y -                         
                 /     \                                                     
                 |  |  |   _    _      __       _____    __    __             
                 |  |  |  | |  | |    /  \     |  _  \  |  |  /  |          
                  \  \/   | |  | |   /    \    | | | |  |  | /  /          
                 / \  \   | |__| |  /  /\  \   | |_| |  |  |/  /          
                |  |  |   |  __  | /  /__\  \  |    /   |      \           
                |  |  |   | |  | | |   __   |  |    \   |  |\   \          
                \     /   | |  | | |  |  |  |  | |\  \  |  | \   \       
                 \___/    |_|  |_| |__|  |__|  |_| \__\ |__|  \__/        
                                                                              
                      - O R C A' S   B I G   F R I E N D -                    
                                      &                                       
                       - I N T E G R A L  F E E D E R -                       
                                                                              
 v1 FN, 2020, v2 2021, v3 2022-2024                                           
------------------------------------------------------------------------------


----------------------
SHARK INTEGRAL PACKAGE
----------------------

Number of atoms                             ...     20
Number of basis functions                   ...    136
Number of shells                            ...     72
Maximum angular momentum                    ...      2
Integral batch strategy                     ... SHARK/LIBINT Hybrid
RI-J (if used) integral strategy            ... SPLIT-RIJ (Revised 2003 algorithm where possible)
Printlevel                                  ...      1
Contraction scheme used                     ... SEGMENTED contraction
Prescreening option                         ... SCHWARTZ
   Thresh                                   ... 1.000e-09
   Tcut                                     ... 1.000e-10
   Tpresel                                  ... 1.000e-10 
Coulomb Range Separation                    ... NOT USED
Exchange Range Separation                   ... NOT USED
Multipole approximations                    ... NOT USED
Finite Nucleus Model                        ... NOT USED
CABS basis                                  ... NOT available
Auxiliary Coulomb fitting basis             ... AVAILABLE
   # of basis functions in Aux-J            ...    524
   # of shells in Aux-J                     ...    180
   Maximum angular momentum in Aux-J        ...      4
Auxiliary J/K fitting basis                 ... NOT available
Auxiliary Correlation fitting basis         ... NOT available
Auxiliary 'external' fitting basis          ... NOT available

Checking pre-screening integrals            ... done (  0.0 sec) Dimension = 72
Check shell pair data                       ... done (  0.0 sec)
Shell pair information
Shell pair cut-off parameter TPreSel        ...   1.0e-10
Total number of shell pairs                 ...      2628
Shell pairs after pre-screening             ...      2404
Total number of primitive shell pairs       ...     10580
Primitive shell pairs kept                  ...      6678
          la=0 lb=0:   1058 shell pairs
          la=1 lb=0:    726 shell pairs
          la=1 lb=1:    133 shell pairs
          la=2 lb=0:    335 shell pairs
          la=2 lb=1:    121 shell pairs
          la=2 lb=2:     31 shell pairs

Calculating one electron integrals          ... done (  0.0 sec)
Calculating RI/J V-Matrix + Cholesky decomp.... done (  0.1 sec)
Calculating Nuclear repulsion               ... done (  0.0 sec) ENN=    391.309855601123 Eh

Diagonalization of the overlap matrix:
Smallest eigenvalue                        ... 1.522e-03
Time for diagonalization                   ...    0.004 sec
Threshold for overlap eigenvalues          ... 1.000e-07
Number of eigenvalues below threshold      ... 0
Time for construction of square roots      ...    0.013 sec
Total time needed                          ...    0.025 sec

-------------------
DFT GRID GENERATION
-------------------

General Integration Accuracy     IntAcc      ... 4.159
Radial Grid Type                 RadialGrid  ... OptM3 with GC (2021)
Angular Grid (max. ang.)         AngularGrid ... 3 (Lebedev-194)
Angular grid pruning method      GridPruning ... 4 (adaptive)
Weight generation scheme         WeightScheme... mBecke (2022)
Basis function cutoff            BFCut       ... 1.0000e-10
Integration weight cutoff        WCut        ... 1.0000e-14
Partially contracted basis set               ... off
Rotationally invariant grid construction     ... off
Angular grids for H and He will be reduced by one unit

Total number of grid points                  ...    43037
Total number of batches                      ...      684
Average number of points per batch           ...       62
Average number of grid points per atom       ...     2152
Initializing property integral containers    ... done (  0.0 sec)

SHARK setup successfully completed in   0.7 seconds

Maximum memory used throughout the entire STARTUP-calculation: 21.1 MB
-------------------------------------------------------------------------------
                                 ORCA GUESS
                   Start orbitals & Density for SCF / CASSCF
-------------------------------------------------------------------------------

------------
SCF SETTINGS
------------
Hamiltonian:
 Density Functional     Method          .... DFT(GTOs)
 Exchange Functional    Exchange        .... PBE
   PBE kappa parameter   XKappa         ....  0.804000
   PBE mue parameter    XMuePBE         ....  0.219520
 Correlation Functional Correlation     .... PBE
   PBE beta parameter  CBetaPBE         ....  0.066725
 LDA part of GGA corr.  LDAOpt          .... PW91-LDA
 Gradients option       PostSCFGGA      .... off
   NL short-range parameter             ....  6.400000
 RI-approximation to the Coulomb term is turned on
   Number of AuxJ basis functions       .... 524


General Settings:
 Integral files         IntName         .... sp
 Hartree-Fock type      HFTyp           .... RHF
 Total Charge           Charge          ....    0
 Multiplicity           Mult            ....    1
 Number of Electrons    NEL             ....   64
 Basis Dimension        Dim             ....  136
 Nuclear Repulsion      ENuc            ....    391.3098556011 Eh

Convergence Acceleration:
 AO-DIIS                CNVDIIS         .... on
   Start iteration      DIISMaxIt       ....    12
   Startup error        DIISStart       ....  0.200000
   # of expansion vecs  DIISMaxEq       ....     5
   Bias factor          DIISBfac        ....   1.050
   Max. coefficient     DIISMaxC        ....  10.000
 MO-DIIS                CNVKDIIS        .... off
 Trust-Rad. Augm. Hess. CNVTRAH         .... auto
   Auto Start mean grad. ratio tolernc. ....  1.125000
   Auto Start start iteration           ....    50
   Auto Start num. interpolation iter.  ....    10
   Max. Number of Micro iterations      ....    24
   Max. Number of Macro iterations      .... Maxiter - #DIIS iter
   Number of Davidson start vectors     ....     2
   Converg. threshold    (grad. norm)   ....   1.000e-04
   Grad. Scal. Fac. for Micro threshold ....   0.100
   Minimum threshold for Micro iter.    ....   1.000e-02
   NR start threshold (gradient norm)   ....   1.000e-04
   Initial trust radius                 ....   0.400
   Minimum AH scaling param. (alpha)    ....   1.000
   Maximum AH scaling param. (alpha)    .... 1000.000
   Quad. conv. algorithm                .... NR
   White noise on init. David. guess    .... on
   Maximum white noise                  ....   0.010
   Pseudo random numbers                .... off
   Inactive MOs                         .... canonical
   Orbital update algorithm             .... Taylor
   Preconditioner                       .... Diag
   Full preconditioner red. dimension   ....   250
 SOSCF                  CNVSOSCF        .... on
   Start iteration      SOSCFMaxIt      ....   150
   Startup grad/error   SOSCFStart      ....  0.003300
   Hessian update       SOSCFHessUp     .... L-BFGS
 Level Shifting         CNVShift        .... on
   Level shift para.    LevelShift      ....    0.2500
   Turn off err/grad.   ShiftErr        ....    0.0010
 Zerner damping         CNVZerner       .... off
 Static damping         CNVDamp         .... on
   Fraction old density DampFac         ....    0.7000
   Max. Damping (<1)    DampMax         ....    0.9800
   Min. Damping (>=0)   DampMin         ....    0.0000
   Turn off err/grad.   DampErr         ....    0.1000

SCF Procedure:
 Maximum # iterations   MaxIter         ....   125
 SCF integral mode      SCFMode         .... Direct
   Integral package                     .... SHARK and LIBINT hybrid scheme
 Reset frequency        DirectResetFreq ....    20
 Integral Threshold     Thresh          ....  1.000e-09 Eh
 Primitive CutOff       TCut            ....  1.000e-10 Eh

Convergence Tolerance:
 Convergence Check Mode ConvCheckMode   .... Total+1el-Energy
 Convergence forced     ConvForced      .... 0
 Energy Change          TolE            ....  1.000e-05 Eh
 1-El. energy change                    ....  1.000e-02 Eh
 Orbital Gradient       TolG            ....  1.000e-04
 Orbital Rotation angle TolX            ....  1.000e-04
 DIIS Error             TolErr          ....  5.000e-04

------------------------------
INITIAL GUESS: MODEL POTENTIAL
------------------------------
Loading Hartree-Fock densities                     ... done
Calculating cut-offs                               ... done
Initializing the effective Hamiltonian             ... done
Setting up the integral package (SHARK)            ... done
Starting the Coulomb interaction                   ... done (   0.2 sec)
Making the grid                                    ... done (   0.2 sec)
Mapping shells                                     ... done
Starting the XC term evaluation                    ... done (   0.2 sec)
  promolecular density results
     # of electrons  =     63.995803074
     EX              =    -50.542675360
     EC              =     -2.105817113
     EX+EC           =    -52.648492473
Transforming the Hamiltonian                       ... done (   0.0 sec)
Diagonalizing the Hamiltonian                      ... done (   0.0 sec)
Back transforming the eigenvectors                 ... done (   0.0 sec)
Now organizing SCF variables                       ... done
                      ------------------
                      INITIAL GUESS DONE (   0.5 sec)
                      ------------------
             **** ENERGY FILE WAS UPDATED (sp.en.tmp) ****
Finished Guess after   0.7 sec
Maximum memory used throughout the entire GUESS-calculation: 16.1 MB

-------------------------------------------------------------------------------------------
                                      ORCA LEAN-SCF
                              memory conserving SCF solver
-------------------------------------------------------------------------------------------

----------------------------------------D-I-I-S--------------------------------------------
Iteration    Energy (Eh)           Delta-E    RMSDP     MaxDP     DIISErr   Damp  Time(sec)
-------------------------------------------------------------------------------------------
               ***  Starting incremental Fock matrix formation  ***
    1    -385.2858105308994823     0.00e+00  4.79e-03  9.82e-02  2.43e-01  0.700   0.8
    2    -385.4105027728170967    -1.25e-01  3.00e-03  4.84e-02  7.54e-02  0.700   0.8
                               ***Turning on AO-DIIS***
    3    -385.4488836049843599    -3.84e-02  1.23e-03  1.39e-02  2.26e-02  0.700   0.8
    4    -385.4738693475475770    -2.50e-02  1.75e-03  2.29e-02  1.47e-02  0.000   0.8
    5    -385.5318555794329427    -5.80e-02  5.49e-04  6.22e-03  8.80e-03  0.000   0.8
                              *** Initializing SOSCF ***
---------------------------------------S-O-S-C-F--------------------------------------
Iteration    Energy (Eh)           Delta-E    RMSDP     MaxDP     MaxGrad    Time(sec)
--------------------------------------------------------------------------------------
    6    -385.5325967078295548    -7.41e-04  2.05e-04  2.50e-03  3.22e-03     0.8
               *** Restarting incremental Fock matrix formation ***
    7    -385.5326533897481909    -5.67e-05  1.58e-04  2.75e-03  6.64e-04     0.8
    8    -385.5326327950986638     2.06e-05  8.44e-05  2.14e-03  1.98e-03     0.8
    9    -385.5326600142678330    -2.72e-05  6.58e-05  1.16e-03  2.96e-04     0.8
   10    -385.5326567020985635     3.31e-06  3.71e-05  7.41e-04  3.76e-04     0.7
                 **** Energy Check signals convergence ****

               *****************************************************
               *                     SUCCESS                       *
               *           SCF CONVERGED AFTER  10 CYCLES          *
               *****************************************************

             **** ENERGY FILE WAS UPDATED (sp.en.tmp) ****

----------------
TOTAL SCF ENERGY
----------------

Total Energy       :       -385.53265670209856 Eh          -10490.87693 eV

Components:
Nuclear Repulsion  :        391.30985560112327 Eh           10648.08251 eV
Electronic Energy  :       -776.84251230322184 Eh          -21138.95944 eV
One Electron Energy:      -1299.01255012017236 Eh          -35347.92854 eV
Two Electron Energy:        522.17003781695053 Eh           14208.96910 eV

Virial components:
Potential Energy   :       -767.93888981449845 Eh          -20896.67956 eV
Kinetic Energy     :        382.40623311239989 Eh           10405.80262 eV
Virial Ratio       :          2.00817566064301

DFT components:
N(Alpha)           :       32.000118117195 electrons
N(Beta)            :       32.000118117195 electrons
N(Total)           :       64.000236234390 electrons
E(X)               :      -51.601642780691 Eh       
E(C)               :       -2.122427485669 Eh       
E(XC)              :      -53.724070266360 Eh       

---------------
SCF CONVERGENCE
---------------

  Last Energy change         ...   -3.3122e-06  Tolerance :   1.0000e-05
  Last MAX-Density change    ...    7.4129e-04  Tolerance :   1.0000e-03
  Last RMS-Density change    ...    3.7110e-05  Tolerance :   1.0000e-04
  Last DIIS Error            ...    3.2152e-03  Tolerance :   5.0000e-04
  Last Orbital Gradient      ...    3.7573e-04  Tolerance :   1.0000e-04
  Last Orbital Rotation      ...    3.2183e-04  Tolerance :   1.0000e-04


----------------
ORBITAL ENERGIES
----------------

  NO   OCC          E(Eh)            E(eV) 
   0   2.0000     -18.796040      -511.4663 
   1   2.0000     -18.729049      -509.6433 
   2   2.0000     -10.002858      -272.1916 
   3   2.0000      -9.945360      -270.6270 
   4   2.0000      -9.896243      -269.2905 
   5   2.0000      -9.895577      -269.2723 
   6   2.0000      -9.886614      -269.0284 
   7   2.0000      -9.880839      -268.8713 
   8   2.0000      -1.002564       -27.2812 
   9   2.0000      -0.906190       -24.6587 
  10   2.0000      -0.729584       -19.8530 
  11   2.0000      -0.696628       -18.9562 
  12   2.0000      -0.639578       -17.4038 
  13   2.0000      -0.587562       -15.9884 
  14   2.0000      -0.535862       -14.5815 
  15   2.0000      -0.494462       -13.4550 
  16   2.0000      -0.451567       -12.2878 
  17   2.0000      -0.433650       -11.8002 
  18   2.0000      -0.421255       -11.4629 
  19   2.0000      -0.403103       -10.9690 
  20   2.0000      -0.388236       -10.5644 
  21   2.0000      -0.375894       -10.2286 
  22   2.0000      -0.355925        -9.6852 
  23   2.0000      -0.346403        -9.4261 
  24   2.0000      -0.344243        -9.3673 
  25   2.0000      -0.331169        -9.0116 
  26   2.0000      -0.313792        -8.5387 
  27   2.0000      -0.299954        -8.1622 
  28   2.0000      -0.298270        -8.1163 
  29   2.0000      -0.288339        -7.8461 
  30   2.0000      -0.253498        -6.8980 
  31   2.0000      -0.213850        -5.8192 
  32   0.0000      -0.017423        -0.4741 
  33   0.0000       0.037924         1.0320 
  34   0.0000       0.052487         1.4282 
  35   0.0000       0.075254         2.0478 
  36   0.0000       0.076821         2.0904 
  37   0.0000       0.088739         2.4147 
  38   0.0000       0.092406         2.5145 
  39   0.0000       0.094366         2.5678 
  40   0.0000       0.104347         2.8394 
  41   0.0000       0.120972         3.2918 
  42   0.0000       0.123673         3.3653 
*Only the first 10 virtual orbitals were printed.

                    ********************************
                    * MULLIKEN POPULATION ANALYSIS *
                    ********************************

-----------------------
MULLIKEN ATOMIC CHARGES
-----------------------
   0 C :   -0.241626
   1 C :   -0.243282
   2 C :   -0.114155
   3 C :    0.113434
   4 O :   -0.213933
   5 O :   -0.242794
   6 C :   -0.011948
   7 C :   -0.304247
   8 H :    0.101500
   9 H :    0.107077
  10 H :    0.099124
  11 H :    0.103540
  12 H :    0.097342
  13 H :    0.093563
  14 H :    0.098289
  15 H :    0.107825
  16 H :    0.100668
  17 H :    0.112380
  18 H :    0.125331
  19 H :    0.111911
Sum of atomic charges:    0.0000000

--------------------------------
MULLIKEN REDUCED ORBITAL CHARGES
--------------------------------
  0 C s       :     3.066851  s :     3.066851
      pz      :     1.062886  p :     3.145422
      px      :     1.021749
      py      :     1.060788
      dz2     :     0.008871  d :     0.029353
      dxz     :     0.004422
      dyz     :     0.002836
      dx2y2   :     0.005089
      dxy     :     0.008135

  1 C s       :     3.103836  s :     3.103836
      pz      :     1.062614  p :     3.102004
      px      :     1.030376
      py      :     1.009015
      dz2     :     0.011075  d :     0.037441
      dxz     :     0.004890
      dyz     :     0.004288
      dx2y2   :     0.006705
      dxy     :     0.010483

  2 C s       :     3.006805  s :     3.006805
      pz      :     1.028840  p :     3.074193
      px      :     1.010611
      py      :     1.034742
      dz2     :     0.010098  d :     0.033157
      dxz     :     0.003763
      dyz     :     0.004500
      dx2y2   :     0.007056
      dxy     :     0.007739

  3 C s       :     3.046653  s :     3.046653
      pz      :     0.883389  p :     2.708986
      px      :     0.971159
      py      :     0.854438
      dz2     :     0.030956  d :     0.130927
      dxz     :     0.041421
      dyz     :     0.022162
      dx2y2   :     0.017029
      dxy     :     0.019359

  4 O s       :     3.748781  s :     3.748781
      pz      :     1.349220  p :     4.447683
      px      :     1.706493
      py      :     1.391970
      dz2     :     0.005912  d :     0.017468
      dxz     :     0.003482
      dyz     :     0.005278
      dx2y2   :     0.001462
      dxy     :     0.001335

  5 O s       :     3.730449  s :     3.730449
      pz      :     1.608944  p :     4.496247
      px      :     1.225753
      py      :     1.661550
      dz2     :     0.002932  d :     0.016098
      dxz     :     0.004961
      dyz     :     0.002542
      dx2y2   :     0.003005
      dxy     :     0.002658

  6 C s       :     3.072256  s :     3.072256
      pz      :     1.045495  p :     2.880759
      px      :     0.751491
      py      :     1.083773
      dz2     :     0.009838  d :     0.058933
      dxz     :     0.013999
      dyz     :     0.007424
      dx2y2   :     0.017564
      dxy     :     0.010107

  7 C s       :     3.101136  s :     3.101136
      pz      :     1.074017  p :     3.175190
      px      :     1.059072
      py      :     1.042100
      dz2     :     0.006364  d :     0.027921
      dxz     :     0.004429
      dyz     :     0.006256
      dx2y2   :     0.008812
      dxy     :     0.002060

  8 H s       :     0.898500  s :     0.898500

  9 H s       :     0.892923  s :     0.892923

 10 H s       :     0.900876  s :     0.900876

 11 H s       :     0.896460  s :     0.896460

 12 H s       :     0.902658  s :     0.902658

 13 H s       :     0.906437  s :     0.906437

 14 H s       :     0.901711  s :     0.901711

 15 H s       :     0.892175  s :     0.892175

 16 H s       :     0.899332  s :     0.899332

 17 H s       :     0.887620  s :     0.887620

 18 H s       :     0.874669  s :     0.874669

 19 H s       :     0.888089  s :     0.888089


------------------------
MULLIKEN OVERLAP CHARGES
------------------------
B(  0-C ,  1-C ) :   0.9104 B(  0-C ,  2-C ) :  -0.1154 B(  0-C ,  8-H ) :   0.7577 
B(  0-C ,  9-H ) :   0.7354 B(  0-C , 10-H ) :   0.7552 B(  0-C , 11-H ) :  -0.0512 
B(  1-C ,  2-C ) :   0.8893 B(  1-C ,  3-C ) :  -0.0511 B(  1-C , 11-H ) :   0.7220 
B(  1-C , 12-H ) :   0.7150 B(  2-C ,  3-C ) :   0.6173 B(  2-C ,  4-O ) :  -0.1735 
B(  2-C ,  5-O ) :  -0.2460 B(  2-C , 11-H ) :  -0.0772 B(  2-C , 12-H ) :  -0.0670 
B(  2-C , 13-H ) :   0.5877 B(  2-C , 14-H ) :   0.6329 B(  3-C ,  4-O ) :   1.3425 
B(  3-C ,  5-O ) :   0.7093 B(  4-O ,  5-O ) :  -0.1747 B(  4-O , 15-H ) :   0.0542 
B(  5-O ,  6-C ) :   0.5207 B(  5-O ,  7-C ) :  -0.0767 B(  5-O , 15-H ) :  -0.0646 
B(  5-O , 16-H ) :  -0.0555 B(  6-C ,  7-C ) :   0.9354 B(  6-C , 15-H ) :   0.7092 
B(  6-C , 16-H ) :   0.7368 B(  7-C , 15-H ) :  -0.0597 B(  7-C , 16-H ) :  -0.0579 
B(  7-C , 17-H ) :   0.7406 B(  7-C , 18-H ) :   0.7404 B(  7-C , 19-H ) :   0.7115 
B(  8-H , 10-H ) :  -0.0526 B( 11-H , 12-H ) :  -0.0672 B( 15-H , 16-H ) :  -0.0627 
B( 17-H , 18-H ) :  -0.0532 


                     *******************************
                     * LOEWDIN POPULATION ANALYSIS *
                     *******************************

----------------------
LOEWDIN ATOMIC CHARGES
----------------------
   0 C :   -0.338912
   1 C :   -0.225384
   2 C :   -0.241532
   3 C :    0.037420
   4 O :   -0.174976
   5 O :   -0.069155
   6 C :   -0.113290
   7 C :   -0.356453
   8 H :    0.119425
   9 H :    0.121868
  10 H :    0.118378
  11 H :    0.121978
  12 H :    0.118171
  13 H :    0.129492
  14 H :    0.133549
  15 H :    0.119446
  16 H :    0.116478
  17 H :    0.123461
  18 H :    0.130038
  19 H :    0.129998

-------------------------------
LOEWDIN REDUCED ORBITAL CHARGES
-------------------------------
  0 C s       :     2.945067  s :     2.945067
      pz      :     1.122689  p :     3.322828
      px      :     1.078175
      py      :     1.121964
      dz2     :     0.021682  d :     0.071017
      dxz     :     0.009960
      dyz     :     0.006926
      dx2y2   :     0.013724
      dxy     :     0.018725

  1 C s       :     2.908528  s :     2.908528
      pz      :     1.104902  p :     3.227876
      px      :     1.067788
      py      :     1.055187
      dz2     :     0.026221  d :     0.088980
      dxz     :     0.010707
      dyz     :     0.010046
      dx2y2   :     0.018055
      dxy     :     0.023952

  2 C s       :     2.918824  s :     2.918824
      pz      :     1.099725  p :     3.239393
      px      :     1.054896
      py      :     1.084772
      dz2     :     0.024921  d :     0.083314
      dxz     :     0.009974
      dyz     :     0.010114
      dx2y2   :     0.019028
      dxy     :     0.019278

  3 C s       :     2.847029  s :     2.847029
      pz      :     0.962337  p :     2.817789
      px      :     0.991100
      py      :     0.864351
      dz2     :     0.068556  d :     0.297762
      dxz     :     0.098138
      dyz     :     0.052314
      dx2y2   :     0.036875
      dxy     :     0.041879

  4 O s       :     3.551836  s :     3.551836
      pz      :     1.453667  p :     4.592312
      px      :     1.719117
      py      :     1.419527
      dz2     :     0.010137  d :     0.030829
      dxz     :     0.006257
      dyz     :     0.010158
      dx2y2   :     0.002091
      dxy     :     0.002185

  5 O s       :     3.449489  s :     3.449489
      pz      :     1.637660  p :     4.586890
      px      :     1.288911
      py      :     1.660319
      dz2     :     0.004945  d :     0.032776
      dxz     :     0.010755
      dyz     :     0.004114
      dx2y2   :     0.006985
      dxy     :     0.005977

  6 C s       :     2.924476  s :     2.924476
      pz      :     1.108652  p :     3.057367
      px      :     0.826859
      py      :     1.121856
      dz2     :     0.020208  d :     0.131448
      dxz     :     0.030912
      dyz     :     0.019597
      dx2y2   :     0.039319
      dxy     :     0.021412

  7 C s       :     2.951991  s :     2.951991
      pz      :     1.119980  p :     3.335731
      px      :     1.121152
      py      :     1.094599
      dz2     :     0.014027  d :     0.068732
      dxz     :     0.010958
      dyz     :     0.016797
      dx2y2   :     0.021752
      dxy     :     0.005197

  8 H s       :     0.880575  s :     0.880575

  9 H s       :     0.878132  s :     0.878132

 10 H s       :     0.881622  s :     0.881622

 11 H s       :     0.878022  s :     0.878022

 12 H s       :     0.881829  s :     0.881829

 13 H s       :     0.870508  s :     0.870508

 14 H s       :     0.866451  s :     0.866451

 15 H s       :     0.880554  s :     0.880554

 16 H s       :     0.883522  s :     0.883522

 17 H s       :     0.876539  s :     0.876539

 18 H s       :     0.869962  s :     0.869962

 19 H s       :     0.870002  s :     0.870002


---------------------------------
LOEWDIN BOND ORDERS (THRESH 0.050000)
---------------------------------
B(  0-C ,  1-C ) :   1.1309 B(  0-C ,  2-C ) :   0.0561 B(  0-C ,  8-H ) :   0.9405 
B(  0-C ,  9-H ) :   0.9372 B(  0-C , 10-H ) :   0.9406 B(  1-C ,  2-C ) :   1.0703 
B(  1-C ,  3-C ) :   0.0708 B(  1-C , 11-H ) :   0.9065 B(  1-C , 12-H ) :   0.9075 
B(  2-C ,  3-C ) :   1.0597 B(  2-C ,  4-O ) :   0.0944 B(  2-C ,  5-O ) :   0.0719 
B(  2-C , 13-H ) :   0.8935 B(  2-C , 14-H ) :   0.8935 B(  3-C ,  4-O ) :   2.2003 
B(  3-C ,  5-O ) :   1.3976 B(  3-C ,  6-C ) :   0.0753 B(  4-O ,  5-O ) :   0.2075 
B(  5-O ,  6-C ) :   1.0753 B(  5-O ,  7-C ) :   0.0540 B(  6-C ,  7-C ) :   1.1497 
B(  6-C , 15-H ) :   0.9066 B(  6-C , 16-H ) :   0.9206 B(  7-C , 17-H ) :   0.9387 
B(  7-C , 18-H ) :   0.9353 B(  7-C , 19-H ) :   0.9303 

------------------------------------------
LOEWDIN REDUCED ORBITAL POPULATIONS PER MO
-------------------------------------------
THRESHOLD FOR PRINTING IS 0.1%%
                      0         1         2         3         4         5   
                 -18.79604 -18.72905 -10.00286  -9.94536  -9.89624  -9.89558
                   2.00000   2.00000   2.00000   2.00000   2.00000   2.00000
                  --------  --------  --------  --------  --------  --------
 1 C  s               0.0       0.0       0.0       0.0      99.4       0.2
 2 C  s               0.0       0.0       0.0       0.0       0.2      99.4
 3 C  s               0.0       0.0      99.3       0.0       0.0       0.0
 3 C  px              0.0       0.0       0.0       0.0       0.0       0.1
 4 O  s               0.0      99.9       0.0       0.0       0.0       0.0
 4 O  pz              0.0       0.0       0.2       0.0       0.0       0.0
 5 O  s              99.9       0.0       0.0       0.0       0.0       0.0
 6 C  s               0.0       0.0       0.0      99.7       0.0       0.0

                      6         7         8         9        10        11   
                  -9.88661  -9.88084  -1.00256  -0.90619  -0.72958  -0.69663
                   2.00000   2.00000   2.00000   2.00000   2.00000   2.00000
                  --------  --------  --------  --------  --------  --------
 0 C  s               0.0      99.7       0.0       0.0       7.7       6.3
 0 C  px              0.0       0.0       0.0       0.0       1.9       0.7
 0 C  py              0.0       0.0       0.0       0.0       0.2       0.0
 1 C  s               0.0       0.0       0.1       0.0      18.8       7.4
 1 C  pz              0.0       0.0       0.0       0.0       0.5       0.1
 1 C  px              0.0       0.1       0.1       0.0       0.0       0.6
 1 C  py              0.0       0.0       0.1       0.0       1.2       0.0
 2 C  s               0.0       0.0       1.0       0.3      19.4       1.0
 2 C  pz              0.0       0.0       0.1       0.3       0.2       0.2
 2 C  px              0.0       0.0       1.8       0.2       0.0       1.5
 2 C  py              0.0       0.0       0.0       0.1       1.5       0.7
 3 C  s               0.0       0.0      18.4       5.4       3.1       1.2
 3 C  pz              0.0       0.0       0.2      18.1       2.5       1.7
 3 C  px              0.0       0.0       4.8       0.2       5.4       0.5
 3 C  py              0.0       0.0       0.2       5.8       1.0       0.3
 3 C  dz2             0.0       0.0       0.1       0.4       0.0       0.0
 3 C  dxz             0.0       0.0       0.2       0.8       0.0       0.1
 3 C  dyz             0.0       0.0       0.6       0.3       0.0       0.0
 3 C  dxy             0.0       0.0       0.1       0.3       0.0       0.0
 4 O  s               0.0       0.0      10.7      42.3       1.3       0.2
 4 O  pz              0.0       0.0       2.0       3.1       0.1       0.1
 4 O  px              0.0       0.0       0.0       0.5       0.1       0.0
 4 O  py              0.0       0.0       0.6       0.9       0.0       0.0
 5 O  s               0.0       0.0      41.9      14.7       0.0       1.2
 5 O  pz              0.0       0.0       2.5       0.2       0.0       0.2
 5 O  px              0.0       0.0       0.0       0.4       5.2       8.8
 5 O  py              0.0       0.0       0.7       0.1       0.1       0.6
 6 C  s               0.0       0.0       4.8       2.2       4.9      18.2
 6 C  pz              0.0       0.0       0.1       0.2       0.0       0.5
 6 C  px              0.0       0.0       5.5       1.4       0.1       0.8
 6 C  py              0.1       0.0       0.0       0.0       0.1       1.5
 6 C  dx2y2           0.0       0.0       0.3       0.1       0.0       0.0
 7 C  s              99.7       0.0       0.3       0.2       2.5      18.3
 7 C  pz              0.0       0.0       0.1       0.1       0.2       0.7
 7 C  px              0.0       0.0       0.2       0.1       0.0       0.1
 7 C  py              0.0       0.0       0.3       0.1       0.3       1.2
 8 H  s               0.0       0.1       0.0       0.0       1.4       1.2
 9 H  s               0.0       0.1       0.0       0.0       1.3       1.2
10 H  s               0.0       0.1       0.0       0.0       1.5       1.2
11 H  s               0.0       0.0       0.0       0.0       3.3       1.4
12 H  s               0.0       0.0       0.0       0.0       3.5       1.3
13 H  s               0.0       0.0       0.2       0.0       3.8       0.1
14 H  s               0.0       0.0       0.1       0.1       3.3       0.3
15 H  s               0.0       0.0       0.8       0.1       0.9       3.4
16 H  s               0.0       0.0       0.5       0.3       1.0       4.0
17 H  s               0.1       0.0       0.1       0.0       0.4       3.6
18 H  s               0.1       0.0       0.1       0.0       0.4       3.4
19 H  s               0.1       0.0       0.0       0.0       0.4       3.7

                     12        13        14        15        16        17   
                  -0.63958  -0.58756  -0.53586  -0.49446  -0.45157  -0.43365
                   2.00000   2.00000   2.00000   2.00000   2.00000   2.00000
                  --------  --------  --------  --------  --------  --------
 0 C  s              18.7       5.2       8.4       0.0       0.3       0.1
 0 C  pz              0.0       0.0       1.1       0.1       0.4       3.4
 0 C  px              0.0       0.6       7.5       0.1       0.9       2.1
 0 C  py              0.1       0.1       0.0       0.2       2.2       0.4
 0 C  dx2y2           0.0       0.0       0.1       0.0       0.0       0.0
 1 C  s               1.9       0.6      15.3       0.4       0.0       0.1
 1 C  pz              0.0       0.0       1.9       0.2       2.5      10.7
 1 C  px              6.2       1.7       4.2       0.2       0.8       0.3
 1 C  py              3.2       1.3       1.7       1.2       2.6       2.7
 1 C  dx2y2           0.2       0.1       0.0       0.0       0.0       0.0
 2 C  s              11.5       4.4       3.4       1.0       1.5       0.0
 2 C  pz              0.0       0.1       1.5       0.0       4.2      15.4
 2 C  px              1.8       0.9       0.3       2.3      14.3       0.0
 2 C  py              0.8       0.0       8.2       0.5       0.0       1.9
 2 C  dxz             0.0       0.0       0.0       0.0       0.1       0.0
 2 C  dyz             0.0       0.0       0.1       0.0       0.0       0.0
 2 C  dx2y2           0.0       0.1       0.1       0.0       0.2       0.0
 3 C  s               2.7       1.3       0.7       2.1       2.1       1.2
 3 C  pz              1.4       1.5       0.8       1.7       0.1       2.0
 3 C  px              6.3       2.5       2.5       0.8      10.6       0.8
 3 C  py              0.3       0.8       1.1       0.3       0.4       1.0
 3 C  dz2             0.0       0.0       0.0       0.0       0.0       0.2
 3 C  dxz             0.0       0.1       0.0       0.0       0.0       0.0
 3 C  dyz             0.0       0.0       0.0       0.0       0.0       0.1
 4 O  s               0.9       0.1       0.2       1.1       0.2       5.1
 4 O  pz              0.1       0.1       0.2       1.0       0.0       2.4
 4 O  px              0.3       0.2       0.3       0.4       5.8       1.2
 4 O  py              0.0       0.1       0.1       0.2       0.1       3.7
 5 O  s               1.1       0.0       0.2       4.2       0.5       0.6
 5 O  pz              0.1       2.1       0.3       3.9       6.4       8.1
 5 O  px              2.3      16.9       0.0       7.3       0.5       2.0
 5 O  py              0.0       0.3       0.3       6.2       3.4       0.4
 6 C  s               0.5       5.5       1.3       7.4       0.2       0.1
 6 C  pz              1.0       4.8       0.3       1.3      10.7       4.9
 6 C  px              1.9       1.3       0.4      12.6       1.7       2.5
 6 C  py              1.2       2.9       0.4       8.6       3.7       0.0
 6 C  dxz             0.0       0.0       0.0       0.2       0.0       0.0
 6 C  dyz             0.0       0.1       0.0       0.1       0.0       0.0
 6 C  dx2y2           0.1       0.1       0.0       0.3       0.0       0.0
 7 C  s               9.0      14.2       0.4       1.5       0.0       0.0
 7 C  pz              0.0       1.2       0.2       0.4       3.9       0.5
 7 C  px              0.0       0.3       0.0       0.8       0.3       2.8
 7 C  py              0.0       1.4       0.4       7.0       0.5       0.8
 7 C  dyz             0.0       0.1       0.0       0.1       0.0       0.0
 8 H  s               4.3       1.4       4.7       0.1       0.0       1.9
 9 H  s               4.8       1.8       3.3       0.0       1.7       0.2
10 H  s               4.3       1.5       4.7       0.0       0.0       0.8
11 H  s               0.4       0.2       7.6       0.3       0.8       2.7
12 H  s               0.4       0.1       8.0       0.5       0.4       3.1
13 H  s               2.7       0.9       2.4       0.6       3.8       6.3
14 H  s               2.4       1.8       2.6       1.7       2.3       1.9
15 H  s               0.1       1.3       0.6      12.6       2.3       0.2
16 H  s               0.1       3.0       1.0       4.0       5.2       2.7
17 H  s               2.1       4.3       0.2       3.2       0.5       0.3
18 H  s               2.1       4.9       0.3       1.2       1.5       0.5
19 H  s               2.5       5.1       0.1       0.1       0.0       1.0

                     18        19        20        21        22        23   
                  -0.42125  -0.40310  -0.38824  -0.37589  -0.35592  -0.34640
                   2.00000   2.00000   2.00000   2.00000   2.00000   2.00000
                  --------  --------  --------  --------  --------  --------
 0 C  s               0.1       0.0       0.0       0.0       0.0       0.0
 0 C  pz              6.2       0.6       2.9       9.0       0.4      12.5
 0 C  px              0.3       0.3       1.9       0.7       2.3       7.7
 0 C  py              0.7      11.5       1.2       6.1       5.8       0.9
 0 C  dz2             0.0       0.0       0.0       0.1       0.0       0.1
 0 C  dx2y2           0.0       0.0       0.0       0.0       0.0       0.1
 1 C  s               0.4       0.0       0.1       0.0       0.0       0.2
 1 C  pz              8.1       0.7       2.9       2.0       0.2       0.4
 1 C  px              3.5       1.2       0.2       2.0       0.7       2.1
 1 C  py              0.2      10.9       0.1       4.8       1.0       0.1
 1 C  dxz             0.0       0.0       0.0       0.0       0.0       0.2
 2 C  s               0.0       0.0       0.1       0.2       0.0       0.5
 2 C  pz              1.2       0.4       0.0       5.5       0.6       9.6
 2 C  px              2.0       4.8       1.9       0.4       3.0       0.2
 2 C  py              4.5       1.9       0.1       7.0       3.9       3.4
 2 C  dz2             0.0       0.0       0.0       0.1       0.0       0.4
 3 C  s               0.1       0.6       2.0       0.0       0.1       0.0
 3 C  pz              2.4       0.7       1.9       1.0       1.2       2.6
 3 C  px              0.5       2.2       3.4       1.3       0.2       0.7
 3 C  py              9.8       6.0       1.1       0.8       0.2       3.1
 3 C  dxz             0.2       0.0       0.0       0.0       0.0       0.3
 3 C  dxy             0.0       0.0       0.0       0.1       0.2       0.0
 4 O  s               0.0       2.6       9.4       0.2       0.2       0.5
 4 O  pz              0.8       6.1      24.1       0.0       0.1       0.5
 4 O  px              0.0       1.4       0.3       1.3       0.5       0.5
 4 O  py              3.7       0.2       4.8       1.0       1.1       8.5
 4 O  dz2             0.0       0.0       0.2       0.0       0.0       0.0
 4 O  dyz             0.0       0.0       0.2       0.0       0.0       0.1
 5 O  s               0.6       0.2       1.2       0.5       1.2       0.2
 5 O  pz              6.3       0.3       4.1       2.9       0.1       0.9
 5 O  px              0.0       6.9       0.8       0.7       0.0       2.3
 5 O  py             12.9       4.2       2.1       0.4       4.0       0.0
 6 C  s               0.5       0.1       0.0       0.2       0.1       0.1
 6 C  pz              3.2       1.1       4.1       0.6       1.0       1.4
 6 C  px              0.4       5.3       0.1       0.1       0.4       0.5
 6 C  py              3.0       3.3       1.4       7.2       2.4       1.4
 6 C  dxz             0.0       0.1       0.1       0.1       0.1       0.0
 6 C  dx2y2           0.0       0.0       0.0       0.1       0.2       0.1
 6 C  dxy             0.1       0.0       0.0       0.0       0.0       0.0
 7 C  s               0.4       0.2       0.0       0.0       0.0       0.0
 7 C  pz              0.7       6.5       7.2      10.6       0.0       0.5
 7 C  px              6.7       0.7       0.1       7.3      21.3       6.9
 7 C  py              3.0       0.3       4.6       0.1      10.9       1.4
 7 C  dyz             0.1       0.0       0.0       0.0       0.1       0.0
 7 C  dx2y2           0.1       0.0       0.0       0.2       0.3       0.1
 8 H  s               0.3       3.5       0.3       0.8       4.3       2.6
 9 H  s               0.1       2.7       2.0       3.8       1.0       5.0
10 H  s               3.0       0.3       0.9       4.6       0.1       5.7
11 H  s               3.8       0.2       1.0       0.8       0.2       0.1
12 H  s               1.2       4.3       0.0       0.1       0.1       0.0
13 H  s               0.5       0.2       0.1       3.4       0.2       7.9
14 H  s               2.6       0.2       0.0       1.7       4.5       2.7
15 H  s               0.0       0.5       2.2       0.7       1.0       0.0
16 H  s               0.6       2.8       1.5       0.0       0.6       0.1
17 H  s               0.5       0.0       3.9       1.4       9.0       0.0
18 H  s               0.0       3.1       3.0       1.4       2.9       0.3
19 H  s               4.1       0.0       0.0       6.0      11.9       4.3

                     24        25        26        27        28        29   
                  -0.34424  -0.33117  -0.31379  -0.29995  -0.29827  -0.28834
                   2.00000   2.00000   2.00000   2.00000   2.00000   2.00000
                  --------  --------  --------  --------  --------  --------
 0 C  s               0.0       0.0       0.4       0.0       0.0       0.1
 0 C  pz              4.0       0.4       5.8       0.7       8.4       0.0
 0 C  px              1.7       5.6      15.0       0.2       2.3       1.4
 0 C  py             11.7       2.5       0.1      10.5       0.6       1.2
 0 C  dz2             0.1       0.0       0.2       0.0       0.5       0.0
 0 C  dxz             0.0       0.0       0.0       0.0       0.2       0.0
 0 C  dxy             0.1       0.1       0.1       0.5       0.0       0.0
 1 C  s               0.2       0.0       0.1       0.1       0.1       0.0
 1 C  pz              0.2       0.3       6.0       1.2      17.2       0.0
 1 C  px              4.0       5.3      14.9       0.4       3.5       1.1
 1 C  py              0.2       0.0       0.5      18.7       0.6       1.2
 1 C  dz2             0.0       0.0       0.2       0.1       0.8       0.0
 1 C  dxz             0.0       0.0       0.0       0.0       0.2       0.0
 1 C  dyz             0.0       0.0       0.0       0.1       0.0       0.0
 1 C  dx2y2           0.2       0.0       0.2       0.0       0.1       0.1
 1 C  dxy             0.0       0.0       0.2       0.7       0.0       0.0
 2 C  s               0.6       0.0       0.0       0.4       0.2       0.0
 2 C  pz              5.5       0.0       0.4       0.1       8.1       0.0
 2 C  px              1.6       2.1       2.7       0.1       2.0       4.1
 2 C  py              0.4       0.5       1.1      13.8       2.2       0.8
 2 C  dz2             0.0       0.0       0.1       0.0       0.4       0.0
 2 C  dyz             0.0       0.0       0.0       0.2       0.0       0.0
 2 C  dx2y2           0.0       0.0       0.1       0.0       0.1       0.1
 2 C  dxy             0.2       0.0       0.2       0.3       0.0       0.0
 3 C  s               0.4       0.0       0.2       0.0       0.0       0.8
 3 C  pz              1.5       1.8       0.1       0.5       0.3       3.4
 3 C  px              0.4       0.5       4.0       0.1       0.4       0.5
 3 C  py              3.5       3.3       0.8       1.0       0.8       1.0
 3 C  dz2             0.1       0.3       0.0       0.0       0.1       0.3
 3 C  dyz             0.1       0.0       0.0       0.0       0.0       0.3
 3 C  dx2y2           0.2       0.0       0.0       0.0       0.0       0.3
 3 C  dxy             0.0       0.1       0.0       0.3       0.0       0.0
 4 O  s               1.2       0.4       0.2       0.0       0.0       1.0
 4 O  pz              8.6       0.0       2.6       1.1       0.8       7.2
 4 O  px              2.4       0.1       1.6       0.5       0.4       0.6
 4 O  py              0.1      10.2       0.0       1.9       4.3       1.0
 5 O  s               0.3       0.1       0.0       0.1       0.0       3.5
 5 O  pz              4.2       1.1       0.3       0.3       0.0      21.8
 5 O  px              0.1       2.7       0.5       0.3       0.1       5.6
 5 O  py              1.3       1.0       0.2       3.2       0.6       5.2
 5 O  dx2y2           0.0       0.0       0.0       0.0       0.0       0.1
 6 C  s               0.0       0.1       0.0       0.0       0.0       0.2
 6 C  pz              0.9       7.7       1.9       0.0       0.3       7.7
 6 C  px              0.1       2.4       1.0       0.1       0.2       1.7
 6 C  py              4.3       1.4       3.4       3.2       1.1       3.0
 6 C  dz2             0.0       0.3       0.2       0.0       0.0       0.0
 6 C  dxz             0.1       0.2       0.1       0.0       0.0       0.3
 6 C  dyz             0.1       0.0       0.1       0.1       0.0       0.1
 6 C  dx2y2           0.0       0.0       0.0       0.0       0.0       0.4
 6 C  dxy             0.0       0.1       0.0       0.1       0.0       0.1
 7 C  s               0.0       0.1       0.0       0.1       0.0       0.0
 7 C  pz              1.5      13.7       2.1       0.0       0.2       2.5
 7 C  px              0.4       5.1       1.0       0.2       0.3       0.6
 7 C  py             12.1       0.3       3.4       2.3       0.9       0.4
 7 C  dz2             0.0       0.3       0.1       0.0       0.0       0.1
 7 C  dxz             0.0       0.3       0.1       0.0       0.0       0.0
 7 C  dyz             0.1       0.0       0.1       0.0       0.0       0.0
 7 C  dx2y2           0.0       0.0       0.0       0.0       0.0       0.2
 8 H  s               3.2       3.1       1.2       7.6       1.9       0.1
 9 H  s               4.4       0.6       0.0       4.9       3.6       1.2
10 H  s               2.3       0.5       4.4       0.6       7.7       0.0
11 H  s               0.1       0.4       5.3       1.1      13.8       0.0
12 H  s               0.1       0.9       2.6      13.1       4.0       0.0
13 H  s               1.7       0.0       0.6       0.1       6.7       0.1
14 H  s               4.3       1.0       1.9       5.9       1.4       0.2
15 H  s               1.0       0.0       3.1       1.9       0.9       8.6
16 H  s               0.3       8.3       2.5       0.0       0.4       4.0
17 H  s               6.4       0.4       2.9       0.9       0.5       3.0
18 H  s               1.1      12.3       2.8       0.1       0.4       1.3
19 H  s               0.1       1.9       0.3       0.1       0.1       0.9

                     30        31        32        33        34        35   
                  -0.25350  -0.21385  -0.01742   0.03792   0.05249   0.07525
                   2.00000   2.00000   0.00000   0.00000   0.00000   0.00000
                  --------  --------  --------  --------  --------  --------
 0 C  s               0.0       0.1       0.0       6.6       8.6       0.1
 0 C  pz              0.0       0.0       0.1       0.3       0.0       0.4
 0 C  px              0.0       0.6       0.9       1.9       1.0       0.0
 0 C  py              0.0       0.1       0.0       0.1       0.1       2.1
 0 C  dxz             0.0       0.0       0.0       0.1       0.0       0.0
 0 C  dx2y2           0.0       0.0       0.0       0.2       0.0       0.1
 1 C  s               0.0       0.0       1.8       6.4       0.5       3.5
 1 C  pz              0.3       0.0       0.5       0.5       0.4       0.2
 1 C  px              0.1       0.3       0.5       0.8       0.3       0.9
 1 C  py              0.2       0.2       2.2       1.8       0.0       0.5
 1 C  dz2             0.0       0.0       0.1       0.0       0.1       0.0
 1 C  dxy             0.0       0.0       0.1       0.0       0.0       0.1
 2 C  s               0.0       0.6       0.1       3.1       0.8       4.3
 2 C  pz              0.0       1.6       0.1       0.7       0.1       0.7
 2 C  px              0.1       4.6       0.3       0.1       0.4       1.2
 2 C  py              0.1       0.8       0.5       0.7       1.0       0.8
 2 C  dz2             0.0       0.1       0.3       0.0       0.0       0.0
 2 C  dxz             0.0       0.0       0.3       0.0       0.0       0.1
 2 C  dyz             0.0       0.0       0.0       0.1       0.1       0.0
 2 C  dx2y2           0.0       0.0       0.2       0.1       0.0       0.2
 2 C  dxy             0.0       0.0       1.3       0.0       0.0       0.0
 3 C  s               0.0       0.4       0.0       0.5       0.6       0.2
 3 C  pz              0.2       0.5      11.1       0.3       0.7       0.1
 3 C  px              0.0       0.9       0.2       0.6       0.0       0.4
 3 C  py              0.5       0.1      35.0       0.3       0.4       0.3
 3 C  dz2             1.3       0.2       0.3       0.0       0.0       0.0
 3 C  dxz             0.2       2.7       0.1       0.0       0.1       0.0
 3 C  dyz             0.5       0.4       0.2       0.2       0.1       0.0
 3 C  dx2y2           0.4       0.4       0.0       0.0       0.0       0.0
 3 C  dxy             0.0       0.8       0.5       0.0       0.0       0.0
 4 O  s               0.0       0.0       0.0       0.5       0.1       0.0
 4 O  pz              9.6       1.8       6.2       0.0       0.0       0.1
 4 O  px              1.1      66.4       0.2       0.0       0.4       0.2
 4 O  py             24.5       3.9      19.1       0.0       0.6       0.3
 4 O  dz2             0.0       0.0       0.3       0.0       0.0       0.0
 4 O  dyz             0.0       0.0       0.1       0.0       0.0       0.0
 5 O  s               0.0       0.3       0.0       0.7       0.1       1.3
 5 O  pz              9.3       6.3       2.2       0.0       0.1       0.0
 5 O  px              0.2       0.5       0.1       0.2       0.2       1.0
 5 O  py             34.9       0.9       7.4       0.1       0.8       0.2
 5 O  dxy             0.0       0.0       0.2       0.0       0.0       0.0
 6 C  s               0.0       0.1       0.0       1.5       6.0       2.4
 6 C  pz              1.4       0.1       0.0       0.2       1.1       1.1
 6 C  px              0.0       0.7       0.1       1.5       0.4       8.5
 6 C  py              2.4       0.3       0.1       0.3       0.4       0.2
 6 C  dz2             0.0       0.0       0.0       0.0       0.0       0.3
 6 C  dxz             0.2       0.0       0.1       0.0       0.0       0.3
 6 C  dyz             0.2       0.0       0.2       0.0       0.0       0.0
 6 C  dx2y2           0.0       0.0       0.0       0.0       0.1       0.6
 6 C  dxy             0.5       0.0       0.3       0.0       0.0       0.0
 7 C  s               0.5       0.0       0.7       5.1       9.1       2.2
 7 C  pz              2.9       0.1       0.1       0.2       0.4       0.2
 7 C  px              0.6       0.1       0.0       0.2       0.8       1.7
 7 C  py              2.9       0.0       0.2       1.1       2.0       0.3
 7 C  dyz             0.0       0.0       0.0       0.1       0.2       0.1
 7 C  dx2y2           0.0       0.0       0.0       0.1       0.0       0.3
 7 C  dxy             0.0       0.0       0.0       0.0       0.0       0.1
 8 H  s               0.1       0.0       0.1       4.7       8.6       1.1
 9 H  s               0.0       0.3       0.1       5.6       4.7       4.6
10 H  s               0.1       0.0       0.1       6.0       5.5       0.6
11 H  s               0.2       0.2       0.1       6.7       1.2       4.6
12 H  s               0.3       0.0       0.1      11.1       0.0       7.0
13 H  s               0.0       1.2       1.6       5.7       0.8       7.5
14 H  s               0.1       0.2       1.5       3.4       3.7       7.8
15 H  s               1.5       0.4       0.3       1.7       3.4       2.3
16 H  s               1.2       0.1       0.1       3.4      10.0      14.9
17 H  s               0.1       0.0       0.1       5.7       8.7       4.3
18 H  s               0.2       0.1       0.2       3.2       4.0       6.2
19 H  s               0.7       0.1       0.3       5.1      10.6       1.1

                     36        37        38        39        40        41   
                   0.07682   0.08874   0.09241   0.09437   0.10435   0.12097
                   0.00000   0.00000   0.00000   0.00000   0.00000   0.00000
                  --------  --------  --------  --------  --------  --------
 0 C  s               0.3       7.2       3.4       0.1       1.4       0.3
 0 C  pz              4.9       1.1       0.8       0.5       0.3       0.2
 0 C  px              0.6       0.4       0.5       0.1       0.1       0.1
 0 C  py              0.8       1.1       2.0       2.7       0.2       0.1
 0 C  dz2             0.2       0.1       0.0       0.0       0.0       0.0
 0 C  dxz             0.2       0.0       0.0       0.0       0.2       0.2
 0 C  dyz             0.0       0.1       0.0       0.1       0.0       0.0
 0 C  dx2y2           0.0       0.0       0.2       0.0       0.0       0.0
 0 C  dxy             0.0       0.0       0.2       0.1       0.0       0.0
 1 C  s               0.1       0.0       3.0       0.0       1.8       1.4
 1 C  pz              5.5       0.1       0.0       0.1       2.9       4.1
 1 C  px              0.9       0.8       0.5       0.2       0.1       0.2
 1 C  py              1.0       2.2       2.4       0.0       0.3       0.0
 1 C  dz2             0.6       0.0       0.0       0.1       0.1       0.1
 1 C  dxz             0.1       0.0       0.0       0.0       0.1       0.0
 1 C  dyz             0.1       0.4       0.0       0.0       0.1       0.1
 1 C  dx2y2           0.1       0.7       0.1       0.0       0.1       0.0
 1 C  dxy             0.1       0.0       0.3       0.2       0.0       0.0
 2 C  s               0.1       7.9       0.2       0.0       0.2       0.1
 2 C  pz              6.6       1.2       0.8       0.5       0.6       2.3
 2 C  px              0.3       1.8       0.7       2.5       0.2       0.4
 2 C  py              1.4       0.6       0.0       0.9       0.3       0.5
 2 C  dz2             0.5       0.1       0.1       0.0       0.1       0.1
 2 C  dxz             0.0       0.1       0.0       0.2       0.0       0.0
 2 C  dyz             0.1       0.0       0.0       0.0       0.0       0.1
 2 C  dx2y2           0.0       0.2       0.2       0.1       0.1       0.2
 3 C  s               0.6       1.0       0.8       1.7       0.4       1.1
 3 C  pz              0.3       0.1       0.9       0.2       1.1       0.5
 3 C  px              0.1       0.8       0.3       0.1       0.0       0.1
 3 C  py              0.1       0.3       0.3       0.2       0.8       0.7
 3 C  dz2             0.0       0.0       0.2       0.0       0.3       0.0
 3 C  dxz             0.1       0.0       0.1       0.2       0.1       0.0
 3 C  dyz             0.0       0.2       0.0       0.3       0.1       0.0
 3 C  dx2y2           0.3       0.1       0.5       0.1       0.1       0.3
 4 O  s               0.3       0.3       0.0       0.4       0.4       0.1
 4 O  px              0.1       0.1       0.2       0.2       0.1       1.1
 4 O  py              0.0       0.0       0.0       0.1       0.0       0.1
 5 O  s               0.2       0.3       6.2       0.2       1.2       1.3
 5 O  pz              0.4       0.1       0.8       0.0       0.6       0.1
 5 O  px              0.0       0.1       3.7       0.0       1.6       0.1
 5 O  py              0.0       0.1       0.1       0.0       0.2       0.0
 5 O  dz2             0.0       0.0       0.1       0.0       0.1       0.0
 5 O  dxz             0.0       0.0       0.0       0.1       0.0       0.2
 5 O  dx2y2           0.0       0.0       0.3       0.0       0.3       0.1
 6 C  s               0.1       2.8       2.3       1.7       6.7       0.7
 6 C  pz              0.8       2.6       0.7       5.9       1.5       3.2
 6 C  px              0.3       1.3      17.7       0.3       1.0       2.2
 6 C  py              0.6       0.0       0.9       3.1       0.0       2.1
 6 C  dz2             0.0       0.1       0.8       0.3       0.0       0.1
 6 C  dxz             0.0       0.0       0.2       0.0       0.1       0.3
 6 C  dyz             0.0       0.1       0.2       0.0       0.0       0.1
 6 C  dx2y2           0.2       0.0       1.8       0.8       0.4       0.3
 6 C  dxy             0.0       0.0       0.0       0.0       0.2       0.1
 7 C  s               0.3       0.9       2.2       1.4       5.0       0.0
 7 C  pz              1.6       0.8       0.6       4.7       0.3       0.9
 7 C  px              0.1       1.2       0.7       0.8       7.2       6.9
 7 C  py              0.3       0.1       0.1       2.8       0.3       3.9
 7 C  dz2             0.0       0.1       0.2       0.2       0.1       0.4
 7 C  dxz             0.0       0.0       0.4       0.0       0.3       0.1
 7 C  dyz             0.0       0.1       0.0       0.0       0.2       0.3
 7 C  dx2y2           0.1       0.0       0.3       0.9       0.2       0.1
 7 C  dxy             0.0       0.0       0.2       0.0       0.0       0.0
 8 H  s               4.8       3.1       7.7       3.9       1.4       0.7
 9 H  s               0.0      14.4       0.7       3.3       0.1       0.7
10 H  s              11.3       0.4       7.1       1.2       2.5       0.0
11 H  s              12.8       0.1       1.5       0.2      10.5      12.8
12 H  s               8.0       0.8      11.1       0.2       0.1       0.2
13 H  s              10.9      12.2       1.1       1.0       2.1       3.1
14 H  s              10.4       6.6       0.1       6.0       0.4       2.7
15 H  s               3.0       0.2       2.4      21.8       1.4      13.1
16 H  s               0.7      15.6       0.4       3.2      10.7       1.2
17 H  s               1.7       0.3       0.3      20.6       0.5      12.1
18 H  s               3.2       6.4       6.0       1.6       0.2       0.1
19 H  s               1.3       0.2       2.0       1.0      29.7      14.9

                     42        43        44        45        46        47   
                   0.12367   0.13259   0.14032   0.14634   0.16682   0.19358
                   0.00000   0.00000   0.00000   0.00000   0.00000   0.00000
                  --------  --------  --------  --------  --------  --------
 0 C  s               0.0       0.4       0.1       0.0       0.2       2.2
 0 C  pz              2.4       4.6       9.7       0.0       1.2       0.9
 0 C  px              0.6       0.7       1.2       0.2       1.9      15.3
 0 C  py             11.7       0.1       4.6       0.1       1.3       3.3
 0 C  dz2             0.3       0.2       0.7       0.0       0.0       0.5
 0 C  dxz             0.0       0.0       0.0       0.2       0.2       0.5
 0 C  dyz             0.5       0.0       0.2       0.1       0.0       0.3
 0 C  dx2y2           0.2       0.2       0.0       0.2       0.0       3.3
 0 C  dxy             0.3       0.0       0.2       0.0       0.0       0.4
 1 C  s               4.0       0.4       0.1       0.0       0.7       7.1
 1 C  pz              0.1       0.6       0.9       6.0       0.4       4.2
 1 C  px              3.4       0.0       0.2       0.7       5.9       8.9
 1 C  py              0.1       1.5       0.0       3.3       2.2       1.9
 1 C  dz2             0.0       0.0       0.0       0.2       0.0       1.1
 1 C  dxz             0.6       0.1       0.5       0.1       0.3       0.7
 1 C  dyz             0.0       0.2       0.3       0.0       0.0       0.7
 1 C  dx2y2           0.4       0.0       0.6       0.1       0.7       0.2
 1 C  dxy             0.3       0.0       0.0       0.1       0.0       0.2
 2 C  s               4.5       0.6       0.1       0.0       0.3       0.1
 2 C  pz              0.6       0.3       3.7       3.0       2.3       0.4
 2 C  px              0.6       1.1       2.1       1.8       1.9       8.7
 2 C  py              1.1       0.2       1.5       0.7       5.5       1.9
[...]
 2 C  pz              0.1       0.1       0.0       0.1       0.0       0.0
 2 C  px              1.0       1.3       0.0       0.1       0.1       0.2
 2 C  py              1.0       0.6       0.0       0.1       0.0       0.0
 2 C  dz2             0.1       0.0       0.3       0.3       0.6       0.5
 2 C  dxz             2.5       1.9       0.2       2.2       0.7       0.0
 2 C  dyz             1.4       1.7       0.0       0.6       0.0       0.0
 2 C  dx2y2           5.7       8.7       0.1       0.0       0.0       1.1
 2 C  dxy             3.8       0.3       0.5       1.0       1.0       0.1
 3 C  s               1.2       0.9       0.0       0.2       0.1       1.0
 3 C  pz              0.1       0.2       0.0       0.3       0.2       1.8
 3 C  px              0.4       1.2       0.0       0.3       0.0       0.9
 3 C  py              0.2       0.2       0.0       0.0       0.9       0.5
 3 C  dz2             0.2       0.0       0.3       3.8       0.0       0.4
 3 C  dxz             0.0       0.2       0.5       2.5       4.3       2.8
 3 C  dyz             0.0       1.9       0.1       0.2       0.0       1.2
 3 C  dx2y2           0.0       2.5       0.4       4.0       0.8       1.1
 3 C  dxy             0.6       0.0       1.0       3.1       7.6       0.6
 4 O  s               0.0       0.0       0.0       1.3       0.0       0.3
 4 O  pz              0.1       0.0       0.0       0.3       0.1       0.1
 4 O  px              0.0       0.0       0.0       0.4       0.0       0.6
 4 O  py              0.0       0.0       0.0       0.1       0.2       0.1
 4 O  dz2             0.1       3.2       1.9       1.0      10.5       1.9
 4 O  dxz             0.2       1.1       0.8       7.8       0.8      17.2
 4 O  dyz             6.1       8.6       0.7       1.3       3.7       0.0
 4 O  dx2y2          15.3      34.6       0.2       6.9       7.2       0.4
 4 O  dxy            12.7       2.2       5.1       0.3       2.9       6.9
 5 O  s               0.0       0.1       0.0       0.5       0.0       7.5
 5 O  pz              0.2       0.3       0.2       0.7       0.1       0.8
 5 O  px              0.0       0.0       0.0       1.9       0.2       0.1
 5 O  py              0.0       0.2       0.9       0.0       0.4       0.2
 5 O  dz2             4.1       0.6      14.7      12.1      13.2       0.2
 5 O  dxz             0.0       1.3       4.7      13.3       8.0       4.3
 5 O  dyz             0.4       8.3      11.1      15.9      11.2      11.7
 5 O  dx2y2           0.7       0.2       1.2       5.6       7.6      27.6
 5 O  dxy             0.1       0.1      32.7       3.6      13.8       2.2
 6 C  s               0.2       0.2       0.1       0.5       0.0       0.5
 6 C  pz              0.2       0.1       0.1       0.0       0.0       0.1
 6 C  px              0.1       0.1       0.2       0.7       0.1       0.7
 6 C  py              0.0       0.0       0.2       0.1       0.0       0.0
 6 C  dz2             0.2       0.0       0.1       1.0       0.6       0.2
 6 C  dxz             0.8       0.4       3.3       0.9       0.1       1.4
 6 C  dyz             0.1       0.1       0.9       0.0       0.5       0.1
 6 C  dx2y2           0.1       0.5       0.3       3.2       0.0       1.7
 6 C  dxy             0.0       0.3      11.3       0.8       0.7       0.0
 7 C  py              0.0       0.0       0.2       0.0       0.0       0.0
 7 C  dz2             0.0       0.0       0.1       0.0       0.0       0.0
 7 C  dxz             0.0       0.1       0.3       0.2       0.0       0.1
 7 C  dyz             0.1       0.0       1.4       0.0       0.0       0.0
 7 C  dx2y2           0.1       0.0       2.3       0.0       0.3       0.0
 7 C  dxy             0.0       0.2       0.2       0.1       0.0       0.1
 9 H  s               0.1       0.0       0.0       0.0       0.0       0.0
16 H  s               0.1       0.1       0.0       0.0       0.0       0.0
19 H  s               0.0       0.0       0.2       0.0       0.0       0.0

                    132       133       134       135   
                   3.12451   3.32334   3.48723   3.56278
                   0.00000   0.00000   0.00000   0.00000
                  --------  --------  --------  --------
 2 C  s               0.0       0.3       0.1       0.1
 2 C  px              0.0       0.1       0.4       0.1
 2 C  dz2             0.0       0.0       0.6       0.0
 2 C  dxz             0.1       0.4       0.0       0.4
 2 C  dx2y2           0.1       0.1       1.0       0.0
 2 C  dxy             0.6       0.2       0.0       0.1
 3 C  s               0.0       3.5       0.1       6.5
 3 C  pz              0.0       0.1       3.1       2.4
 3 C  px              0.0       1.6       0.3       0.7
 3 C  py              0.4       0.0       1.0       0.7
 3 C  dz2            10.1       2.6       0.3       5.8
 3 C  dxz             0.0       0.1      13.7       0.3
 3 C  dyz             5.2       0.4       0.5       5.9
 3 C  dx2y2           4.7       3.9       0.3       1.4
 3 C  dxy             0.1       0.0       4.5       0.1
 4 O  s               0.0       1.7       1.1       4.0
 4 O  pz              0.3       0.6       0.8       1.9
 4 O  px              0.0       0.1       0.2       0.8
 4 O  py              0.7       0.2       0.3       0.6
 4 O  dz2            27.9       6.9      11.0      10.0
 4 O  dxz             2.2       1.3       3.5      19.7
 4 O  dyz            15.8      10.0      10.4      16.1
 4 O  dx2y2           7.7       1.0       3.9       0.0
 4 O  dxy             3.8       0.4       0.9       5.8
 5 O  s               0.4       0.1       0.6       0.6
 5 O  pz              0.0       0.3       0.5       0.1
 5 O  px              0.0       2.1       2.9       0.3
 5 O  py              0.1       0.3       0.3       0.0
 5 O  dz2             1.1      16.6       0.4       3.0
 5 O  dxz             2.9       9.0      24.5       3.0
 5 O  dyz             1.3       6.4       3.2       0.0
 5 O  dx2y2           0.1      20.2       0.0       6.8
 5 O  dxy            12.1       0.5       7.2       1.7
 6 C  s               0.0       0.8       0.3       0.0
 6 C  pz              0.0       0.2       0.0       0.0
 6 C  px              0.1       1.6       0.4       0.1
 6 C  dz2             0.2       0.8       0.4       0.0
 6 C  dxz             0.1       1.2       0.1       0.5
 6 C  dyz             0.2       0.0       0.0       0.0
 6 C  dx2y2           0.0       3.8       0.6       0.1
 6 C  dxy             0.9       0.1       0.1       0.1
 7 C  dxy             0.0       0.1       0.0       0.0


                      *****************************
                      * MAYER POPULATION ANALYSIS *
                      *****************************

  NA   - Mulliken gross atomic population
  ZA   - Total nuclear charge
  QA   - Mulliken gross atomic charge
  VA   - Mayer's total valence
  BVA  - Mayer's bonded valence
  FA   - Mayer's free valence

  ATOM       NA         ZA         QA         VA         BVA        FA
  0 C      6.2416     6.0000    -0.2416     4.0051     4.0051     0.0000
  1 C      6.2433     6.0000    -0.2433     4.1989     4.1989    -0.0000
  2 C      6.1142     6.0000    -0.1142     3.9345     3.9345    -0.0000
  3 C      5.8866     6.0000     0.1134     4.4022     4.4022    -0.0000
  4 O      8.2139     8.0000    -0.2139     2.2787     2.2787     0.0000
  5 O      8.2428     8.0000    -0.2428     2.2548     2.2548     0.0000
  6 C      6.0119     6.0000    -0.0119     4.0547     4.0547     0.0000
  7 C      6.3042     6.0000    -0.3042     4.0148     4.0148     0.0000
  8 H      0.8985     1.0000     0.1015     0.9577     0.9577    -0.0000
  9 H      0.8929     1.0000     0.1071     0.9503     0.9503    -0.0000
 10 H      0.9009     1.0000     0.0991     0.9581     0.9581     0.0000
 11 H      0.8965     1.0000     0.1035     0.9456     0.9456     0.0000
 12 H      0.9027     1.0000     0.0973     0.9481     0.9481     0.0000
 13 H      0.9064     1.0000     0.0936     0.9666     0.9666    -0.0000
 14 H      0.9017     1.0000     0.0983     0.9698     0.9698     0.0000
 15 H      0.8922     1.0000     0.1078     0.9796     0.9796     0.0000
 16 H      0.8993     1.0000     0.1007     0.9502     0.9502     0.0000
 17 H      0.8876     1.0000     0.1124     0.9568     0.9568    -0.0000
 18 H      0.8747     1.0000     0.1253     0.9672     0.9672     0.0000
 19 H      0.8881     1.0000     0.1119     0.9549     0.9549    -0.0000

  Mayer bond orders larger than 0.100000
B(  0-C ,  1-C ) :   1.1577 B(  0-C ,  8-H ) :   0.9534 B(  0-C ,  9-H ) :   0.9516 
B(  0-C , 10-H ) :   0.9532 B(  1-C ,  2-C ) :   1.1293 B(  1-C , 11-H ) :   0.9266 
B(  1-C , 12-H ) :   0.9261 B(  2-C ,  3-C ) :   1.0259 B(  2-C , 13-H ) :   0.8994 
B(  2-C , 14-H ) :   0.9030 B(  3-C ,  4-O ) :   2.0428 B(  3-C ,  5-O ) :   1.2052 
B(  5-O ,  6-C ) :   0.9226 B(  6-C ,  7-C ) :   1.1737 B(  6-C , 15-H ) :   0.9122 
B(  6-C , 16-H ) :   0.9372 B(  7-C , 17-H ) :   0.9492 B(  7-C , 18-H ) :   0.9460 
B(  7-C , 19-H ) :   0.9446 

-------
TIMINGS
-------

Total SCF time: 0 days 0 hours 0 min 8 sec 

Total time                  ....       8.268 sec
Sum of individual times     ....       7.804 sec  ( 94.4%)

SCF preparation             ....       0.177 sec  (  2.1%)
Fock matrix formation       ....       6.755 sec  ( 81.7%)
  Startup                   ....       0.061 sec  (  0.9% of F)
  Split-RI-J                ....       2.340 sec  ( 34.6% of F)
  XC integration            ....       3.848 sec  ( 57.0% of F)
    XC Preparation          ....       0.000 sec  (  0.0% of XC)
    Basis function eval.    ....       1.330 sec  ( 34.6% of XC)
    Density eval.           ....       0.457 sec  ( 11.9% of XC)
    XC-Functional eval.     ....       0.352 sec  (  9.2% of XC)
    XC-Potential eval.      ....       0.715 sec  ( 18.6% of XC)
Diagonalization             ....       0.000 sec  (  0.0%)
Density matrix formation    ....       0.186 sec  (  2.3%)
Total Energy calculation    ....       0.037 sec  (  0.5%)
Population analysis         ....       0.079 sec  (  1.0%)
Orbital Transformation      ....       0.052 sec  (  0.6%)
Orbital Orthonormalization  ....       0.000 sec  (  0.0%)
DIIS solution               ....       0.350 sec  (  4.2%)
  MO trafo                  ....       0.000 sec  (  0.0 % of DIIS)
  Orb grad                  ....       0.000 sec  (  0.0 % of DIIS)
  Energy W gradient         ....       0.000 sec  (  0.0 % of DIIS)
  DIIS error                ....       0.006 sec  (  1.8 % of DIIS)
  DIIS work                 ....       0.300 sec  ( 85.7 % of DIIS)
  Form Q                    ....       0.000 sec  (  0.0 % of DIIS)
  Form QpQm                 ....       0.000 sec  (  0.0 % of DIIS)
  Exp/Cayley                ....       0.000 sec  (  0.0 % of DIIS)
  Orb update                ....       0.000 sec  (  0.0 % of DIIS)
  Wake-sleep                ....       0.018 sec  (  5.2 % of DIIS)
SOSCF solution              ....       0.167 sec  (  2.0%)
  MO trafo                  ....       0.057 sec  ( 34.4 % of SOSCF)
  Orb grad                  ....       0.003 sec  (  1.6 % of SOSCF)
  Rot update                ....       0.068 sec  ( 40.7 % of SOSCF)
  Step                      ....       0.039 sec  ( 23.2 % of SOSCF)
Finished LeanSCF after   8.4 sec

Maximum memory used throughout the entire LEANSCF-calculation: 12.7 MB


-------------------------------------------------------------------------------
                          DFT DISPERSION CORRECTION                            
                                                                               
                                DFTD4 V3.4.0                                   
-------------------------------------------------------------------------------
The PBE functional is recognized
Active option DFTDOPT                   ...         5   

-------------------------   ----------------
Dispersion correction           -0.014845453
-------------------------   ----------------

------------------   -----------------
gCP correction             0.089709578
------------------   -----------------

-------------------------   --------------------
FINAL SINGLE POINT ENERGY      -385.457792576713
-------------------------   --------------------


------------------------------------------------------------------------------
                              ORCA PROPERTY CALCULATIONS
------------------------------------------------------------------------------

GBWName                                 ... sp.gbw
Number of atoms                         ...     20
Number of basis functions               ...    136
Max core memory                         ...   1024 MB

Electric properties:
Dipole moment                           ... YES
Quadrupole moment                       ...  NO
Static polarizability (Dipole/Dipole)   ...  NO
Static polarizability (Dipole/Quad.)    ...  NO
Static polarizability (Quad./Quad.)     ...  NO
Static polarizability (Velocity)        ...  NO

Atomic electric properties:
Dipole moment                           ...  NO
Quadrupole moment                       ...  NO
Static polarizability                   ...  NO

Choice of electric origin               ... Center of mass
Position of electric origin             ...    -0.000014    -0.000020     0.000004

General magnetic properties:
Magnetizability                         ...  NO

EPR properties:
g-Tensor (aka g-matrix)                 ...  NO
Zero-Field splitting spin-orbit         ...  NO
Zero-field splitting spin-spin          ...  NO
Hyperfine couplings                     ...  NO (   0 nuclei)
Quadrupole couplings                    ...  NO (   0 nuclei)
Contact density                         ...  NO (   0 nuclei)

NMR properties:
Chemical shifts                         ...  NO (   0 nuclei)
Spin-rotation constants                 ...  NO (   0 nuclei)
Spin-spin couplings                     ...  NO (   0 nuclei,    0 pairs)

Choice of magnetic origin               ... GIAO
Position of magnetic origin             ...     0.000000     0.000000     0.000000

Properties with geometric perturbations:
SCF Hessian                             ...  NO
IR spectrum                             ...  NO
VCD spectrum                            ...  NO
X-ray spectroscopy properties:
SCF XES/XAS/RIXS spectra                ...  NO


-------------
DIPOLE MOMENT
-------------

Method             : SCF
Type of density    : Electron Density
Multiplicity       :   1
Irrep              :   0
Energy             :  -385.5326567020985635 Eh
Relativity type    : 
Basis              : AO
                                X                 Y                 Z
Electronic contribution:      3.485312374       5.495057649      -0.302997572
Nuclear contribution   :     -3.385784754      -6.013737515       0.828207617
                        -----------------------------------------
Total Dipole Moment    :      0.099527620      -0.518679866       0.525210045
                        -----------------------------------------
Magnitude (a.u.)       :      0.744835648
Magnitude (Debye)      :      1.893221760



--------------------
Rotational spectrum 
--------------------
 
Rotational constants in cm-1:             0.131092             0.033359             0.030755 
Rotational constants in MHz :          3930.042160          1000.062911           922.001086 

Dipole components along the rotational axes: 
x,y,z [a.u.] :    -0.019698     0.643406    -0.374728 
x,y,z [Debye]:    -0.050068     1.635407    -0.952483 

 

Dipole moment calculation done in   0.0 sec 

Maximum memory used throughout the entire PROP-calculation: 8.0 MB

--------------------------------
SUGGESTED CITATIONS FOR THIS RUN
--------------------------------

Below you find a list of papers that are relevant to this ORCA run
We neither can nor want to force you to cite these papers, but we appreciate if you do
You receive ORCA, which is the product of decades of hard work by many enthusiastic individuals, for free
The only thing we kindly ask in return is that you cite our papers,
We deeply appreciate it, if you show your appreciation for ORCA by not just citing the generic ORCA reference.

Please note that relegating all ORCA citations to the supporting information does *not* help us.
SI sections are not indexed - citations you put there will not count into any citation statistics
But we need these citations in order to attract the funding resources that allow us to do what we are doing

Therefore, if you are a happy ORCA user, please consider citing a few of the papers listed below in the main body of your paper

In addition to the list printed below, the program has created the file sp.bibtex that contains the list in bibtex format
You can import this file easily into all common literature databanks and citation aid programs


List of essential papers. We consider these as the minimum necessary citations

  1. Neese,F.
     Software update: the ORCA program system, version 5.0
     WIRES Comput. Molec. Sci., 2022 12(1)e1606
     doi.org/10.1002/wcms.1606

List of papers to cite with high priority. The work reported in these papers was absolutely
necessary for this run to complete.
Our perspective: the developers of density functionals and basis sets usually get cited in chemistry papers
Good! But without the algorithms to do something with them, the functionals or basis sets would not do anything.
Hence, in our opinion, the algorithm design and method developments papers are equally worthy of getting cited

  1. Neese,F.
     An improvement of the resolution of the identity approximation for the formation of the Coulomb matrix
     J. Comp. Chem., 2003 24(14)1740-1747
     doi.org/10.1002/jcc.10318
  2. Neese,F.
     The SHARK Integral Generation and Digestion System
     J. Comp. Chem., 2022  1-16
     doi.org/10.1002/jcc.26942
  3. Caldeweyher,E.; Bannwarth,C.; Grimme,S.
     Extension of the D3 dispersion coefficient model
     J. Chem. Phys., 2017 147 034112-XXXX
     doi.org/10.1063/1.4993215
  4. Caldeweyher,E.; Ehlert,S.; Hansen,A.; Neugebauer,H.; Spicher,S.; Bannwarth,C.; Grimme,S.
     A generally applicable atomic-charge dependent London dispersion correction
     J. Chem. Phys., 2019 150 154122-XXXX
     doi.org/10.1063/1.5090222
  5. Caldeweyher,E.; Mewes,J.; Ehlert,S.; Grimme,S.
     Extension and evaluation of the D4 London-dispersion model for periodic systems
     Phys. Chem. Chem. Phys., 2020 22(16)8499-8512
     doi.org/10.1039/D0CP00502A

List of suggested additional citations. These are papers that are important in the 'surrounding' of 
of this run, or papers that preceded the highly important papers. If you like your results we are grateful for a citation.

  1. Neese,F.
     The ORCA program system
     WIRES Comput. Molec. Sci., 2012 2(1)73-78
     doi.org/10.1002/wcms.81
  2. Neese,F.
     Software update: the ORCA program system, version 4.0
     WIRES Comput. Molec. Sci., 2018 8(1)1-6
     doi.org/10.1002/wcms.1327
  3. Neese,F.; Wennmohs,F.; Becker,U.; Riplinger,C.
     The ORCA quantum chemistry program package
     J. Chem. Phys., 2020 152 Art. No. L224108
     doi.org/10.1063/5.0004608

List of optional additional citations

  1. Neese,F.
     Approximate second-order SCF convergence for spin unrestricted wavefunctions
     Chem. Phys. Lett., 2000 325(1-3)93-98
     doi.org/10.1016/s0009-2614(00)00662-x

Timings for individual modules:

Sum of individual times          ...       10.054 sec (=   0.168 min)
Startup calculation              ...        0.768 sec (=   0.013 min)   7.6 %
SCF iterations                   ...        9.173 sec (=   0.153 min)  91.2 %
Property calculations            ...        0.113 sec (=   0.002 min)   1.1 %
                             ****ORCA TERMINATED NORMALLY****
TOTAL RUN TIME: 0 days 0 hours 0 minutes 10 seconds 781 msec
