 Entering Gaussian System
 *********************************************
 Gaussian 98:
 frequency output generated by the xtb code
 *********************************************
                         Standard orientation:
 --------------------------------------------------------------------
  Center     Atomic     Atomic              Coordinates (Angstroms)
  Number     Number      Type              X           Y           Z
 --------------------------------------------------------------------
    1          6             0       -2.806100   -1.123484   -0.112295
    2          6             0       -2.520938    0.372195   -0.047056
    3          6             0       -1.220995    0.666140    0.701918
    4          6             0       -0.008896    0.212961   -0.071566
    5          8             0        0.099355    0.234748   -1.279294
    6          8             0        0.950368   -0.211993    0.744601
    7          6             0        2.202726   -0.625766    0.173066
    8          6             0        3.129005    0.561710   -0.040195
    9          1             0       -2.007673   -1.636649   -0.644793
   10          1             0       -2.880761   -1.543595    0.887979
   11          1             0       -3.739753   -1.308756   -0.636436
   12          1             0       -3.343228    0.880151    0.457306
   13          1             0       -2.437743    0.770905   -1.059729
   14          1             0       -1.205172    0.186893    1.680509
   15          1             0       -1.113352    1.743823    0.845487
   16          1             0        2.616248   -1.327252    0.898108
   17          1             0        2.002481   -1.132868   -0.775783
   18          1             0        3.275790    1.094472    0.895436
   19          1             0        4.087377    0.209038   -0.406971
   20          1             0        2.699615    1.241972   -0.772449
 --------------------------------------------------------------------
     1 basis functions        1 primitive gaussians
     1 alpha electrons        1 beta electrons
 
 Harmonic frequencies (cm**-1), IR intensities (km*mol⁻¹),
 Raman scattering activities (A**4/amu), Raman depolarization ratios,
 reduced masses (AMU), force constants (mDyne/A) and normal coordinates:
                      1                      2                      3
                        a                      a                      a 
 Frequencies --    13.2677                49.3379                82.1507
 Red. masses --    10.5255                 9.5894                 9.9728
 Frc consts  --     0.0000                 0.0000                 0.0000
 IR Inten    --     1.7542                 2.0533                 0.8649
 Raman Activ --     0.0000                 0.0000                 0.0000
 Depolar     --     0.0000                 0.0000                 0.0000
 Atom AN      X      Y      Z        X      Y      Z        X      Y      Z
   1   6    -0.25   0.23  -0.32    -0.24   0.08   0.20    -0.33   0.05   0.29
   2   6     0.02   0.16   0.02    -0.03   0.05   0.04     0.09  -0.01  -0.19
   3   6     0.04  -0.23   0.14     0.05  -0.06  -0.06     0.05  -0.12  -0.07
   4   6     0.02  -0.21   0.11    -0.02  -0.12  -0.14     0.10  -0.06  -0.02
   5   8    -0.07  -0.44   0.12    -0.16  -0.28  -0.18     0.31   0.28  -0.00
   6   8     0.16   0.05   0.13     0.08   0.02  -0.21    -0.03  -0.37  -0.01
   7   6     0.15   0.13   0.08     0.10   0.12  -0.20     0.09  -0.03   0.03
   8   6    -0.04   0.23  -0.22     0.23   0.14   0.48    -0.23   0.21  -0.05
   9   1    -0.09   0.06  -0.11    -0.10  -0.02   0.06    -0.09  -0.11   0.21
  10   1    -0.11   0.01  -0.12    -0.07   0.05   0.07    -0.22   0.13   0.12
  11   1    -0.07   0.15  -0.12    -0.08   0.05   0.07    -0.07   0.04   0.03
  12   1     0.03   0.06   0.02     0.02   0.06   0.01     0.04   0.11  -0.15
  13   1     0.04   0.10   0.03    -0.01  -0.02   0.00     0.11  -0.11  -0.09
  14   1    -0.02  -0.13   0.01     0.03  -0.02  -0.02    -0.01  -0.05  -0.03
  15   1     0.06  -0.08   0.12     0.04  -0.02  -0.02     0.02  -0.04   0.00
  16   1     0.09   0.09   0.05    -0.02  -0.07  -0.14     0.08   0.04   0.02
  17   1     0.04  -0.02   0.05     0.05   0.17  -0.13     0.07  -0.04   0.02
  18   1    -0.01   0.12  -0.10     0.04  -0.09   0.22    -0.12   0.10  -0.03
  19   1    -0.01   0.09  -0.07     0.07   0.07   0.13    -0.04   0.13  -0.00
  20   1    -0.06   0.01  -0.09     0.11   0.15   0.22    -0.12   0.01  -0.03
                      4                      5                      6
                        a                      a                      a 
 Frequencies --   116.9803               168.0958               207.2513
 Red. masses --     9.5611                 6.3235                 3.0221
 Frc consts  --     0.0000                 0.0000                 0.0000
 IR Inten    --     3.1222                 2.3650                 3.2025
 Raman Activ --     0.0000                 0.0000                 0.0000
 Depolar     --     0.0000                 0.0000                 0.0000
 Atom AN      X      Y      Z        X      Y      Z        X      Y      Z
   1   6     0.31   0.10  -0.03    -0.26  -0.04   0.00    -0.15  -0.03  -0.01
   2   6     0.02   0.15   0.18    -0.19  -0.06   0.24    -0.08  -0.04  -0.02
   3   6     0.14   0.22  -0.08     0.02  -0.13  -0.10    -0.02   0.01  -0.13
   4   6    -0.00  -0.13  -0.08     0.04   0.03  -0.18     0.06  -0.01   0.02
   5   8     0.02  -0.21  -0.10     0.19   0.18  -0.20     0.27  -0.01   0.04
   6   8    -0.14  -0.39  -0.06    -0.02   0.08  -0.10     0.01   0.03   0.13
   7   6    -0.00  -0.06   0.02     0.10   0.00   0.24    -0.03   0.02   0.03
   8   6    -0.36   0.23   0.12     0.13  -0.05   0.01    -0.02   0.01  -0.05
   9   1     0.05   0.12  -0.14    -0.21   0.04  -0.24    -0.19   0.01  -0.24
  10   1     0.24  -0.04  -0.02     0.16  -0.10  -0.02     0.22  -0.06  -0.00
  11   1     0.03   0.00   0.10    -0.20   0.05   0.21    -0.19   0.02   0.24
  12   1     0.02  -0.03   0.14    -0.00  -0.05   0.19    -0.00  -0.01   0.03
  13   1    -0.09   0.10   0.07    -0.17   0.05   0.09    -0.06  -0.01  -0.01
  14   1     0.06   0.14   0.01     0.06  -0.05  -0.04    -0.01   0.05  -0.02
  15   1     0.08   0.07  -0.12    -0.00  -0.04  -0.01    -0.01   0.01  -0.08
  16   1     0.04   0.01   0.01     0.00   0.08   0.16     0.01  -0.01  -0.02
  17   1     0.06  -0.03   0.00     0.09  -0.10   0.11    -0.04   0.03   0.00
  18   1    -0.19   0.08   0.04    -0.13   0.15  -0.07     0.36  -0.23   0.06
  19   1    -0.06   0.16   0.06     0.10  -0.06   0.22    -0.16   0.03  -0.45
  20   1    -0.15   0.03   0.02     0.14  -0.15  -0.18    -0.23   0.20   0.30
                      7                      8                      9
                        a                      a                      a 
 Frequencies --   252.6536               299.0391               352.4332
 Red. masses --     4.6230                 8.9767                 9.9048
 Frc consts  --     0.0000                 0.0000                 0.0000
 IR Inten    --     1.0001                18.6437                 7.9559
 Raman Activ --     0.0000                 0.0000                 0.0000
 Depolar     --     0.0000                 0.0000                 0.0000
 Atom AN      X      Y      Z        X      Y      Z        X      Y      Z
   1   6     0.01  -0.00   0.03     0.18   0.07   0.09    -0.13  -0.07  -0.10
   2   6     0.14  -0.01  -0.30     0.20   0.07  -0.16    -0.11  -0.06  -0.03
   3   6    -0.06   0.04   0.05     0.03  -0.17   0.14    -0.10   0.29  -0.06
   4   6    -0.01  -0.00   0.20    -0.08   0.00  -0.12    -0.07  -0.10   0.15
   5   8    -0.09  -0.02   0.23    -0.46   0.14  -0.17    -0.31   0.14   0.16
   6   8     0.08  -0.03   0.10    -0.08  -0.02  -0.20     0.03  -0.39  -0.05
   7   6    -0.05   0.01  -0.24     0.13  -0.05   0.31     0.31   0.06   0.08
   8   6    -0.00   0.01  -0.02     0.02  -0.01   0.05     0.33   0.07  -0.08
   9   1    -0.20  -0.01  -0.28    -0.02   0.01  -0.07    -0.03  -0.02  -0.02
  10   1     0.37   0.00   0.04     0.20   0.06   0.05    -0.07  -0.04  -0.04
  11   1    -0.19   0.01   0.35    -0.02  -0.01   0.17    -0.03   0.01  -0.06
  12   1     0.01   0.06  -0.20     0.03   0.07  -0.15    -0.04  -0.03  -0.01
  13   1     0.14  -0.08  -0.11     0.16  -0.03  -0.06    -0.05  -0.02  -0.01
  14   1    -0.08   0.02   0.02    -0.01  -0.18  -0.02    -0.06   0.29   0.08
  15   1    -0.03   0.01   0.01     0.03  -0.07   0.19    -0.04   0.12  -0.26
  16   1     0.00  -0.07  -0.15     0.01   0.10   0.21     0.11   0.07   0.07
  17   1    -0.07   0.09  -0.10     0.13  -0.14   0.14     0.16  -0.04   0.04
  18   1    -0.20   0.08  -0.02     0.14  -0.03   0.01     0.16   0.04  -0.04
  19   1     0.08  -0.01   0.22    -0.05   0.01  -0.14     0.06  -0.03  -0.06
  20   1     0.13  -0.06  -0.14    -0.10   0.01   0.09     0.09   0.02  -0.02
                     10                     11                     12
                        a                      a                      a 
 Frequencies --   380.5928               482.8301               576.4747
 Red. masses --     9.1811                10.2950                10.4323
 Frc consts  --     0.0000                 0.0000                 0.0000
 IR Inten    --     1.4345                 4.1323                16.3220
 Raman Activ --     0.0000                 0.0000                 0.0000
 Depolar     --     0.0000                 0.0000                 0.0000
 Atom AN      X      Y      Z        X      Y      Z        X      Y      Z
   1   6    -0.24  -0.16  -0.16    -0.03  -0.04  -0.04    -0.05  -0.06  -0.01
   2   6     0.32  -0.25   0.10     0.33  -0.11   0.11    -0.10  -0.02  -0.02
   3   6     0.25   0.21   0.09     0.19   0.04   0.13    -0.17   0.23   0.18
   4   6     0.14   0.21  -0.00    -0.10  -0.01  -0.10     0.09   0.60   0.02
   5   8    -0.23   0.00  -0.05     0.10  -0.07  -0.10     0.17  -0.34   0.01
   6   8     0.14   0.20  -0.06    -0.44  -0.21   0.08    -0.09  -0.24  -0.18
   7   6    -0.00  -0.20   0.03    -0.29   0.37   0.06     0.12  -0.05  -0.05
   8   6    -0.25  -0.04   0.09     0.16   0.05  -0.07     0.07   0.04  -0.01
   9   1    -0.15  -0.13  -0.08    -0.07  -0.07  -0.05    -0.02  -0.01  -0.01
  10   1    -0.15  -0.11  -0.08    -0.05  -0.06  -0.03    -0.00  -0.02  -0.00
  11   1    -0.10   0.15  -0.07    -0.04   0.12  -0.02    -0.02  -0.02   0.01
  12   1     0.08  -0.04  -0.01     0.07   0.00  -0.04    -0.07  -0.03  -0.05
  13   1     0.13  -0.08   0.03     0.17  -0.05   0.03    -0.01  -0.02  -0.01
  14   1     0.14   0.17   0.07     0.13   0.02   0.04    -0.00  -0.18  -0.07
  15   1    -0.03   0.09  -0.11     0.04   0.02   0.01    -0.22   0.04   0.34
  16   1    -0.02  -0.04   0.03    -0.06   0.07  -0.03     0.02   0.04   0.04
  17   1    -0.01  -0.08   0.02    -0.07   0.14  -0.00     0.10  -0.07   0.00
  18   1    -0.13  -0.03   0.05     0.17   0.05  -0.06     0.02  -0.00   0.00
  19   1    -0.04   0.10   0.01    -0.03  -0.21  -0.00     0.02   0.02  -0.01
  20   1    -0.15  -0.03   0.06     0.19   0.05  -0.07     0.01   0.02   0.01
                     13                     14                     15
                        a                      a                      a 
 Frequencies --   659.0215               798.5395               826.4897
 Red. masses --    10.4628                 4.1420                 3.8021
 Frc consts  --     0.0000                 0.0000                 0.0000
 IR Inten    --     8.8043                22.5537                13.6882
 Raman Activ --     0.0000                 0.0000                 0.0000
 Depolar     --     0.0000                 0.0000                 0.0000
 Atom AN      X      Y      Z        X      Y      Z        X      Y      Z
   1   6    -0.01  -0.01   0.01     0.05   0.00  -0.03     0.06  -0.04  -0.05
   2   6    -0.00   0.00  -0.11     0.20  -0.03  -0.14     0.17  -0.02  -0.12
   3   6     0.21  -0.09  -0.37     0.05  -0.01  -0.09    -0.07   0.18   0.09
   4   6     0.34   0.28   0.02    -0.10  -0.04   0.13    -0.21  -0.14  -0.03
   5   8    -0.39   0.01  -0.04     0.04  -0.01   0.23     0.08   0.02   0.00
   6   8     0.03  -0.21   0.36    -0.03   0.04  -0.19    -0.08   0.08  -0.07
   7   6    -0.07   0.07   0.09    -0.12   0.07  -0.17     0.15  -0.10   0.13
   8   6    -0.00   0.02  -0.01    -0.05  -0.01  -0.04     0.09   0.00   0.06
   9   1    -0.00  -0.05   0.05    -0.09  -0.24   0.07    -0.12  -0.29   0.06
  10   1    -0.02   0.07   0.03    -0.05   0.20   0.07    -0.06   0.19   0.07
  11   1    -0.00  -0.03   0.01    -0.04   0.07   0.07    -0.06   0.10   0.08
  12   1     0.09  -0.08   0.21     0.10  -0.23   0.26     0.01  -0.26   0.17
  13   1    -0.24   0.09  -0.01    -0.21   0.22   0.04    -0.15   0.21   0.04
  14   1     0.03  -0.16  -0.17    -0.08  -0.04  -0.04    -0.09  -0.06  -0.03
  15   1    -0.01  -0.04   0.08     0.02  -0.01   0.02     0.01   0.03   0.14
  16   1     0.04  -0.08  -0.11     0.02   0.31   0.20    -0.11  -0.28  -0.14
  17   1    -0.10   0.13  -0.02     0.06  -0.31   0.11     0.02   0.27  -0.12
  18   1     0.04   0.05  -0.04    -0.08  -0.21   0.12     0.08   0.23  -0.13
  19   1    -0.02  -0.06   0.00     0.01  -0.05   0.08     0.01   0.10  -0.11
  20   1     0.03  -0.02  -0.04     0.17   0.19   0.07    -0.21  -0.22  -0.06
                     16                     17                     18
                        a                      a                      a 
 Frequencies --   878.0259               904.0917               916.7647
 Red. masses --     7.6602                 8.5380                 7.7676
 Frc consts  --     0.0000                 0.0000                 0.0000
 IR Inten    --    20.5712                12.5189                 0.6545
 Raman Activ --     0.0000                 0.0000                 0.0000
 Depolar     --     0.0000                 0.0000                 0.0000
 Atom AN      X      Y      Z        X      Y      Z        X      Y      Z
   1   6     0.00   0.17  -0.04     0.08   0.21  -0.03     0.09   0.13   0.17
   2   6     0.00  -0.07  -0.04     0.09  -0.11   0.04     0.18  -0.09   0.12
   3   6    -0.02  -0.39   0.04    -0.16  -0.28   0.04    -0.01  -0.11  -0.41
   4   6     0.12   0.26   0.13    -0.06   0.19  -0.10    -0.17   0.09   0.16
   5   8     0.03  -0.10   0.16    -0.01  -0.03  -0.15     0.00  -0.03   0.30
   6   8     0.08  -0.05  -0.37    -0.30   0.03   0.33    -0.22   0.07  -0.16
   7   6    -0.12   0.13   0.10     0.18  -0.21  -0.10     0.07  -0.08  -0.04
   8   6    -0.11  -0.04   0.11     0.22   0.07  -0.13     0.12   0.02   0.01
   9   1     0.04   0.04   0.06    -0.01  -0.04   0.04     0.01   0.16  -0.10
  10   1     0.06   0.18   0.05     0.02   0.18   0.05    -0.07  -0.28  -0.10
  11   1     0.00  -0.10   0.04    -0.01   0.05   0.05     0.06   0.28  -0.10
  12   1     0.05  -0.01   0.06     0.01  -0.07   0.03     0.15   0.12   0.05
  13   1     0.05   0.11   0.05     0.10   0.10   0.07    -0.07  -0.23  -0.06
  14   1     0.05   0.22   0.16     0.10   0.14   0.11    -0.07  -0.12  -0.15
  15   1    -0.14  -0.04  -0.35    -0.20  -0.02  -0.25     0.00  -0.05  -0.01
  16   1    -0.15  -0.05   0.01     0.07  -0.03  -0.02    -0.13  -0.05   0.04
  17   1     0.11   0.13  -0.06    -0.10  -0.10   0.03     0.07   0.01  -0.04
  18   1     0.12   0.15  -0.09    -0.13  -0.09   0.06    -0.00   0.07  -0.03
  19   1    -0.11  -0.15  -0.05     0.17   0.28   0.01     0.06   0.14  -0.05
  20   1    -0.07  -0.13  -0.06    -0.01   0.07   0.06    -0.10  -0.08   0.00
                     19                     20                     21
                        a                      a                      a 
 Frequencies --   962.9125              1050.3097              1070.8444
 Red. masses --     7.4751                 8.1916                 6.4698
 Frc consts  --     0.0000                 0.0000                 0.0000
 IR Inten    --     4.3502                18.9296                33.9336
 Raman Activ --     0.0000                 0.0000                 0.0000
 Depolar     --     0.0000                 0.0000                 0.0000
 Atom AN      X      Y      Z        X      Y      Z        X      Y      Z
   1   6     0.23   0.27   0.11     0.08  -0.02   0.05    -0.07   0.29  -0.09
   2   6     0.09  -0.18   0.10    -0.08   0.04  -0.04    -0.03  -0.32   0.06
   3   6    -0.38   0.01  -0.01    -0.05  -0.02   0.12     0.09   0.19  -0.14
   4   6     0.09  -0.06  -0.09     0.25  -0.02   0.01    -0.16  -0.21   0.00
   5   8    -0.01   0.02  -0.20    -0.01  -0.01  -0.07    -0.00   0.05   0.09
   6   8     0.28  -0.08   0.07     0.18  -0.12  -0.13     0.22  -0.05  -0.04
   7   6     0.01   0.10   0.04    -0.52  -0.10   0.15    -0.23  -0.04   0.08
   8   6    -0.19  -0.05   0.04     0.33   0.19  -0.09     0.11   0.08  -0.02
   9   1    -0.09  -0.06  -0.06    -0.05  -0.06  -0.03     0.07   0.14   0.05
  10   1    -0.10  -0.05  -0.04    -0.06  -0.07  -0.02     0.09   0.20   0.04
  11   1     0.01   0.44  -0.01    -0.00   0.15  -0.01     0.00  -0.14   0.02
  12   1    -0.07  -0.14  -0.03    -0.08  -0.06  -0.03    -0.01  -0.05  -0.03
  13   1    -0.02  -0.10   0.00    -0.07  -0.03  -0.03     0.08  -0.06   0.03
  14   1    -0.19  -0.00  -0.00    -0.22   0.06   0.07     0.39  -0.15  -0.13
  15   1    -0.24   0.01  -0.00     0.10  -0.01  -0.02    -0.42   0.05   0.15
  16   1     0.14   0.04  -0.05    -0.25  -0.05   0.09    -0.06  -0.02   0.02
  17   1     0.01   0.04   0.00    -0.17  -0.08   0.07    -0.04  -0.04   0.03
  18   1     0.05  -0.03   0.00    -0.06   0.05   0.00    -0.00   0.04  -0.01
  19   1    -0.11  -0.22   0.04     0.17   0.31  -0.04     0.04   0.07  -0.01
  20   1     0.09   0.03  -0.02    -0.05   0.04   0.04    -0.01   0.02   0.01
                     22                     23                     24
                        a                      a                      a 
 Frequencies --  1080.5095              1096.3546              1123.7498
 Red. masses --     4.2572                 7.5504                 9.6053
 Frc consts  --     0.0000                 0.0000                 0.0000
 IR Inten    --    15.1777                13.9248               139.1560
 Raman Activ --     0.0000                 0.0000                 0.0000
 Depolar     --     0.0000                 0.0000                 0.0000
 Atom AN      X      Y      Z        X      Y      Z        X      Y      Z
   1   6     0.24   0.01  -0.06     0.03  -0.03  -0.01     0.01  -0.33  -0.03
   2   6    -0.35   0.03   0.08    -0.03   0.04   0.02     0.20   0.37   0.21
   3   6     0.14  -0.07  -0.14     0.01  -0.03  -0.03    -0.25  -0.07  -0.26
   4   6    -0.06   0.10   0.03    -0.03   0.02   0.01    -0.31   0.13  -0.05
   5   8    -0.03  -0.01   0.14     0.00   0.00   0.02     0.02  -0.01   0.02
   6   8     0.01  -0.02   0.00    -0.04   0.11   0.03     0.32  -0.13  -0.00
   7   6     0.03   0.08  -0.04    -0.07  -0.56  -0.05    -0.13   0.02   0.15
   8   6    -0.01  -0.07   0.02    -0.02   0.49   0.07     0.02   0.01  -0.04
   9   1    -0.14  -0.29  -0.02    -0.02  -0.05  -0.00    -0.04  -0.18   0.01
  10   1    -0.10   0.12   0.02    -0.02   0.01   0.00    -0.02  -0.05   0.01
  11   1    -0.05   0.29   0.07    -0.01   0.03   0.01    -0.02  -0.05   0.03
  12   1    -0.36  -0.14  -0.27    -0.03   0.00  -0.03     0.09   0.20   0.01
  13   1     0.15  -0.04   0.02     0.03   0.01   0.01     0.25   0.20   0.11
  14   1     0.39  -0.05  -0.05     0.04  -0.00  -0.01     0.08  -0.03  -0.08
  15   1     0.28  -0.04  -0.03     0.06  -0.01  -0.02    -0.13  -0.01  -0.06
  16   1    -0.03   0.03   0.02     0.02  -0.12  -0.01     0.07  -0.03  -0.05
  17   1     0.04   0.00  -0.01     0.03  -0.13  -0.03    -0.07   0.02   0.03
  18   1    -0.02  -0.00  -0.00     0.31   0.18  -0.07    -0.04  -0.03   0.02
  19   1     0.01   0.03  -0.01    -0.15  -0.30   0.02     0.03   0.03   0.02
  20   1    -0.05  -0.05   0.01     0.28   0.16  -0.11     0.01   0.04   0.02
                     25                     26                     27
                        a                      a                      a 
 Frequencies --  1139.5016              1166.9237              1187.6452
 Red. masses --     7.6611                 8.2093                 5.5895
 Frc consts  --     0.0000                 0.0000                 0.0000
 IR Inten    --   200.1826               181.6109                31.5043
 Raman Activ --     0.0000                 0.0000                 0.0000
 Depolar     --     0.0000                 0.0000                 0.0000
 Atom AN      X      Y      Z        X      Y      Z        X      Y      Z
   1   6     0.00  -0.09  -0.10    -0.00   0.02  -0.11    -0.11   0.17  -0.18
   2   6     0.07   0.09   0.26    -0.00  -0.04   0.21     0.14  -0.28   0.26
   3   6    -0.17   0.07  -0.17    -0.05   0.06  -0.14    -0.15   0.06  -0.12
   4   6     0.43  -0.21   0.07     0.31  -0.11   0.10    -0.18   0.20  -0.05
   5   8    -0.06   0.03  -0.03    -0.02  -0.00   0.14     0.01  -0.02  -0.04
   6   8    -0.19   0.07   0.10    -0.23   0.09  -0.31     0.16  -0.07   0.08
   7   6    -0.02   0.04  -0.32     0.15  -0.04   0.33    -0.07   0.01  -0.03
   8   6     0.05  -0.03   0.16    -0.09   0.04  -0.25     0.02  -0.01   0.05
   9   1    -0.01  -0.11   0.04     0.00  -0.06   0.04     0.07   0.05   0.09
  10   1     0.02   0.10   0.03     0.03   0.14   0.04     0.11   0.24   0.05
  11   1    -0.03  -0.07   0.05    -0.03  -0.06   0.05    -0.02  -0.19   0.05
  12   1    -0.05   0.05  -0.08    -0.07   0.01  -0.08    -0.01  -0.05  -0.04
  13   1     0.24   0.09   0.11     0.14  -0.02   0.06     0.08  -0.16   0.03
  14   1    -0.13  -0.05  -0.08    -0.15  -0.05  -0.06    -0.31  -0.03  -0.05
  15   1    -0.18   0.01   0.05     0.01  -0.00   0.04     0.56  -0.04   0.02
  16   1    -0.23   0.15   0.17     0.04  -0.21  -0.11     0.04   0.04  -0.00
  17   1     0.18  -0.12  -0.04    -0.17   0.22   0.00     0.01  -0.05   0.01
  18   1     0.08   0.16  -0.07    -0.11  -0.24   0.10     0.02   0.05  -0.02
  19   1    -0.02   0.02  -0.08     0.04  -0.02   0.11    -0.01   0.01  -0.02
  20   1    -0.12  -0.16  -0.03     0.17   0.22   0.03    -0.03  -0.04  -0.01
                     28                     29                     30
                        a                      a                      a 
 Frequencies --  1248.5792              1253.0492              1307.7769
 Red. masses --     3.2210                 3.1103                 3.8373
 Frc consts  --     0.0000                 0.0000                 0.0000
 IR Inten    --     4.2186                28.3245                26.6419
 Raman Activ --     0.0000                 0.0000                 0.0000
 Depolar     --     0.0000                 0.0000                 0.0000
 Atom AN      X      Y      Z        X      Y      Z        X      Y      Z
   1   6    -0.17   0.03   0.23    -0.09   0.02   0.14    -0.03   0.02   0.02
   2   6     0.16  -0.04  -0.14     0.07  -0.02  -0.07    -0.01   0.07   0.07
   3   6    -0.17   0.03  -0.07    -0.06   0.02  -0.06     0.34  -0.07  -0.07
   4   6     0.03   0.01  -0.00     0.11  -0.03   0.04    -0.11   0.04  -0.03
   5   8    -0.02   0.00  -0.01    -0.01  -0.00   0.08     0.01  -0.00   0.03
   6   8     0.06  -0.03   0.09    -0.10   0.04  -0.20    -0.04   0.07   0.04
   7   6     0.04   0.01   0.03    -0.04  -0.00  -0.03    -0.25  -0.10   0.08
   8   6    -0.05   0.02  -0.13     0.08  -0.03   0.20     0.03  -0.09  -0.05
   9   1     0.06   0.26  -0.04     0.03   0.15  -0.03    -0.00   0.01   0.01
  10   1     0.03  -0.23  -0.04     0.02  -0.14  -0.02     0.00  -0.05  -0.01
  11   1     0.05  -0.03  -0.09     0.03  -0.02  -0.05     0.00  -0.05   0.00
  12   1    -0.19  -0.38  -0.05    -0.15  -0.24  -0.05    -0.22  -0.19  -0.14
  13   1     0.20   0.36   0.12     0.15   0.23   0.09     0.06   0.03   0.03
  14   1     0.14  -0.04  -0.04     0.05  -0.03  -0.04    -0.36   0.02   0.00
  15   1     0.20  -0.01  -0.01     0.07  -0.00  -0.01    -0.22   0.01  -0.01
  16   1    -0.34  -0.10   0.11     0.50   0.14  -0.16     0.36   0.07  -0.13
  17   1     0.23   0.08  -0.08    -0.45  -0.13   0.15     0.50   0.11  -0.16
  18   1    -0.05  -0.11   0.04     0.07   0.17  -0.06    -0.02   0.02  -0.03
  19   1     0.01  -0.02   0.04    -0.01   0.03  -0.07     0.06   0.11  -0.00
  20   1     0.07   0.10   0.01    -0.10  -0.15  -0.02     0.02   0.05   0.04
                     31                     32                     33
                        a                      a                      a 
 Frequencies --  1320.0988              1339.7676              1394.0448
 Red. masses --     4.6050                 4.9214                 3.1166
 Frc consts  --     0.0000                 0.0000                 0.0000
 IR Inten    --    44.9960                16.6440                 5.7828
 Raman Activ --     0.0000                 0.0000                 0.0000
 Depolar     --     0.0000                 0.0000                 0.0000
 Atom AN      X      Y      Z        X      Y      Z        X      Y      Z
   1   6    -0.05   0.03  -0.00    -0.11   0.04  -0.08     0.00   0.00   0.00
   2   6     0.05   0.13   0.10     0.36   0.35   0.12    -0.00  -0.00   0.00
   3   6     0.36  -0.08  -0.06    -0.23  -0.07   0.04     0.02  -0.00  -0.00
   4   6    -0.21   0.07  -0.03     0.10  -0.03   0.01    -0.03   0.01  -0.00
   5   8     0.02  -0.01  -0.01    -0.01   0.00   0.02     0.00  -0.00  -0.01
   6   8     0.09  -0.08   0.02    -0.02   0.01  -0.02     0.04  -0.03  -0.00
   7   6     0.24   0.09  -0.08    -0.04  -0.02   0.01     0.07  -0.02  -0.02
   8   6    -0.03   0.09   0.04     0.00  -0.01  -0.00    -0.30  -0.30   0.06
   9   1    -0.01  -0.01   0.02    -0.00  -0.06   0.06    -0.00   0.00  -0.00
  10   1     0.01  -0.05  -0.02     0.06  -0.04  -0.03    -0.00  -0.00  -0.00
  11   1    -0.00  -0.08   0.01     0.00  -0.20   0.01    -0.00   0.00  -0.00
  12   1    -0.26  -0.23  -0.15    -0.22  -0.28  -0.10    -0.00  -0.00  -0.00
  13   1    -0.00  -0.05  -0.01    -0.40  -0.40  -0.20     0.00   0.00   0.00
  14   1    -0.35   0.02   0.01     0.29  -0.02   0.01    -0.01   0.00   0.00
  15   1    -0.25   0.01  -0.02    -0.01  -0.01  -0.08    -0.01   0.00   0.01
  16   1    -0.33  -0.09   0.10     0.05   0.02  -0.01    -0.08   0.09   0.14
  17   1    -0.39  -0.11   0.14     0.04   0.02  -0.02    -0.16   0.11  -0.03
  18   1     0.01  -0.03   0.03     0.00   0.01  -0.01     0.36   0.27  -0.23
  19   1    -0.06  -0.12   0.00     0.01   0.02   0.00     0.16   0.48   0.03
  20   1    -0.03  -0.05  -0.04     0.01   0.01   0.01     0.41   0.26   0.02
                     34                     35                     36
                        a                      a                      a 
 Frequencies --  1411.4691              1425.0699              1430.6099
 Red. masses --     3.1551                 1.9960                 2.0137
 Frc consts  --     0.0000                 0.0000                 0.0000
 IR Inten    --     2.5925                12.6662                 3.5106
 Raman Activ --     0.0000                 0.0000                 0.0000
 Depolar     --     0.0000                 0.0000                 0.0000
 Atom AN      X      Y      Z        X      Y      Z        X      Y      Z
   1   6    -0.11  -0.41  -0.03    -0.00  -0.10  -0.01    -0.00  -0.00  -0.00
   2   6     0.08   0.06   0.04     0.00  -0.00   0.02     0.00   0.00   0.00
   3   6     0.01  -0.05  -0.05     0.03   0.13   0.25     0.01  -0.00  -0.00
   4   6    -0.01  -0.00   0.00     0.00   0.01  -0.01    -0.03   0.01   0.02
   5   8     0.00   0.00  -0.00    -0.00  -0.00   0.01     0.00  -0.00  -0.04
   6   8     0.00  -0.00  -0.00     0.00   0.00   0.01     0.04  -0.03  -0.00
   7   6     0.00   0.00   0.00     0.00   0.00  -0.00     0.01  -0.27  -0.02
   8   6     0.00  -0.00   0.00    -0.00  -0.00   0.00     0.08   0.06  -0.02
   9   1     0.25   0.42  -0.05     0.06   0.10  -0.03     0.00   0.00   0.00
  10   1     0.13   0.44   0.21    -0.02   0.10   0.05     0.01   0.00   0.00
  11   1    -0.07   0.47  -0.09    -0.03   0.09   0.01    -0.00   0.01  -0.00
  12   1    -0.08  -0.03  -0.10    -0.01   0.04  -0.05    -0.01  -0.00  -0.00
  13   1    -0.12  -0.02  -0.02    -0.05   0.03   0.01     0.00   0.00   0.00
  14   1     0.01   0.14   0.07    -0.07  -0.61  -0.28    -0.01  -0.00  -0.00
  15   1    -0.04  -0.02   0.13    -0.01   0.10  -0.64    -0.00   0.00  -0.00
  16   1     0.00  -0.01  -0.01    -0.01  -0.00   0.00     0.06   0.47   0.44
  17   1    -0.00  -0.01   0.00     0.00  -0.00   0.00    -0.23   0.57  -0.27
  18   1    -0.00   0.00  -0.00    -0.00   0.00  -0.00    -0.09  -0.06   0.05
  19   1     0.00  -0.00   0.00    -0.00   0.00  -0.01    -0.03  -0.11  -0.01
  20   1    -0.00   0.00   0.00     0.01   0.00  -0.00    -0.10  -0.06   0.00
                     37                     38                     39
                        a                      a                      a 
 Frequencies --  1471.1763              1473.9273              1485.2682
 Red. masses --     1.5126                 1.9319                 1.5722
 Frc consts  --     0.0000                 0.0000                 0.0000
 IR Inten    --     5.7904                 0.9804                 2.1427
 Raman Activ --     0.0000                 0.0000                 0.0000
 Depolar     --     0.0000                 0.0000                 0.0000
 Atom AN      X      Y      Z        X      Y      Z        X      Y      Z
   1   6     0.00   0.00   0.00    -0.01  -0.05  -0.01     0.00  -0.00  -0.00
   2   6     0.01  -0.01   0.01    -0.16   0.21  -0.10    -0.00   0.00  -0.00
   3   6     0.00   0.00   0.00    -0.00   0.02   0.01    -0.00   0.00  -0.00
   4   6     0.00   0.00   0.00    -0.00  -0.00   0.02    -0.00  -0.00   0.00
   5   8     0.00  -0.00  -0.00     0.00   0.00  -0.02    -0.00   0.00  -0.00
   6   8    -0.00   0.00   0.00     0.00   0.00  -0.00     0.01  -0.00  -0.00
   7   6    -0.03   0.01  -0.04    -0.00   0.00  -0.00    -0.05   0.01   0.03
   8   6    -0.08   0.07  -0.18    -0.00   0.00  -0.01    -0.12   0.15   0.11
   9   1    -0.00  -0.00   0.00     0.03   0.08  -0.03     0.00   0.00  -0.00
  10   1     0.00  -0.00  -0.00    -0.03   0.07   0.03    -0.00   0.00   0.00
  11   1     0.00  -0.00  -0.00    -0.02   0.04   0.01    -0.00   0.00   0.00
  12   1    -0.01   0.02  -0.03     0.10  -0.36   0.54     0.00  -0.00   0.01
  13   1    -0.03   0.03   0.01     0.51  -0.42  -0.13     0.01  -0.01  -0.00
  14   1    -0.00  -0.01  -0.00    -0.01  -0.04  -0.02     0.00   0.00   0.00
  15   1     0.00   0.00  -0.01    -0.01   0.01  -0.03    -0.00   0.00   0.00
  16   1     0.02   0.03  -0.00     0.00   0.00  -0.00     0.03   0.02  -0.01
  17   1    -0.00  -0.02  -0.00     0.00  -0.00   0.00     0.04   0.02  -0.01
  18   1     0.51  -0.14  -0.01     0.03  -0.00  -0.00     0.25  -0.47   0.24
  19   1     0.24  -0.02   0.65     0.01  -0.00   0.04     0.03   0.29  -0.16
  20   1    -0.40  -0.11   0.11    -0.03   0.00   0.01     0.21  -0.42  -0.52
                     40                     41                     42
                        a                      a                      a 
 Frequencies --  1496.1916              1502.9414              1702.8098
 Red. masses --     1.5505                 1.5531                13.3110
 Frc consts  --     0.0000                 0.0000                 0.0000
 IR Inten    --     2.6419                 0.7098               628.4808
 Raman Activ --     0.0000                 0.0000                 0.0000
 Depolar     --     0.0000                 0.0000                 0.0000
 Atom AN      X      Y      Z        X      Y      Z        X      Y      Z
   1   6     0.20  -0.04  -0.06     0.06  -0.02   0.20    -0.00   0.00  -0.00
   2   6     0.07  -0.01  -0.00     0.03   0.00   0.05     0.00   0.00   0.01
   3   6    -0.02  -0.01  -0.02    -0.00  -0.00  -0.01     0.05  -0.01  -0.06
   4   6    -0.00  -0.00   0.01    -0.00   0.00   0.00    -0.12   0.00   0.79
   5   8     0.00   0.00  -0.01     0.00  -0.00  -0.00     0.06   0.01  -0.59
   6   8     0.00  -0.00  -0.00     0.00  -0.00   0.00    -0.02   0.01  -0.05
   7   6     0.00  -0.00  -0.00     0.00  -0.00  -0.00    -0.01   0.01   0.02
   8   6     0.00   0.00  -0.00    -0.00   0.00   0.00     0.00  -0.00  -0.00
   9   1     0.10   0.32  -0.19    -0.38   0.03  -0.59    -0.00  -0.01   0.01
  10   1    -0.68   0.04  -0.04    -0.15   0.34   0.14     0.01  -0.00  -0.00
  11   1    -0.22  -0.20   0.48     0.28  -0.27  -0.38     0.00  -0.00  -0.00
  12   1    -0.02  -0.03  -0.04    -0.01   0.00  -0.02    -0.02  -0.00  -0.03
  13   1    -0.04   0.02   0.00    -0.02  -0.03  -0.00    -0.01   0.01   0.01
  14   1     0.02   0.04   0.02    -0.01   0.00  -0.00     0.05  -0.03  -0.02
  15   1     0.01  -0.01   0.04     0.00  -0.00   0.00     0.02  -0.00  -0.01
  16   1     0.00   0.00   0.00    -0.00   0.00   0.00     0.02  -0.02  -0.03
  17   1    -0.00   0.00  -0.00     0.00   0.00  -0.00     0.01  -0.02   0.01
  18   1    -0.00   0.00   0.00    -0.00  -0.00   0.00    -0.00   0.00  -0.00
  19   1    -0.00  -0.00   0.00    -0.00  -0.00  -0.00     0.00   0.01  -0.00
  20   1    -0.00  -0.00   0.00     0.00  -0.00  -0.00     0.01   0.01   0.00
                     43                     44                     45
                        a                      a                      a 
 Frequencies --  2945.5720              2966.6844              2984.9244
 Red. masses --     1.7204                 1.7807                 1.9378
 Frc consts  --     0.0000                 0.0000                 0.0000
 IR Inten    --    30.9487                 8.7727                28.8823
 Raman Activ --     0.0000                 0.0000                 0.0000
 Depolar     --     0.0000                 0.0000                 0.0000
 Atom AN      X      Y      Z        X      Y      Z        X      Y      Z
   1   6    -0.00  -0.00   0.00    -0.00   0.00  -0.00     0.02  -0.00  -0.03
   2   6    -0.00   0.00  -0.00    -0.02   0.01  -0.00    -0.12  -0.01   0.26
   3   6    -0.00  -0.00  -0.00    -0.02  -0.26  -0.01    -0.00   0.02  -0.04
   4   6     0.00  -0.00   0.00     0.00  -0.01  -0.00     0.00   0.00  -0.00
   5   8     0.00   0.00  -0.00    -0.00   0.00   0.00    -0.00  -0.00  -0.00
   6   8    -0.01   0.01   0.01    -0.00   0.00  -0.00     0.00   0.00   0.00
   7   6     0.05   0.12   0.22    -0.00   0.00  -0.00    -0.00   0.00  -0.00
   8   6     0.00  -0.00  -0.01    -0.00   0.00   0.00    -0.00   0.00   0.00
   9   1     0.00  -0.00  -0.00     0.01  -0.00  -0.00    -0.07   0.05   0.05
  10   1     0.00   0.00  -0.00    -0.00  -0.00   0.01    -0.00  -0.04   0.09
  11   1     0.00  -0.00   0.00     0.00   0.00   0.00     0.01   0.00  -0.00
  12   1     0.00  -0.00  -0.00     0.06  -0.03  -0.04     0.38  -0.24  -0.21
  13   1    -0.00  -0.00   0.00    -0.01  -0.02   0.05     0.05   0.29  -0.73
  14   1     0.00  -0.00   0.00    -0.00   0.01  -0.09     0.00  -0.08   0.16
  15   1     0.00   0.01   0.00     0.08   0.94   0.12     0.00   0.02  -0.00
  16   1     0.01   0.01   0.03     0.00  -0.01   0.01     0.00  -0.00   0.01
  17   1    -0.17  -0.44  -0.84     0.00   0.01   0.01    -0.00  -0.00  -0.00
  18   1     0.01   0.03   0.05    -0.00  -0.00  -0.00    -0.00  -0.00  -0.00
  19   1    -0.01   0.00   0.00     0.00  -0.00  -0.00     0.00  -0.00  -0.00
  20   1     0.01  -0.01   0.01     0.00  -0.00   0.00     0.00  -0.00   0.00
                     46                     47                     48
                        a                      a                      a 
 Frequencies --  2991.7115              2997.3837              3006.6852
 Red. masses --     1.7394                 1.5093                 1.7167
 Frc consts  --     0.0000                 0.0000                 0.0000
 IR Inten    --    15.9239                42.0538                27.8981
 Raman Activ --     0.0000                 0.0000                 0.0000
 Depolar     --     0.0000                 0.0000                 0.0000
 Atom AN      X      Y      Z        X      Y      Z        X      Y      Z
   1   6    -0.00   0.00  -0.00    -0.03   0.01  -0.00     0.01  -0.00   0.02
   2   6    -0.00  -0.00   0.00     0.15  -0.14   0.02     0.01   0.02  -0.06
   3   6    -0.00  -0.00  -0.00     0.00  -0.02  -0.02    -0.00   0.09  -0.23
   4   6    -0.00  -0.00  -0.00    -0.00   0.00   0.00     0.00   0.00  -0.01
   5   8    -0.00   0.00  -0.00    -0.00  -0.00  -0.00     0.00  -0.00   0.00
   6   8     0.01  -0.00   0.00     0.00  -0.00   0.00     0.00  -0.00   0.00
   7   6     0.09  -0.16   0.18    -0.00   0.00  -0.00    -0.00  -0.00  -0.00
   8   6    -0.02   0.02  -0.02    -0.00   0.00   0.00    -0.00   0.00   0.00
   9   1    -0.00   0.00   0.00     0.07  -0.05  -0.05     0.00  -0.00   0.00
  10   1    -0.00  -0.00   0.00    -0.01  -0.01   0.02     0.00   0.02  -0.06
  11   1     0.00   0.00   0.00     0.06   0.01   0.04    -0.03  -0.01  -0.01
  12   1    -0.00   0.00   0.00    -0.61   0.36   0.40    -0.02   0.01   0.00
  13   1     0.00   0.00  -0.01     0.06   0.17  -0.49    -0.02  -0.07   0.18
  14   1     0.00  -0.00  -0.00     0.00  -0.04   0.07     0.00  -0.43   0.84
  15   1     0.00   0.01   0.00     0.01   0.10   0.01     0.01   0.10  -0.02
  16   1    -0.37   0.61  -0.64     0.00  -0.00   0.00    -0.00   0.00  -0.00
  17   1     0.01  -0.02   0.02    -0.00  -0.00  -0.00     0.00   0.00   0.00
  18   1     0.00   0.02   0.02    -0.00  -0.00  -0.00    -0.00  -0.00  -0.00
  19   1     0.02  -0.01  -0.01     0.00  -0.00  -0.00     0.00  -0.00  -0.00
  20   1     0.05  -0.08   0.08     0.00  -0.00   0.00     0.00  -0.00   0.00
                     49                     50                     51
                        a                      a                      a 
 Frequencies --  3025.1387              3033.1149              3039.0867
 Red. masses --     1.9105                 1.7484                 1.7996
 Frc consts  --     0.0000                 0.0000                 0.0000
 IR Inten    --    91.0272                68.2333                37.5754
 Raman Activ --     0.0000                 0.0000                 0.0000
 Depolar     --     0.0000                 0.0000                 0.0000
 Atom AN      X      Y      Z        X      Y      Z        X      Y      Z
   1   6     0.21  -0.07  -0.18     0.10  -0.11   0.21    -0.00   0.00  -0.00
   2   6     0.04  -0.01  -0.04     0.01  -0.02   0.03    -0.00   0.00  -0.00
   3   6    -0.00  -0.00  -0.00    -0.00  -0.01   0.01     0.00   0.00  -0.00
   4   6    -0.00  -0.00  -0.00    -0.00  -0.00   0.00    -0.00  -0.00   0.00
   5   8     0.00   0.00   0.00    -0.00   0.00  -0.00     0.00   0.00  -0.00
   6   8     0.00  -0.00  -0.00    -0.00   0.00  -0.00     0.00  -0.00   0.00
   7   6     0.00   0.00   0.00     0.00  -0.00   0.00     0.02  -0.02   0.03
   8   6     0.00  -0.00  -0.00     0.00  -0.00   0.00     0.11  -0.14   0.20
   9   1    -0.65   0.41   0.43    -0.20   0.12   0.18     0.00  -0.00  -0.00
  10   1     0.01  -0.13   0.29     0.08   0.32  -0.81    -0.00  -0.00   0.01
  11   1    -0.09  -0.03  -0.09    -0.23  -0.06  -0.11     0.01   0.00   0.00
  12   1    -0.11   0.06   0.07    -0.02   0.01   0.02     0.00  -0.00  -0.00
  13   1    -0.00  -0.02   0.05     0.01   0.03  -0.10    -0.00  -0.00   0.00
  14   1     0.00  -0.00   0.00    -0.00   0.02  -0.05     0.00  -0.00   0.01
  15   1     0.00   0.01   0.00     0.00   0.01   0.00     0.00   0.00   0.00
  16   1     0.00  -0.00   0.00    -0.00   0.00  -0.00    -0.05   0.08  -0.08
  17   1    -0.00  -0.00  -0.00     0.00   0.00   0.00    -0.00  -0.01  -0.02
  18   1     0.00   0.00   0.00     0.00   0.00   0.00     0.00  -0.08  -0.09
  19   1    -0.00   0.00   0.00    -0.00  -0.00   0.00    -0.00  -0.01   0.03
  20   1    -0.00   0.00  -0.00    -0.01   0.01  -0.01    -0.38   0.59  -0.64
                     52                     53                     54
                        a                      a                      a 
 Frequencies --  3045.6895              3049.4215              3062.6955
 Red. masses --     1.4928                 1.6294                 1.7445
 Frc consts  --     0.0000                 0.0000                 0.0000
 IR Inten    --    44.0970                26.1245                23.1639
 Raman Activ --     0.0000                 0.0000                 0.0000
 Depolar     --     0.0000                 0.0000                 0.0000
 Atom AN      X      Y      Z        X      Y      Z        X      Y      Z
   1   6    -0.17  -0.08  -0.09     0.00   0.00   0.00    -0.00  -0.00  -0.00
   2   6    -0.01   0.00  -0.01     0.00  -0.00   0.00    -0.00   0.00  -0.00
   3   6     0.00   0.00  -0.00    -0.00  -0.00  -0.00     0.00  -0.00  -0.00
   4   6     0.00  -0.00  -0.00    -0.00  -0.00  -0.00    -0.00   0.00  -0.00
   5   8     0.00   0.00   0.00     0.00   0.00   0.00    -0.00   0.00   0.00
   6   8    -0.00   0.00  -0.00     0.00   0.00  -0.00     0.00   0.00   0.00
   7   6    -0.00  -0.00  -0.00    -0.01  -0.01  -0.02     0.01  -0.01  -0.00
   8   6    -0.00  -0.00  -0.00    -0.03  -0.14  -0.19     0.22  -0.09  -0.10
   9   1    -0.19   0.09   0.10     0.01  -0.00  -0.00     0.00  -0.00  -0.00
  10   1    -0.01   0.07  -0.22    -0.00  -0.00   0.01    -0.00   0.00  -0.00
  11   1     0.79   0.14   0.45    -0.01  -0.00  -0.00     0.00   0.00   0.00
  12   1     0.02  -0.02  -0.02    -0.00   0.00   0.00     0.00  -0.00  -0.00
  13   1    -0.00  -0.01   0.03     0.00   0.00  -0.00    -0.00  -0.00   0.00
  14   1     0.00  -0.00   0.01    -0.00  -0.00   0.00    -0.00  -0.00   0.00
  15   1    -0.00  -0.00  -0.00     0.00   0.00   0.00     0.00   0.00   0.00
  16   1     0.00  -0.00   0.00     0.00  -0.01   0.00    -0.01   0.01  -0.01
  17   1     0.00   0.00   0.00     0.01   0.02   0.05     0.00   0.01   0.01
  18   1     0.00   0.01   0.01     0.12   0.46   0.83     0.04   0.01   0.04
  19   1     0.00  -0.00  -0.00     0.04  -0.03  -0.04    -0.85   0.32   0.32
  20   1     0.00  -0.00   0.00    -0.06   0.07  -0.12     0.03  -0.02  -0.00
