 Entering Gaussian System
 *********************************************
 Gaussian 98:
 frequency output generated by the xtb code
 *********************************************
                         Standard orientation:
 --------------------------------------------------------------------
  Center     Atomic     Atomic              Coordinates (Angstroms)
  Number     Number      Type              X           Y           Z
 --------------------------------------------------------------------
    1          6             0       -2.246967   -1.477906   -0.187994
    2          6             0       -2.465456    0.027386   -0.094559
    3          6             0       -1.358450    0.708315    0.713998
    4          6             0       -0.035387    0.646651   -0.006137
    5          8             0        0.127342    0.889543   -1.183540
    6          8             0        0.950566    0.313452    0.818960
    7          6             0        2.285101    0.220253    0.292955
    8          6             0        2.558189   -1.169336   -0.262110
    9          1             0       -1.310137   -1.693198   -0.698375
   10          1             0       -2.209283   -1.921741    0.803977
   11          1             0       -3.054468   -1.944142   -0.746039
   12          1             0       -3.425465    0.229888    0.380784
   13          1             0       -2.479370    0.458073   -1.097513
   14          1             0       -1.242116    0.247982    1.694530
   15          1             0       -1.600533    1.764942    0.845500
   16          1             0        2.406134    0.977694   -0.487507
   17          1             0        2.932369    0.442899    1.141714
   18          1             0        2.377550   -1.919806    0.502705
   19          1             0        1.908079   -1.365217   -1.112105
   20          1             0        3.591218   -1.230149   -0.588511
 --------------------------------------------------------------------
     1 basis functions        1 primitive gaussians
     1 alpha electrons        1 beta electrons
 
 Harmonic frequencies (cm**-1), IR intensities (km*mol⁻¹),
 Raman scattering activities (A**4/amu), Raman depolarization ratios,
 reduced masses (AMU), force constants (mDyne/A) and normal coordinates:
                      1                      2                      3
                        a                      a                      a 
 Frequencies --    24.6187                50.5383                77.9029
 Red. masses --    10.6991                 9.0411                10.2512
 Frc consts  --     0.0000                 0.0000                 0.0000
 IR Inten    --     2.9456                 2.3302                 0.7492
 Raman Activ --     0.0000                 0.0000                 0.0000
 Depolar     --     0.0000                 0.0000                 0.0000
 Atom AN      X      Y      Z        X      Y      Z        X      Y      Z
   1   6     0.39  -0.15   0.25     0.13   0.02  -0.19     0.40   0.07  -0.31
   2   6     0.10  -0.18  -0.07    -0.03  -0.02   0.13     0.03  -0.01   0.13
   3   6    -0.08   0.20  -0.13     0.01  -0.05   0.11     0.02   0.06   0.09
   4   6    -0.02   0.19  -0.03    -0.06   0.10  -0.02    -0.01   0.00   0.06
   5   8     0.10   0.46   0.04    -0.20   0.35   0.00    -0.07  -0.38  -0.02
   6   8    -0.15  -0.11  -0.02     0.02  -0.04  -0.20     0.06   0.34   0.13
   7   6    -0.10  -0.19   0.05    -0.03  -0.03  -0.27    -0.02  -0.00  -0.00
   8   6    -0.25  -0.16  -0.10     0.14  -0.28   0.42    -0.40  -0.07  -0.03
   9   1     0.13  -0.02   0.10     0.02   0.06  -0.11     0.09   0.13  -0.19
  10   1     0.12   0.02   0.10     0.10  -0.05  -0.08     0.24  -0.05  -0.12
  11   1     0.14  -0.12   0.09     0.03   0.01  -0.04     0.10  -0.00  -0.05
  12   1     0.01  -0.08  -0.05     0.00  -0.06   0.08     0.02  -0.10   0.11
  13   1     0.02  -0.11  -0.04    -0.06   0.05   0.06    -0.08   0.07   0.07
  14   1    -0.03   0.12  -0.00     0.04  -0.05   0.01     0.01   0.03   0.03
  15   1    -0.08   0.05  -0.12    -0.01  -0.03   0.08    -0.00   0.02   0.02
  16   1     0.01  -0.03   0.05    -0.08  -0.12  -0.19     0.03  -0.01  -0.01
  17   1    -0.04  -0.11   0.04     0.01   0.15  -0.14     0.03  -0.04  -0.02
  18   1    -0.11  -0.07  -0.06     0.10   0.03   0.24    -0.15  -0.01  -0.00
  19   1    -0.06   0.01  -0.05     0.02  -0.24   0.18    -0.15   0.03   0.01
  20   1    -0.07  -0.07  -0.01     0.03  -0.08   0.09    -0.13  -0.09  -0.03
                      4                      5                      6
                        a                      a                      a 
 Frequencies --   117.3750               173.2400               203.2076
 Red. masses --     8.8282                 7.0890                 2.9759
 Frc consts  --     0.0000                 0.0000                 0.0000
 IR Inten    --     2.1953                 3.3389                 3.1712
 Raman Activ --     0.0000                 0.0000                 0.0000
 Depolar     --     0.0000                 0.0000                 0.0000
 Atom AN      X      Y      Z        X      Y      Z        X      Y      Z
   1   6     0.21   0.16  -0.03     0.27   0.15   0.03     0.11   0.06   0.02
   2   6    -0.17   0.09   0.23     0.13   0.14  -0.21     0.04   0.05   0.04
   3   6    -0.06   0.25  -0.07    -0.11   0.16   0.10     0.01  -0.02   0.12
   4   6    -0.08  -0.09  -0.10    -0.09  -0.07   0.17    -0.06   0.01  -0.04
   5   8    -0.00  -0.15  -0.10    -0.19  -0.24   0.15    -0.26  -0.04  -0.08
   6   8    -0.21  -0.37  -0.08    -0.06  -0.20   0.08    -0.01   0.02  -0.13
   7   6    -0.08  -0.06   0.15    -0.12  -0.00  -0.17     0.04  -0.03   0.01
   8   6     0.34   0.10  -0.03     0.12   0.01  -0.08     0.08  -0.03   0.03
   9   1    -0.01   0.14  -0.18     0.21   0.05   0.26     0.16   0.04   0.23
  10   1     0.27   0.02  -0.03    -0.17   0.06   0.02    -0.22  -0.02  -0.00
  11   1     0.00  -0.01   0.12     0.23   0.02  -0.20     0.17   0.04  -0.22
  12   1    -0.01  -0.06   0.18    -0.02   0.05  -0.18    -0.00   0.01  -0.02
  13   1    -0.19   0.06   0.08     0.16   0.01  -0.07     0.05   0.02   0.01
  14   1    -0.01   0.15   0.02    -0.09   0.05   0.04     0.02  -0.04   0.01
  15   1     0.01   0.09  -0.11    -0.02   0.05  -0.01     0.01  -0.01   0.08
  16   1    -0.02   0.03   0.09    -0.13  -0.02  -0.08     0.06   0.00   0.02
  17   1    -0.08  -0.02   0.09     0.00   0.07  -0.10    -0.03  -0.03   0.04
  18   1     0.10  -0.02  -0.06     0.25   0.02   0.04    -0.41  -0.03  -0.11
  19   1     0.17   0.03  -0.06    -0.08  -0.11   0.09     0.34   0.14  -0.27
  20   1     0.12   0.11   0.06    -0.01   0.12  -0.20     0.15  -0.15   0.44
                      7                      8                      9
                        a                      a                      a 
 Frequencies --   251.0126               296.7378               347.1047
 Red. masses --     4.5895                 9.0309                 9.5194
 Frc consts  --     0.0000                 0.0000                 0.0000
 IR Inten    --     0.8690                18.2468                 2.8576
 Raman Activ --     0.0000                 0.0000                 0.0000
 Depolar     --     0.0000                 0.0000                 0.0000
 Atom AN      X      Y      Z        X      Y      Z        X      Y      Z
   1   6    -0.03  -0.02  -0.04    -0.09  -0.07  -0.07    -0.17  -0.19  -0.15
   2   6    -0.14  -0.06   0.30    -0.17  -0.09   0.13    -0.00  -0.16   0.02
   3   6     0.08  -0.02  -0.05    -0.07   0.13  -0.14    -0.15   0.31  -0.03
   4   6     0.03   0.03  -0.20     0.06  -0.06   0.12    -0.01   0.19   0.17
   5   8     0.13   0.07  -0.21     0.48  -0.03   0.20    -0.25  -0.03   0.11
   6   8    -0.06   0.04  -0.10     0.04  -0.10   0.19     0.16   0.31   0.07
   7   6     0.04  -0.04   0.21    -0.13   0.14  -0.34     0.17  -0.22   0.03
   8   6    -0.04   0.01   0.03    -0.06   0.04  -0.03     0.28  -0.18  -0.12
   9   1     0.17   0.06   0.29     0.03   0.01   0.07    -0.06  -0.08  -0.05
  10   1    -0.36  -0.13  -0.06    -0.14  -0.09  -0.05    -0.09  -0.11  -0.07
  11   1     0.19   0.06  -0.36     0.04   0.01  -0.14    -0.07   0.03  -0.08
  12   1     0.00  -0.07   0.20    -0.01  -0.07   0.13    -0.00  -0.06   0.01
  13   1    -0.17   0.02   0.11    -0.16  -0.02   0.04    -0.03  -0.05   0.00
  14   1     0.09   0.00  -0.02    -0.05   0.16   0.02    -0.10   0.26   0.07
  15   1     0.02  -0.01  -0.01    -0.02   0.06  -0.18    -0.12   0.10  -0.21
  16   1     0.09   0.02   0.10    -0.20  -0.02  -0.18     0.12  -0.06   0.03
  17   1    -0.03  -0.07   0.11     0.05   0.16  -0.20     0.04  -0.12   0.03
  18   1     0.18  -0.01   0.04    -0.17   0.06   0.00     0.14  -0.10  -0.07
  19   1    -0.17  -0.02   0.14     0.10  -0.00  -0.10     0.09  -0.06  -0.04
  20   1    -0.08   0.07  -0.20     0.03  -0.06   0.16     0.08   0.03  -0.04
                     10                     11                     12
                        a                      a                      a 
 Frequencies --   405.6175               445.9762               595.2216
 Red. masses --     9.3585                10.1926                10.8723
 Frc consts  --     0.0000                 0.0000                 0.0000
 IR Inten    --     5.0021                 5.2035                18.0025
 Raman Activ --     0.0000                 0.0000                 0.0000
 Depolar     --     0.0000                 0.0000                 0.0000
 Atom AN      X      Y      Z        X      Y      Z        X      Y      Z
   1   6    -0.12  -0.18  -0.15     0.02   0.05   0.01     0.02   0.06   0.01
   2   6     0.46  -0.09   0.14    -0.19   0.01  -0.07     0.13   0.05   0.03
   3   6     0.23   0.27   0.13    -0.08   0.02  -0.17     0.28  -0.15  -0.21
   4   6     0.04   0.04  -0.03     0.07  -0.31   0.07     0.07  -0.48  -0.11
   5   8    -0.14  -0.04  -0.08    -0.30   0.13   0.13    -0.26   0.25  -0.00
   6   8    -0.11  -0.32  -0.09     0.31  -0.26  -0.12    -0.04   0.25   0.31
   7   6    -0.09   0.14   0.04     0.41   0.18   0.04    -0.26  -0.09   0.05
   8   6    -0.17   0.15   0.10    -0.15   0.09   0.10     0.01  -0.04  -0.03
   9   1    -0.09  -0.17  -0.09     0.03   0.06   0.03     0.01  -0.00   0.01
  10   1    -0.09  -0.14  -0.08     0.01   0.04   0.01    -0.01   0.01   0.00
  11   1    -0.14   0.14  -0.06     0.05  -0.05  -0.01     0.00   0.04  -0.01
  12   1     0.11   0.01  -0.02    -0.04  -0.01   0.02     0.07   0.04   0.07
  13   1     0.19  -0.02   0.04    -0.10  -0.01  -0.02    -0.00   0.02   0.01
  14   1     0.09   0.21   0.09    -0.15   0.15   0.03     0.01   0.12   0.02
  15   1     0.01   0.08  -0.12     0.06   0.05  -0.24     0.21   0.02  -0.26
  16   1    -0.06   0.05   0.02     0.13   0.08   0.04    -0.13  -0.06  -0.03
  17   1    -0.04   0.06   0.02     0.08   0.02   0.05     0.01   0.02  -0.06
  18   1    -0.08   0.07   0.05    -0.13   0.09   0.07     0.06  -0.07  -0.06
  19   1    -0.08   0.06   0.04    -0.15   0.11   0.09     0.08  -0.05  -0.06
  20   1    -0.06  -0.02   0.01    -0.08  -0.17  -0.05     0.03   0.13   0.04
                     13                     14                     15
                        a                      a                      a 
 Frequencies --   669.8907               799.0401               827.5560
 Red. masses --    10.2131                 4.0787                 3.8927
 Frc consts  --     0.0000                 0.0000                 0.0000
 IR Inten    --    12.4210                22.3604                11.1854
 Raman Activ --     0.0000                 0.0000                 0.0000
 Depolar     --     0.0000                 0.0000                 0.0000
 Atom AN      X      Y      Z        X      Y      Z        X      Y      Z
   1   6     0.01   0.01  -0.01    -0.05  -0.02   0.03     0.08  -0.01  -0.05
   2   6     0.03   0.00   0.13    -0.20  -0.04   0.13     0.17   0.04  -0.11
   3   6    -0.20   0.00   0.32    -0.06  -0.01   0.10    -0.13   0.13   0.08
   4   6    -0.27  -0.45  -0.11     0.09   0.07  -0.12    -0.18  -0.20  -0.07
   5   8     0.34   0.10   0.09    -0.02   0.04  -0.22     0.07   0.04   0.02
   6   8    -0.07   0.24  -0.29     0.02  -0.06   0.18    -0.08   0.08  -0.06
   7   6     0.04   0.02  -0.07     0.13  -0.04   0.18     0.17  -0.02   0.14
   8   6     0.02  -0.03  -0.00     0.04  -0.04   0.03     0.07  -0.06   0.05
   9   1    -0.01   0.04  -0.05     0.01   0.25  -0.06    -0.02  -0.32   0.05
  10   1     0.04  -0.07  -0.04     0.11  -0.17  -0.07    -0.12   0.16   0.07
  11   1    -0.01   0.04  -0.02     0.07  -0.05  -0.07    -0.09   0.08   0.08
  12   1    -0.10   0.05  -0.21    -0.15   0.19  -0.26     0.09  -0.24   0.17
  13   1     0.27  -0.01   0.02     0.27  -0.13  -0.03    -0.21   0.15   0.04
  14   1    -0.06   0.16   0.16     0.06   0.07   0.05    -0.06  -0.08  -0.03
  15   1     0.03   0.05  -0.11    -0.03   0.00  -0.03    -0.00   0.03   0.14
  16   1     0.15   0.04   0.04    -0.19  -0.21  -0.18    -0.08  -0.20  -0.18
  17   1    -0.08  -0.09   0.08     0.13   0.33  -0.12     0.05   0.32  -0.05
  18   1     0.02   0.02   0.03    -0.03  -0.18  -0.17    -0.03  -0.20  -0.18
  19   1     0.00  -0.05   0.01    -0.06   0.26  -0.01    -0.08   0.30   0.01
  20   1     0.00  -0.01  -0.00    -0.02  -0.03  -0.10    -0.03  -0.06  -0.12
                     16                     17                     18
                        a                      a                      a 
 Frequencies --   879.7273               907.1037               916.8610
 Red. masses --     8.1685                 8.3894                 7.1587
 Frc consts  --     0.0000                 0.0000                 0.0000
 IR Inten    --    23.1268                 6.0558                 0.6184
 Raman Activ --     0.0000                 0.0000                 0.0000
 Depolar     --     0.0000                 0.0000                 0.0000
 Atom AN      X      Y      Z        X      Y      Z        X      Y      Z
   1   6    -0.05   0.14  -0.03     0.01   0.26  -0.01    -0.05  -0.12  -0.19
   2   6     0.01  -0.06  -0.03     0.16  -0.10   0.07    -0.19   0.01  -0.12
   3   6     0.10  -0.34   0.02    -0.06  -0.37  -0.02    -0.03   0.05   0.41
   4   6     0.06   0.22   0.18    -0.11   0.18  -0.04     0.18  -0.02  -0.15
   5   8     0.05  -0.11   0.17     0.02  -0.02  -0.10     0.01   0.07  -0.29
   6   8     0.12   0.02  -0.43    -0.32  -0.01   0.24     0.17  -0.07   0.18
   7   6    -0.21  -0.09   0.08     0.24   0.11  -0.05    -0.07  -0.04   0.02
   8   6    -0.10   0.07   0.14     0.17  -0.13  -0.14    -0.07   0.06  -0.01
   9   1     0.02   0.06   0.05    -0.00  -0.02   0.03     0.04  -0.15   0.11
  10   1     0.01   0.16   0.05    -0.04   0.16   0.04    -0.03   0.32   0.12
  11   1     0.03  -0.08   0.03    -0.03   0.08   0.04     0.04  -0.30   0.10
  12   1     0.04   0.02   0.06     0.05  -0.05   0.04    -0.10  -0.17  -0.05
  13   1     0.01   0.10   0.04     0.07   0.11   0.08     0.00   0.26   0.08
  14   1    -0.04   0.20   0.14     0.03   0.17   0.11     0.03   0.17   0.18
  15   1    -0.08  -0.07  -0.33    -0.18  -0.10  -0.30    -0.04   0.03  -0.04
  16   1     0.04  -0.16  -0.10    -0.04   0.10   0.05    -0.06   0.04   0.04
  17   1    -0.12   0.11   0.04     0.06   0.02  -0.01     0.09  -0.09  -0.05
  18   1     0.05  -0.17  -0.14    -0.08   0.10   0.07     0.02   0.06   0.05
  19   1     0.01   0.16  -0.02    -0.05  -0.04   0.04     0.04  -0.11  -0.02
  20   1    -0.02   0.22   0.00     0.01  -0.31  -0.08     0.01   0.09   0.07
                     19                     20                     21
                        a                      a                      a 
 Frequencies --   961.2764              1049.9737              1069.3628
 Red. masses --     7.6550                 8.0662                 6.6392
 Frc consts  --     0.0000                 0.0000                 0.0000
 IR Inten    --     2.4032                18.7496                46.2219
 Raman Activ --     0.0000                 0.0000                 0.0000
 Depolar     --     0.0000                 0.0000                 0.0000
 Atom AN      X      Y      Z        X      Y      Z        X      Y      Z
   1   6    -0.13  -0.31  -0.12    -0.09  -0.00  -0.06     0.16  -0.24   0.08
   2   6    -0.13   0.14  -0.10     0.09  -0.02   0.04    -0.09   0.30  -0.04
   3   6     0.37   0.10   0.02     0.04   0.04  -0.12    -0.04  -0.21   0.13
   4   6    -0.12   0.03   0.09    -0.25  -0.04  -0.03     0.14   0.20   0.04
   5   8     0.00  -0.05   0.20     0.01  -0.00   0.07     0.02  -0.02  -0.09
   6   8    -0.29   0.09  -0.08    -0.21  -0.04   0.11    -0.28   0.00   0.01
   7   6     0.05   0.11  -0.02     0.42  -0.28  -0.20     0.20  -0.12  -0.10
   8   6     0.15  -0.13  -0.07    -0.21   0.28   0.15    -0.06   0.11   0.04
   9   1     0.06   0.10   0.06     0.03   0.08   0.04    -0.02  -0.17  -0.05
  10   1     0.08   0.07   0.04     0.04   0.09   0.02    -0.03  -0.20  -0.04
  11   1     0.13  -0.41   0.00     0.05  -0.15   0.01    -0.05   0.13  -0.02
  12   1     0.02   0.16   0.04     0.06   0.08   0.04    -0.02   0.03   0.02
  13   1    -0.02   0.09  -0.01     0.05   0.05   0.03    -0.07   0.04  -0.02
  14   1     0.18   0.05   0.01     0.23   0.00  -0.06    -0.40   0.03   0.11
  15   1     0.23   0.06   0.00    -0.12  -0.03   0.02     0.44   0.08  -0.14
  16   1     0.02   0.03   0.00     0.12  -0.13  -0.09     0.03  -0.05  -0.04
  17   1    -0.11   0.09   0.07     0.19  -0.14  -0.11     0.06  -0.04  -0.04
  18   1    -0.06  -0.00  -0.01     0.08   0.01   0.01     0.02   0.03   0.02
  19   1    -0.06   0.06   0.04     0.07   0.02  -0.04     0.02   0.00  -0.01
  20   1    -0.00  -0.24  -0.10    -0.01   0.33   0.12    -0.00   0.09   0.04
                     22                     23                     24
                        a                      a                      a 
 Frequencies --  1081.6686              1095.5063              1122.1734
 Red. masses --     4.3163                 7.6474                 9.1238
 Frc consts  --     0.0000                 0.0000                 0.0000
 IR Inten    --     7.2756                16.3840                88.2972
 Raman Activ --     0.0000                 0.0000                 0.0000
 Depolar     --     0.0000                 0.0000                 0.0000
 Atom AN      X      Y      Z        X      Y      Z        X      Y      Z
   1   6    -0.21  -0.11   0.05    -0.01   0.04   0.01    -0.14   0.32   0.05
   2   6     0.35   0.12  -0.07    -0.01  -0.04  -0.03    -0.04  -0.42  -0.25
   3   6    -0.18  -0.00   0.13     0.02   0.01   0.03     0.22   0.14   0.30
   4   6     0.06  -0.08  -0.05     0.04  -0.03  -0.01     0.24  -0.07   0.04
   5   8     0.04   0.04  -0.14     0.00   0.01  -0.01    -0.00   0.01  -0.03
   6   8     0.02   0.01   0.01     0.06   0.09   0.00    -0.29   0.04  -0.00
   7   6    -0.02   0.02   0.05    -0.19  -0.53  -0.12     0.13   0.02  -0.11
   8   6    -0.00  -0.02  -0.03     0.25   0.43   0.07    -0.03  -0.01   0.03
   9   1     0.04   0.31   0.02    -0.00   0.02  -0.00    -0.02   0.21  -0.01
  10   1     0.14  -0.09  -0.02     0.00  -0.00  -0.00     0.01   0.04  -0.01
  11   1     0.14  -0.25  -0.07     0.00   0.01  -0.01     0.01   0.06  -0.03
  12   1     0.28   0.24   0.29     0.00  -0.02   0.00     0.00  -0.21   0.01
  13   1    -0.15   0.01  -0.02    -0.02  -0.03  -0.01    -0.20  -0.29  -0.14
  14   1    -0.41  -0.07   0.04    -0.02  -0.00   0.01    -0.10   0.01   0.09
  15   1    -0.25  -0.05   0.00    -0.02  -0.00   0.01     0.12   0.05   0.06
  16   1    -0.05   0.01   0.01    -0.07  -0.11  -0.01     0.06  -0.00  -0.03
  17   1     0.03   0.02  -0.01    -0.09  -0.09  -0.01    -0.06   0.00   0.04
  18   1    -0.00   0.02   0.01    -0.19   0.28   0.13     0.03  -0.04  -0.03
  19   1     0.01  -0.04  -0.01    -0.18   0.25   0.16     0.02   0.01  -0.02
  20   1     0.00  -0.01   0.01    -0.01  -0.32  -0.11    -0.00   0.06   0.00
                     25                     26                     27
                        a                      a                      a 
 Frequencies --  1139.8839              1167.7062              1191.6320
 Red. masses --     7.5952                 7.9595                 5.9876
 Frc consts  --     0.0000                 0.0000                 0.0000
 IR Inten    --   209.3808               179.0234                73.2677
 Raman Activ --     0.0000                 0.0000                 0.0000
 Depolar     --     0.0000                 0.0000                 0.0000
 Atom AN      X      Y      Z        X      Y      Z        X      Y      Z
   1   6    -0.00  -0.04  -0.10    -0.05   0.06  -0.14    -0.14   0.12  -0.16
   2   6     0.04   0.04   0.24     0.06  -0.11   0.25     0.20  -0.20   0.21
   3   6    -0.16   0.04  -0.15    -0.10   0.07  -0.16    -0.15  -0.01  -0.10
   4   6     0.47  -0.11   0.07     0.31  -0.05   0.10    -0.30   0.18  -0.06
   5   8    -0.06   0.02  -0.04    -0.03  -0.02   0.12     0.03  -0.01  -0.07
   6   8    -0.21   0.01   0.11    -0.21   0.11  -0.28     0.20  -0.08   0.11
   7   6    -0.01   0.07  -0.35     0.11  -0.12   0.29    -0.10   0.05  -0.07
   8   6     0.05  -0.05   0.17    -0.07   0.07  -0.23     0.04  -0.02   0.09
   9   1     0.02  -0.06   0.04     0.03  -0.02   0.06     0.04   0.07   0.08
  10   1    -0.01   0.12   0.04    -0.01   0.19   0.05     0.02   0.23   0.05
  11   1     0.00  -0.09   0.04     0.01  -0.12   0.05     0.03  -0.17   0.04
  12   1    -0.06   0.01  -0.08    -0.06  -0.04  -0.09     0.02  -0.05  -0.02
  13   1     0.17   0.11   0.10     0.16  -0.00   0.07     0.09  -0.13   0.02
  14   1    -0.11  -0.09  -0.07    -0.16  -0.12  -0.09    -0.23  -0.09  -0.04
  15   1    -0.15  -0.03   0.07     0.09   0.03   0.08     0.56   0.14   0.03
  16   1     0.24   0.04  -0.02    -0.23  -0.10  -0.04     0.06   0.05   0.04
  17   1    -0.30  -0.06   0.16     0.12   0.17  -0.05     0.04  -0.11  -0.03
  18   1     0.00  -0.17  -0.12     0.01   0.21   0.15    -0.01  -0.08  -0.06
  19   1    -0.03   0.21   0.02     0.04  -0.25  -0.03    -0.02   0.10   0.02
  20   1    -0.03   0.02  -0.09     0.03  -0.03   0.10    -0.01  -0.00  -0.04
                     28                     29                     30
                        a                      a                      a 
 Frequencies --  1246.9973              1252.8931              1307.9781
 Red. masses --     3.3496                 3.1517                 3.9504
 Frc consts  --     0.0000                 0.0000                 0.0000
 IR Inten    --     6.4651                32.6276                33.7477
 Raman Activ --     0.0000                 0.0000                 0.0000
 Depolar     --     0.0000                 0.0000                 0.0000
 Atom AN      X      Y      Z        X      Y      Z        X      Y      Z
   1   6    -0.20  -0.03   0.25    -0.05  -0.01   0.08     0.04  -0.01  -0.02
   2   6     0.19   0.02  -0.15     0.03   0.01  -0.04     0.04  -0.07  -0.08
   3   6    -0.18  -0.02  -0.08    -0.02   0.01  -0.04    -0.38  -0.06   0.05
   4   6     0.04   0.03   0.01     0.13  -0.04   0.04     0.13  -0.00   0.04
   5   8    -0.02  -0.00   0.01    -0.01  -0.02   0.08    -0.01   0.00  -0.02
   6   8     0.03  -0.02   0.04    -0.12   0.08  -0.22     0.06   0.05  -0.03
   7   6     0.01  -0.02   0.01    -0.04   0.04  -0.03     0.16  -0.17  -0.11
   8   6    -0.02   0.02  -0.07     0.08  -0.07   0.21    -0.06  -0.07   0.02
   9   1    -0.03   0.29  -0.04    -0.01   0.08  -0.02     0.01  -0.00  -0.01
  10   1     0.12  -0.23  -0.05     0.03  -0.07  -0.01    -0.02   0.05   0.02
  11   1     0.07  -0.02  -0.10     0.02   0.00  -0.03    -0.02   0.05  -0.00
  12   1    -0.07  -0.48  -0.07    -0.04  -0.16  -0.04     0.15   0.26   0.15
  13   1     0.07   0.45   0.15     0.03   0.16   0.05    -0.06  -0.05  -0.03
  14   1     0.17   0.02  -0.04     0.03  -0.01  -0.02     0.38   0.12   0.03
  15   1     0.21   0.05  -0.00    -0.02  -0.00   0.01     0.24   0.06   0.04
  16   1     0.09  -0.09  -0.06    -0.38   0.31   0.22    -0.37   0.26   0.19
  17   1    -0.14   0.12   0.08     0.43  -0.36  -0.25    -0.26   0.18   0.15
  18   1     0.00   0.06   0.04    -0.01  -0.18  -0.12     0.02   0.00   0.03
  19   1     0.00  -0.06  -0.01    -0.02   0.20   0.03     0.00   0.06  -0.02
  20   1     0.01  -0.00   0.03    -0.02  -0.00  -0.08    -0.00   0.11   0.03
                     31                     32                     33
                        a                      a                      a 
 Frequencies --  1318.2560              1336.9189              1393.5008
 Red. masses --     4.4627                 4.7240                 3.1106
 Frc consts  --     0.0000                 0.0000                 0.0000
 IR Inten    --    44.6334                13.0082                 5.2806
 Raman Activ --     0.0000                 0.0000                 0.0000
 Depolar     --     0.0000                 0.0000                 0.0000
 Atom AN      X      Y      Z        X      Y      Z        X      Y      Z
   1   6     0.04  -0.01  -0.01     0.11  -0.00   0.08    -0.00   0.02   0.00
   2   6     0.02  -0.09  -0.09    -0.22  -0.45  -0.15     0.00  -0.00  -0.00
   3   6    -0.34  -0.03   0.05     0.14   0.14  -0.02    -0.01   0.00  -0.00
   4   6     0.22  -0.04   0.04    -0.08   0.00  -0.01     0.03  -0.01   0.00
   5   8    -0.02  -0.00   0.02     0.01   0.00  -0.02    -0.00   0.00   0.01
   6   8    -0.12  -0.03  -0.04     0.02  -0.00   0.01    -0.04  -0.01  -0.00
   7   6    -0.20   0.19   0.12     0.01  -0.01  -0.00    -0.08   0.01   0.02
   8   6     0.08   0.07  -0.02    -0.00  -0.01  -0.00     0.12  -0.38  -0.15
   9   1     0.00   0.00  -0.02    -0.01   0.06  -0.06    -0.01  -0.02  -0.00
  10   1    -0.02   0.04   0.01    -0.07   0.02   0.03     0.00  -0.01  -0.01
  11   1    -0.02   0.05  -0.01    -0.07   0.19  -0.01     0.01  -0.02  -0.00
  12   1     0.14   0.25   0.14     0.13   0.36   0.14     0.00   0.00   0.00
  13   1    -0.04  -0.01  -0.02     0.25   0.51   0.22    -0.00  -0.00  -0.00
  14   1     0.34   0.11   0.02    -0.25  -0.08  -0.03     0.01   0.01   0.00
  15   1     0.18   0.05   0.05     0.04   0.03   0.07    -0.00  -0.00   0.01
  16   1     0.34  -0.27  -0.21    -0.00   0.01   0.01     0.19   0.02   0.05
  17   1     0.28  -0.22  -0.16    -0.01   0.02   0.00     0.12   0.07  -0.12
  18   1    -0.02  -0.01  -0.04     0.00   0.00   0.01    -0.21   0.34   0.31
  19   1    -0.00  -0.07   0.03    -0.00   0.01  -0.00    -0.23   0.41   0.07
  20   1    -0.00  -0.14  -0.04     0.00   0.01   0.00     0.09   0.48   0.10
                     34                     35                     36
                        a                      a                      a 
 Frequencies --  1410.9903              1428.3448              1430.0003
 Red. masses --     3.1629                 2.0076                 2.0183
 Frc consts  --     0.0000                 0.0000                 0.0000
 IR Inten    --     2.0113                 6.3015                 4.7347
 Raman Activ --     0.0000                 0.0000                 0.0000
 Depolar     --     0.0000                 0.0000                 0.0000
 Atom AN      X      Y      Z        X      Y      Z        X      Y      Z
   1   6    -0.03   0.42   0.03    -0.03   0.07   0.01    -0.00  -0.00   0.00
   2   6    -0.05  -0.08  -0.04    -0.01  -0.00  -0.01    -0.00   0.00   0.00
   3   6    -0.04   0.04   0.04     0.05  -0.13  -0.25     0.02  -0.01  -0.03
   4   6     0.01   0.00   0.00    -0.02  -0.01  -0.01    -0.04  -0.00   0.02
   5   8    -0.00  -0.00  -0.00     0.00   0.00   0.00     0.01   0.01  -0.03
   6   8    -0.00   0.00  -0.00     0.00  -0.00  -0.00     0.05   0.00   0.00
   7   6     0.01   0.01  -0.00    -0.01  -0.03  -0.00     0.14   0.23   0.05
   8   6    -0.01   0.01   0.00    -0.01   0.01   0.01     0.04  -0.08  -0.04
   9   1    -0.10  -0.48   0.04    -0.02  -0.10   0.02     0.00  -0.00   0.00
  10   1     0.03  -0.46  -0.22     0.05  -0.07  -0.04     0.01   0.00   0.00
  11   1     0.22  -0.43   0.09     0.05  -0.06  -0.02     0.00   0.01  -0.01
  12   1     0.06   0.05   0.10     0.02  -0.04   0.04    -0.00  -0.01   0.00
  13   1     0.11   0.05   0.02     0.05  -0.01  -0.01     0.01  -0.00  -0.00
  14   1     0.03  -0.10  -0.05    -0.16   0.59   0.28    -0.03   0.06   0.03
  15   1     0.04   0.03  -0.10    -0.00  -0.10   0.64    -0.00  -0.01   0.07
  16   1    -0.02  -0.01  -0.01     0.04   0.04   0.04    -0.45  -0.31  -0.38
  17   1    -0.01  -0.01   0.01     0.02   0.06  -0.03    -0.19  -0.53   0.31
  18   1     0.01  -0.01  -0.01     0.01  -0.02  -0.01    -0.06   0.09   0.07
  19   1     0.00  -0.01   0.00     0.01  -0.02  -0.00    -0.06   0.09   0.02
  20   1     0.00  -0.02   0.01    -0.00  -0.02  -0.00     0.02   0.11   0.02
                     37                     38                     39
                        a                      a                      a 
 Frequencies --  1471.1147              1474.9514              1485.4519
 Red. masses --     1.5163                 1.9292                 1.5717
 Frc consts  --     0.0000                 0.0000                 0.0000
 IR Inten    --     5.9820                 1.4651                 2.5769
 Raman Activ --     0.0000                 0.0000                 0.0000
 Depolar     --     0.0000                 0.0000                 0.0000
 Atom AN      X      Y      Z        X      Y      Z        X      Y      Z
   1   6    -0.01  -0.00   0.00     0.01  -0.05  -0.01    -0.01  -0.00  -0.02
   2   6     0.02  -0.02   0.01    -0.21   0.16  -0.10    -0.01   0.00  -0.01
   3   6     0.00  -0.00  -0.00    -0.01   0.01   0.01    -0.00  -0.00   0.00
   4   6     0.00  -0.00   0.00     0.00  -0.01   0.02     0.00   0.00   0.00
   5   8     0.00   0.00  -0.00     0.00   0.01  -0.02    -0.00   0.00  -0.00
   6   8    -0.00  -0.00   0.00    -0.00   0.00  -0.00     0.00  -0.00  -0.00
   7   6    -0.03   0.02  -0.04    -0.00   0.00  -0.00    -0.05   0.00   0.03
   8   6    -0.09   0.02  -0.18    -0.00   0.00  -0.02    -0.18  -0.10   0.08
   9   1     0.00  -0.01   0.01     0.00   0.08  -0.03     0.04   0.01   0.06
  10   1     0.03   0.00   0.00    -0.05   0.06   0.03     0.04  -0.02  -0.01
  11   1     0.00   0.01  -0.02    -0.03   0.03   0.00    -0.04   0.02   0.03
  12   1    -0.02   0.03  -0.06     0.19  -0.32   0.54     0.01  -0.01   0.02
  13   1    -0.06   0.02   0.01     0.62  -0.23  -0.12     0.02  -0.00  -0.00
  14   1    -0.00   0.00   0.00     0.00  -0.04  -0.02     0.00   0.00   0.00
  15   1     0.00  -0.00   0.01    -0.01   0.01  -0.03     0.00   0.00  -0.00
  16   1     0.01   0.02   0.00     0.00   0.00   0.00     0.02  -0.03  -0.02
  17   1     0.01  -0.04  -0.01     0.00  -0.00  -0.00     0.02  -0.02  -0.01
  18   1     0.52  -0.11  -0.00     0.04  -0.02  -0.01     0.42   0.22   0.34
  19   1    -0.30   0.26   0.15    -0.05   0.02   0.03     0.41   0.38  -0.41
  20   1     0.17  -0.26   0.61     0.02  -0.02   0.07    -0.10  -0.22  -0.23
                     40                     41                     42
                        a                      a                      a 
 Frequencies --  1495.6203              1502.0667              1700.7378
 Red. masses --     1.5457                 1.5562                13.3137
 Frc consts  --     0.0000                 0.0000                 0.0000
 IR Inten    --     3.0544                 0.6199               623.0714
 Raman Activ --     0.0000                 0.0000                 0.0000
 Depolar     --     0.0000                 0.0000                 0.0000
 Atom AN      X      Y      Z        X      Y      Z        X      Y      Z
   1   6    -0.20  -0.02   0.06     0.07  -0.01   0.20     0.00  -0.00   0.00
   2   6    -0.06  -0.02   0.00     0.02   0.01   0.05    -0.01  -0.00  -0.01
   3   6     0.01   0.01   0.02    -0.00  -0.00  -0.01    -0.05  -0.01   0.06
   4   6     0.01   0.00  -0.00    -0.01   0.00   0.00     0.16   0.15  -0.77
   5   8    -0.00  -0.00   0.00     0.00   0.00  -0.01    -0.09  -0.12   0.57
   6   8    -0.00   0.00  -0.00     0.00  -0.00   0.00     0.01  -0.02   0.05
   7   6     0.00  -0.00   0.00    -0.00   0.00   0.00     0.01   0.01  -0.02
   8   6     0.01   0.00   0.01    -0.02  -0.01   0.01    -0.00  -0.00   0.00
   9   1    -0.01  -0.35   0.15    -0.35  -0.07  -0.61    -0.00   0.01  -0.01
  10   1     0.65   0.19   0.07    -0.28   0.26   0.14    -0.01   0.00   0.00
  11   1     0.18   0.25  -0.49     0.35  -0.16  -0.35    -0.00   0.00   0.00
  12   1     0.01   0.03   0.03    -0.01  -0.00  -0.02     0.01   0.01   0.03
  13   1     0.04  -0.01  -0.00    -0.01  -0.03  -0.00     0.02  -0.00  -0.01
  14   1     0.00  -0.04  -0.02    -0.01   0.00  -0.00    -0.06   0.01   0.02
  15   1    -0.01   0.00  -0.04     0.00  -0.00   0.00    -0.01   0.00  -0.01
  16   1     0.00   0.00   0.00    -0.00  -0.00  -0.00    -0.02  -0.01  -0.02
  17   1     0.00   0.00  -0.00    -0.00  -0.00   0.00    -0.03  -0.02   0.02
  18   1    -0.03   0.00  -0.00     0.05   0.02   0.03     0.00  -0.00   0.00
  19   1     0.01  -0.02  -0.00     0.04   0.04  -0.04    -0.00   0.01  -0.00
  20   1    -0.01   0.01  -0.02    -0.01  -0.03  -0.02     0.00   0.01   0.00
                     43                     44                     45
                        a                      a                      a 
 Frequencies --  2946.3057              2973.5226              2983.8251
 Red. masses --     1.7184                 1.7599                 1.9325
 Frc consts  --     0.0000                 0.0000                 0.0000
 IR Inten    --    30.2638                 9.4429                31.0550
 Raman Activ --     0.0000                 0.0000                 0.0000
 Depolar     --     0.0000                 0.0000                 0.0000
 Atom AN      X      Y      Z        X      Y      Z        X      Y      Z
   1   6    -0.00   0.00   0.00     0.00  -0.00   0.00     0.02   0.00  -0.03
   2   6    -0.00   0.00  -0.00     0.02  -0.01   0.01    -0.11  -0.06   0.26
   3   6    -0.00   0.00  -0.00    -0.06   0.25   0.01    -0.00   0.01  -0.03
   4   6     0.00   0.00   0.00    -0.00   0.01   0.00     0.00   0.00  -0.00
   5   8     0.00   0.00  -0.00     0.00   0.00  -0.00     0.00   0.00  -0.00
   6   8    -0.01  -0.00   0.01     0.00  -0.00   0.00    -0.00   0.00   0.00
   7   6    -0.02  -0.18   0.18     0.00   0.00   0.00    -0.00  -0.00  -0.00
   8   6     0.00   0.00  -0.01    -0.00  -0.00   0.00    -0.00  -0.00   0.00
   9   1     0.00  -0.00  -0.00    -0.01   0.00   0.00    -0.09   0.02   0.04
  10   1     0.00   0.00  -0.00    -0.00   0.00  -0.01     0.01  -0.04   0.08
  11   1     0.00   0.00   0.00    -0.00  -0.00  -0.00     0.01   0.00  -0.00
  12   1     0.00  -0.00  -0.00    -0.08   0.01   0.04     0.42  -0.10  -0.18
  13   1     0.00  -0.00   0.00     0.00   0.03  -0.07    -0.02   0.32  -0.74
  14   1     0.00  -0.00   0.00    -0.00   0.01   0.05     0.02  -0.06   0.14
  15   1     0.00  -0.00  -0.00     0.22  -0.92  -0.11    -0.01   0.02  -0.00
  16   1     0.11   0.66  -0.70     0.00   0.00   0.00     0.00   0.00  -0.00
  17   1     0.00  -0.02   0.03    -0.00  -0.00  -0.00     0.01   0.00   0.01
  18   1    -0.01  -0.04   0.04     0.00   0.00  -0.00     0.00   0.00  -0.00
  19   1     0.01   0.01   0.01     0.00   0.00   0.00     0.00  -0.00  -0.00
  20   1    -0.01   0.00   0.00     0.00  -0.00  -0.00     0.00  -0.00  -0.00
                     46                     47                     48
                        a                      a                      a 
 Frequencies --  2990.5414              2996.9591              3010.5682
 Red. masses --     1.7406                 1.5200                 1.7340
 Frc consts  --     0.0000                 0.0000                 0.0000
 IR Inten    --    16.0672                43.8393                26.9478
 Raman Activ --     0.0000                 0.0000                 0.0000
 Depolar     --     0.0000                 0.0000                 0.0000
 Atom AN      X      Y      Z        X      Y      Z        X      Y      Z
   1   6     0.00  -0.00   0.00    -0.04  -0.00  -0.00    -0.01   0.00  -0.02
   2   6    -0.00   0.00  -0.00     0.19  -0.09   0.02    -0.01  -0.02   0.05
   3   6    -0.00   0.00   0.00     0.01  -0.02  -0.01     0.02  -0.10   0.23
   4   6     0.00  -0.00  -0.00    -0.00  -0.00   0.00     0.00  -0.00   0.01
   5   8     0.00  -0.00   0.00    -0.00   0.00  -0.00    -0.00   0.00  -0.00
   6   8    -0.01   0.00  -0.00     0.00  -0.00   0.00    -0.00   0.00  -0.00
   7   6    -0.15  -0.05  -0.20    -0.00  -0.00  -0.00    -0.00  -0.00  -0.00
   8   6     0.02  -0.00   0.02     0.00  -0.00   0.00     0.00   0.00   0.00
   9   1     0.00   0.00  -0.00     0.09  -0.02  -0.05    -0.00   0.00  -0.00
  10   1    -0.00   0.00  -0.00    -0.01  -0.01   0.02     0.00  -0.03   0.06
  11   1    -0.00  -0.00  -0.00     0.05   0.03   0.04     0.02   0.01   0.01
  12   1     0.00  -0.00  -0.00    -0.72   0.14   0.38     0.03  -0.01  -0.01
  13   1     0.00  -0.01   0.02     0.03   0.18  -0.45     0.00   0.06  -0.14
  14   1    -0.00   0.00  -0.00     0.01  -0.02   0.04    -0.10   0.41  -0.85
  15   1     0.00  -0.01  -0.00    -0.03   0.11   0.01     0.01  -0.06   0.02
  16   1    -0.02  -0.01  -0.02    -0.00   0.00  -0.00     0.00   0.00  -0.00
  17   1     0.57   0.18   0.75     0.01   0.00   0.01     0.00   0.00   0.00
  18   1     0.01   0.02  -0.01     0.00   0.00  -0.00    -0.00  -0.00   0.00
  19   1    -0.07  -0.02  -0.10    -0.00  -0.00  -0.00    -0.00  -0.00  -0.01
  20   1    -0.02   0.00   0.01    -0.00   0.00   0.00    -0.00   0.00   0.00
                     49                     50                     51
                        a                      a                      a 
 Frequencies --  3024.6212              3034.4760              3037.5989
 Red. masses --     1.8930                 1.7816                 1.7930
 Frc consts  --     0.0000                 0.0000                 0.0000
 IR Inten    --    90.1366                72.8869                33.8711
 Raman Activ --     0.0000                 0.0000                 0.0000
 Depolar     --     0.0000                 0.0000                 0.0000
 Atom AN      X      Y      Z        X      Y      Z        X      Y      Z
   1   6     0.23   0.00  -0.16     0.11  -0.07   0.22     0.00  -0.01   0.02
   2   6     0.04  -0.00  -0.03     0.01  -0.01   0.03     0.00  -0.00   0.00
   3   6     0.00  -0.00  -0.00     0.00  -0.01   0.01     0.00  -0.00   0.00
   4   6    -0.00  -0.00  -0.00    -0.00  -0.00   0.00     0.00  -0.00  -0.00
   5   8     0.00   0.00   0.00    -0.00   0.00  -0.00    -0.00   0.00   0.00
   6   8     0.00   0.00   0.00    -0.00   0.00  -0.00    -0.00   0.00  -0.00
   7   6    -0.00  -0.00  -0.00     0.00   0.00   0.00    -0.02  -0.00  -0.04
   8   6    -0.00  -0.00  -0.00     0.02   0.00   0.02    -0.15  -0.02  -0.21
   9   1    -0.78   0.17   0.42    -0.18   0.03   0.14    -0.01   0.00   0.01
  10   1     0.04  -0.11   0.24    -0.01   0.35  -0.81    -0.00   0.04  -0.08
  11   1    -0.07  -0.06  -0.10    -0.21  -0.13  -0.12    -0.01  -0.01  -0.00
  12   1    -0.13   0.02   0.07    -0.02   0.00   0.01     0.00  -0.00   0.00
  13   1     0.00  -0.02   0.04     0.00   0.04  -0.09     0.00   0.00  -0.01
  14   1     0.00  -0.00   0.00    -0.01   0.02  -0.05    -0.00   0.00  -0.01
  15   1    -0.00   0.02   0.00    -0.00   0.01   0.00    -0.00   0.00   0.00
  16   1     0.00   0.00  -0.00     0.00   0.00  -0.00    -0.00  -0.02   0.01
  17   1     0.00   0.00   0.00    -0.01  -0.00  -0.01     0.07   0.02   0.10
  18   1     0.00   0.00  -0.00     0.00   0.00   0.00    -0.04  -0.08   0.06
  19   1     0.01   0.00   0.01    -0.05  -0.02  -0.07     0.57   0.16   0.74
  20   1    -0.00  -0.00  -0.00    -0.00   0.00   0.00    -0.00  -0.00  -0.03
                     52                     53                     54
                        a                      a                      a 
 Frequencies --  3045.4090              3049.4974              3062.4605
 Red. masses --     1.4769                 1.6353                 1.7442
 Frc consts  --     0.0000                 0.0000                 0.0000
 IR Inten    --    41.0015                26.1138                23.4285
 Raman Activ --     0.0000                 0.0000                 0.0000
 Depolar     --     0.0000                 0.0000                 0.0000
 Atom AN      X      Y      Z        X      Y      Z        X      Y      Z
   1   6    -0.13  -0.13  -0.09    -0.00  -0.00  -0.01    -0.00   0.00  -0.00
   2   6    -0.01   0.00  -0.00    -0.00   0.00  -0.00    -0.00   0.00  -0.00
   3   6     0.00   0.00  -0.00    -0.00   0.00  -0.00     0.00   0.00  -0.00
   4   6     0.00  -0.00  -0.00     0.00   0.00  -0.00    -0.00   0.00  -0.00
   5   8    -0.00   0.00   0.00    -0.00  -0.00   0.00    -0.00  -0.00   0.00
   6   8    -0.00   0.00   0.00    -0.00  -0.00  -0.00    -0.00  -0.00   0.00
   7   6     0.00  -0.00   0.00     0.00   0.01  -0.01     0.01   0.00  -0.00
   8   6     0.00  -0.01   0.01     0.05   0.18  -0.15     0.24  -0.00  -0.09
   9   1    -0.21   0.02   0.09    -0.01   0.00   0.00     0.00  -0.00  -0.00
  10   1    -0.03   0.09  -0.25    -0.00  -0.00   0.00    -0.00  -0.00   0.00
  11   1     0.69   0.37   0.47     0.03   0.01   0.02     0.00   0.00   0.00
  12   1     0.03  -0.01  -0.02     0.00  -0.00  -0.00     0.00  -0.00  -0.00
  13   1    -0.00  -0.01   0.02     0.00  -0.00   0.00    -0.00  -0.00   0.00
  14   1     0.00  -0.00   0.01     0.00  -0.00   0.01     0.00  -0.00   0.00
  15   1    -0.00  -0.00  -0.00     0.00  -0.00  -0.00     0.00  -0.00  -0.00
  16   1     0.00   0.00  -0.00    -0.01  -0.03   0.04    -0.00  -0.01   0.01
  17   1    -0.00  -0.00  -0.00     0.01   0.00   0.01    -0.01  -0.00  -0.02
  18   1     0.01   0.02  -0.02    -0.16  -0.65   0.68     0.02  -0.04   0.03
  19   1    -0.01  -0.00  -0.01    -0.07   0.00  -0.12     0.04   0.00  -0.00
  20   1    -0.00  -0.00   0.00     0.06   0.02  -0.04    -0.92   0.05   0.29
