
                                 *****************
                                 * O   R   C   A *
                                 *****************

                                            #,                                       
                                            ###                                      
                                            ####                                     
                                            #####                                    
                                            ######                                   
                                           ########,                                 
                                     ,,################,,,,,                         
                               ,,#################################,,                 
                          ,,##########################################,,             
                       ,#########################################, ''#####,          
                    ,#############################################,,   '####,        
                  ,##################################################,,,,####,       
                ,###########''''           ''''###############################       
              ,#####''   ,,,,##########,,,,          '''####'''          '####       
            ,##' ,,,,###########################,,,                        '##       
           ' ,,###''''                  '''############,,,                           
         ,,##''                                '''############,,,,        ,,,,,,###''
      ,#''                                            '''#######################'''  
     '                                                          ''''####''''         
             ,#######,   #######,   ,#######,      ##                                
            ,#'     '#,  ##    ##  ,#'     '#,    #''#        ,####,   ,####,        
            ##       ##  ##   ,#'  ##            #'  '#       #'       #'  '#        
            ##       ##  #######   ##           ,######,      #####,   #    #        
            '#,     ,#'  ##    ##  '#,     ,#' ,#      #,     #,   #   #,  ,#        
             '#######'   ##     ##  '#######'  #'      '#     '####' # '####'        



                #########################################################
                #                        -***-                          #
                #          Department of theory and spectroscopy        #
                #                                                       #
                #                      Frank Neese                      #
                #                                                       #
                #     Directorship, Architecture, Infrastructure        #
                #                    SHARK, DRIVERS                     #
                #        Core code/Algorithms in most modules           #
                #                                                       #
                #        Max Planck Institute fuer Kohlenforschung      #
                #                Kaiser Wilhelm Platz 1                 #
                #                 D-45470 Muelheim/Ruhr                 #
                #                      Germany                          #
                #                                                       #
                #                  All rights reserved                  #
                #                        -***-                          #
                #########################################################


                         Program Version 6.0.1  -  RELEASE   -


 With contributions from (in alphabetic order):
[Max-Planck-Institut fuer Kohlenforschung]                               
  Daniel Aravena         : Magnetic Suceptibility                        
  Michael Atanasov       : Ab Initio Ligand Field Theory (pilot matlab implementation)
  Alexander A. Auer      : GIAO ZORA, VPT2 properties, NMR spectrum      
  Ute Becker             : All parallelization in ORCA, NUMFREQ, NUMCALC 
  Giovanni Bistoni       : ED, misc. LED, open-shell LED, HFLD           
  Martin Brehm           : Molecular dynamics                            
  Dmytro Bykov           : pre 5.0 version of the SCF Hessian            
  Marcos Casanova-Páez   : Triplet and SCS-CIS(D). UHF-(DLPNO)-IP/EA/STEOM-CCSD. UHF-CVS-IP/STEOM-CCSD   
  Vijay G. Chilkuri      : MRCI spin determinant printing, contributions to CSF-ICE 
  Pauline Colinet        : FMM embedding                                 
  Dipayan Datta          : RHF DLPNO-CCSD density                        
  Achintya Kumar Dutta   : EOM-CC, STEOM-CC                              
  Nicolas Foglia         : Exact transition moments, OPA infrastructure, MCD improvements    
  Dmitry Ganyushin       : Spin-Orbit,Spin-Spin,Magnetic field MRCI      
  Miquel Garcia-Rates    : C-PCM and meta-GGA Hessian, CCSD/C-PCM, Gaussian charge scheme 
  Tiago L. C. Gouveia    : GS-ROHF, GS-ROCIS                             
  Yang Guo               : DLPNO-NEVPT2, F12-NEVPT2, CIM, IAO-localization        
  Andreas Hansen         : Spin unrestricted coupled pair/coupled cluster methods 
  Ingolf Harden          : AUTO-CI MPn and infrastructure                
  Benjamin Helmich-Paris : MC-RPA, TRAH-(SCF,CASSCF), AVAS, COSX integrals, SCF dyn. polar. 
  Lee Huntington         : MR-EOM, pCC                                   
  Robert Izsak           : Overlap fitted RIJCOSX, COSX-SCS-MP3, EOM     
  Riya Kayal             : Wick's Theorem for AUTO-CI, AUTO-CI UHF-CCSDT 
  Emily Kempfer          : AUTO-CI, RHF CISDT and CCSDT                  
  Christian Kollmar      : KDIIS, OOCD, Brueckner-CCSD(T), CCSD density, CASPT2, CASPT2-K, improved NEVPT2 
  Axel Koslowski         : Symmetry handling                             
  Simone Kossmann        : meta-GGA functionals, TD-DFT gradient, OOMP2, (MP2 Hessian; deprecated post 5.0) 
  Lucas Lang             : DCDCAS                                        
  Marvin Lechner         : AUTO-CI (C++ implementation), FIC-MRCC        
  Spencer Leger          : CASSCF response                               
  Dagmar Lenk            : GEPOL surface, SMD, ORCA-2-JSON               
  Dimitrios Liakos       : Extrapolation schemes; Compound Job, initial MDCI parallelization 
  Dimitrios Manganas     : Further ROCIS development; embedding schemes. LFT, Crystal Embedding 
  Dimitrios Pantazis     : SARC Basis sets                               
  Anastasios Papadopoulos: AUTO-CI, single reference methods and gradients 
  Taras Petrenko         : pre 6.0 DFT Hessian and TD-DFT gradient, (ASA, deprecated), ECA, 1-Electron XAS/XES, NRVS 
  Peter Pinski           : DLPNO-MP2, DLPNO-MP2 Gradient                 
  Christoph Reimann      : Effective Core Potentials                     
  Marius Retegan         : Local ZFS, SOC                                
  Christoph Riplinger    : Optimizer, TS searches, QM/MM, DLPNO-CCSD(T), (RO)-DLPNO pert. Triples 
  Michael Roemelt        : Original ROCIS implementation                 
  Masaaki Saitow         : Open-shell DLPNO-CCSD energy and density      
  Barbara Sandhoefer     : DKH picture change effects                    
  Kantharuban Sivalingam : CASSCF convergence/infrastructure, NEVPT2 and variants, FIC-MRCI 
  Bernardo de Souza      : ESD, SOC TD-DFT                               
  Georgi L. Stoychev     : AutoAux, RI-MP2 NMR, DLPNO-MP2 response, X2C  
  Van Anh Tran           : RI-MP2 g-tensors                              
  Willem Van den Heuvel  : Paramagnetic NMR                              
  Zikuan Wang            : NOTCH, Electric field optimization            
  Frank Wennmohs         : Technical directorship and infrastructure     
  Hang Xu                : AUTO-CI-Response properties                   
                                                                         
[FACCTs GmbH]                                                            
  Markus Bursch, Miquel Garcia-Rates, Christoph Riplinger, Bernardo de Souza, Georgi L. Stoychev 
                                                                 
  APM, Basis sets (HGBS, AHGBS, def-TZVP (Ac-Lr), def2-XVPD (La-Lu)), CI-OPT, improved COSX, DLPNO-Multilevel,           
  DOCKER, DRACO, updates on ESD, GOAT, IRC, LR-CPCM, MBIS, meta-GGA TD-DFT gradient, ML-optimized integration grids, 
  MM, NACMEs, nearIR, NEB, NEB-TS, NL-DFT gradient (VV10), 2- and 3-layer-ONIOM, interface openCOSMO-RS, QMMM,   
  Crystal-QMMM, SF, symmetry and pop. for TD-DFT, r2SCAN hybrids, SOLVATOR                                   
                                                                         
[Other institutions]                                                     
  V. Asgeirsson          : NEB                                           
  Christoph Bannwarth    : sTDA-DFT, sTD-DFT, PBEh-3c, B97-3c, D3        
  Sebastian Ehlert       : rSCAN, r2SCAN, r2SCAN-3c, D4, dhf basis sets  
  Marvin Friede          : D4 for Fr, Ra, Ac-Lr                          
  Lars Goerigk           : TD-DFT with DH, B97 family of functionals     
  Stefan Grimme          : VdW corrections, initial TS optimization, DFT functionals, gCP, sTDA/sTD-DF 
  Waldemar Hujo          : DFT-NL                                        
  H. Jonsson             : NEB                                           
  Holger Kruse           : gCP                                           
  Marcel Mueller         : wB97X-3c, vDZP basis set                      
  Hagen Neugebauer       : wr2SCAN                                       
  Tobias Risthaus        : range-separated hybrid DFT                    
  Lukas Wittmann         : regularized MP2, r2SCAN double-hybrids, wr2SCAN        
                                                                         
We gratefully acknowledge several colleagues who have allowed us to      
interface, adapt or use parts of their codes:                            
  Ed Valeev, F. Pavosevic, A. Kumar             : LibInt (2-el integral package), F12 methods 
  Garnet Chan, S. Sharma, J. Yang, R. Olivares  : DMRG                   
  Ulf Ekstrom                                   : XCFun DFT Library      
  Mihaly Kallay                                 : mrcc  (arbitrary order and MRCC methods)
  Frank Weinhold                                : gennbo (NPA and NBO analysis)           
  Simon Mueller                                 : openCOSMO-RS                            
  Christopher J. Cramer and Donald G. Truhlar   : smd solvation model                     
  S Lehtola, MJT Oliveira, MAL Marques          : LibXC Library                           
  Liviu Ungur et al                             : ANISO software                          


 Your calculation uses the libint2 library for the computation of 2-el integrals
 For citations please refer to: http://libint.valeyev.net

 Your ORCA version has been built with support for libXC version: 6.2.2
 For citations please refer to: https://libxc.gitlab.io

 This ORCA versions uses:
   CBLAS   interface :  Fast vector & matrix operations
   LAPACKE interface :  Fast linear algebra routines
   SCALAPACK package :  Parallel linear algebra routines
   Shared memory     :  Shared parallel matrices
   BLAS/LAPACK       :  OpenBLAS 0.3.27  USE64BITINT DYNAMIC_ARCH NO_AFFINITY Zen SINGLE_THREADED
        Core in use  :  Zen
   Copyright (c) 2011-2014, The OpenBLAS Project


Your calculation utilizes the geometrical counterpoise correction gCP
Please cite in your paper:
H.Kruse, S. Grimme J.Chem.Phys., 136, (2012), 154101 
   

Your calculation utilizes the atom-pairwise dispersion correction
based on EEQ partial charges (D4)


================================================================================

----- Orbital basis set information -----
Your calculation utilizes the basis: def2-SV(P)
   F. Weigend and R. Ahlrichs, Phys. Chem. Chem. Phys. 7, 3297 (2005).

----- AuxJ basis set information -----
Your calculation utilizes the auxiliary basis: def2/J
   F. Weigend, Phys. Chem. Chem. Phys. 8, 1057 (2006).

================================================================================
                                        WARNINGS
                       Please study these warnings very carefully!
================================================================================


================================================================================
                                       INPUT FILE
================================================================================
NAME = sp.inp
|  1> ! pbe def2-sv(p) def2/J RI DEFGRID1 loosescf d4 GCP(DFT/SV(P)) printgap
|  2> %output
|  3>     printlevel normal
|  4> end
|  5> * xyz 0 1
|  6> C -3.7757916126 0.5563045368 -1.7582819509
|  7> C -3.2848748301 -0.4466076826 -0.7128182681
|  8> H -3.5528888681 -1.4633356477 -1.0124918123
|  9> C -1.7845275853 -0.3775586843 -0.5308954218
| 10> C -0.9853738496 -1.4823805899 -0.7959621789
| 11> C 0.3859062518 -1.4183791032 -0.6396757232
| 12> C 1.0176895979 -0.2513860431 -0.2132816795
| 13> C 0.1919477476 0.8364989052 0.0513486769
| 14> C -1.1786758165 0.7938079179 -0.0947003898
| 15> F 0.7362094917 2.0031164832 0.5090207337
| 16> C 2.4788512711 -0.1951487261 -0.0496077406
| 17> C 3.213579104 0.8881850337 -0.5240136182
| 18> C 4.5878644645 0.9208176182 -0.3723750908
| 19> C 5.2453473689 -0.1231097142 0.2565790232
| 20> C 4.5216730239 -1.2044241398 0.7323009706
| 21> C 3.1485294724 -1.2432417357 0.5781960867
| 22> C -3.9102330095 -0.2137749137 0.6491161978
| 23> O -4.2172418857 -1.1131477508 1.4035397361
| 24> O -4.0612680987 1.0590084764 0.9578211733
| 25> H -3.5525815356 1.5733386071 -1.4522148069
| 26> H -3.283768295 0.3574507701 -2.7060539877
| 27> H -4.8499494294 0.460122434 -1.8917781913
| 28> H -1.4394534176 -2.4019024272 -1.1306059092
| 29> H 0.991865657 -2.2816000269 -0.8657153725
| 30> H -1.7575984448 1.6720914395 0.1426371894
| 31> H 2.7089706418 1.70180834 -1.0234071619
| 32> H 5.1465707266 1.7649439591 -0.7475335524
| 33> H 6.3175789215 -0.0936123035 0.3765464856
| 34> H 5.0288862324 -2.0191883045 1.226605807
| 35> H 2.5841687712 -2.07915734 0.9636806302
| 36> H -4.4481011588 1.1893559395 1.8454828019
| 37> *
| 38> 
| 39>                          ****END OF INPUT****
================================================================================

                       ****************************
                       * Single Point Calculation *
                       ****************************

---------------------------------
CARTESIAN COORDINATES (ANGSTROEM)
---------------------------------
  C     -3.775792    0.556305   -1.758282
  C     -3.284875   -0.446608   -0.712818
  H     -3.552889   -1.463336   -1.012492
  C     -1.784528   -0.377559   -0.530895
  C     -0.985374   -1.482381   -0.795962
  C      0.385906   -1.418379   -0.639676
  C      1.017690   -0.251386   -0.213282
  C      0.191948    0.836499    0.051349
  C     -1.178676    0.793808   -0.094700
  F      0.736209    2.003116    0.509021
  C      2.478851   -0.195149   -0.049608
  C      3.213579    0.888185   -0.524014
  C      4.587864    0.920818   -0.372375
  C      5.245347   -0.123110    0.256579
  C      4.521673   -1.204424    0.732301
  C      3.148529   -1.243242    0.578196
  C     -3.910233   -0.213775    0.649116
  O     -4.217242   -1.113148    1.403540
  O     -4.061268    1.059008    0.957821
  H     -3.552582    1.573339   -1.452215
  H     -3.283768    0.357451   -2.706054
  H     -4.849949    0.460122   -1.891778
  H     -1.439453   -2.401902   -1.130606
  H      0.991866   -2.281600   -0.865715
  H     -1.757598    1.672091    0.142637
  H      2.708971    1.701808   -1.023407
  H      5.146571    1.764944   -0.747534
  H      6.317579   -0.093612    0.376546
  H      5.028886   -2.019188    1.226606
  H      2.584169   -2.079157    0.963681
  H     -4.448101    1.189356    1.845483

----------------------------
CARTESIAN COORDINATES (A.U.)
----------------------------
  NO LB      ZA    FRAG     MASS         X           Y           Z
   0 C     6.0000    0    12.011   -7.135212    1.051263   -3.322671
   1 C     6.0000    0    12.011   -6.207514   -0.843966   -1.347031
   2 H     1.0000    0     1.008   -6.713987   -2.765304   -1.913332
   3 C     6.0000    0    12.011   -3.372268   -0.713483   -1.003247
   4 C     6.0000    0    12.011   -1.862087   -2.801293   -1.504151
   5 C     6.0000    0    12.011    0.729257   -2.680348   -1.208812
   6 C     6.0000    0    12.011    1.923155   -0.475051   -0.403044
   7 C     6.0000    0    12.011    0.362729    1.580754    0.097035
   8 C     6.0000    0    12.011   -2.227374    1.500080   -0.178958
   9 F     9.0000    0    18.998    1.391234    3.785342    0.961910
  10 C     6.0000    0    12.011    4.684350   -0.368778   -0.093745
  11 C     6.0000    0    12.011    6.072784    1.678426   -0.990242
  12 C     6.0000    0    12.011    8.669807    1.740093   -0.703687
  13 C     6.0000    0    12.011    9.912270   -0.232644    0.484864
  14 C     6.0000    0    12.011    8.544724   -2.276032    1.383848
  15 C     6.0000    0    12.011    5.949858   -2.349386    1.092632
  16 C     6.0000    0    12.011   -7.389270   -0.403976    1.226652
  17 O     8.0000    0    15.999   -7.969432   -2.103544    2.652306
  18 O     8.0000    0    15.999   -7.674684    2.001236    1.810020
  19 H     1.0000    0     1.008   -6.713406    2.973179   -2.744288
  20 H     1.0000    0     1.008   -6.205423    0.675484   -5.113701
  21 H     1.0000    0     1.008   -9.165076    0.869505   -3.574943
  22 H     1.0000    0     1.008   -2.720173   -4.538938   -2.136536
  23 H     1.0000    0     1.008    1.874354   -4.311599   -1.635965
  24 H     1.0000    0     1.008   -3.321380    3.159795    0.269545
  25 H     1.0000    0     1.008    5.119213    3.215952   -1.933959
  26 H     1.0000    0     1.008    9.725609    3.335261   -1.412634
  27 H     1.0000    0     1.008   11.938494   -0.176902    0.711570
  28 H     1.0000    0     1.008    9.503218   -3.815713    2.317949
  29 H     1.0000    0     1.008    4.883371   -3.929038    1.821092
  30 H     1.0000    0     1.008   -8.405693    2.247557    3.487457

--------------------------------
INTERNAL COORDINATES (ANGSTROEM)
--------------------------------
 C      0   0   0     0.000000000000     0.00000000     0.00000000
 C      1   0   0     1.529649149059     0.00000000     0.00000000
 H      2   1   0     1.093330468191   110.10284190     0.00000000
 C      2   1   3     1.512912932442   111.74828439   120.74130408
 C      4   2   1     1.389078299484   120.74965938   241.06109786
 C      5   4   2     1.381640605596   120.83513713   179.52963892
 C      6   5   4     1.393856118555   121.55056761     0.00000000
 C      7   6   5     1.391176656504   116.35082311     0.34093906
 C      8   7   6     1.379043800880   123.06422330   359.81624594
 F      8   7   6     1.366265395509   119.66923840   178.18307707
 C      7   6   5     1.471375285006   121.07406790   179.96242915
 C     11   7   6     1.392299522467   121.05638536   135.14475540
 C     12  11   7     1.383010983560   120.35648320   180.54804999
 C     13  12  11     1.384792880696   120.25197467   359.82095380
 C     14  13  12     1.385372446622   119.75856454     0.13612886
 C     15  14  13     1.382309058792   120.16822716     0.11078960
 C      2   1   3     1.516624356992   112.38122193   241.17216756
 O     17   2   1     1.213375797237   123.28999107   143.42520549
 O     17   2   1     1.318365623863   113.93655321   321.80348634
 H      1   2   3     1.085291728183   110.83388258   177.62406546
 H      1   2   3     1.086232755597   109.32623616   297.71329091
 H      1   2   3     1.086686366203   110.06981078    57.32185616
 H      5   4   2     1.078746999799   119.66938553   359.69033313
 H      6   5   4     1.078624627440   119.78846114   180.99502222
 H      9   8   7     1.078361015788   119.01601212   179.12261782
 H     12  11   7     1.079817806932   119.81868751   359.82232088
 H     13  12  11     1.079558167966   119.64432237   179.79474855
 H     14  13  12     1.079325155671   120.10247623   180.20401686
 H     15  14  13     1.079556924967   120.05825472   180.22470961
 H     16  15  14     1.079748226138   120.07620736   180.99010851
 H     19  17   2     0.977022745084   112.76172082   181.19067784

---------------------------
INTERNAL COORDINATES (A.U.)
---------------------------
 C      0   0   0     0.000000000000     0.00000000     0.00000000
 C      1   0   0     2.890617972706     0.00000000     0.00000000
 H      2   1   0     2.066095158753   110.10284190     0.00000000
 C      2   1   3     2.858991106784   111.74828439   120.74130408
 C      4   2   1     2.624977564597   120.74965938   241.06109786
 C      5   4   2     2.610922360081   120.83513713   179.52963892
 C      6   5   4     2.634006334160   121.55056761     0.00000000
 C      7   6   5     2.628942884698   116.35082311     0.34093906
 C      8   7   6     2.606015110346   123.06422330   359.81624594
 F      8   7   6     2.581867423765   119.66923840   178.18307707
 C      7   6   5     2.780496328882   121.07406790   179.96242915
 C     11   7   6     2.631064793852   121.05638536   135.14475540
 C     12  11   7     2.613511999134   120.35648320   180.54804999
 C     13  12  11     2.616879296720   120.25197467   359.82095380
 C     14  13  12     2.617974517596   119.75856454     0.13612886
 C     15  14  13     2.612185553556   120.16822716     0.11078960
 C      2   1   3     2.866004682750   112.38122193   241.17216756
 O     17   2   1     2.292947954306   123.28999107   143.42520549
 O     17   2   1     2.491349973477   113.93655321   321.80348634
 H      1   2   3     2.050904141675   110.83388258   177.62406546
 H      1   2   3     2.052682425774   109.32623616   297.71329091
 H      1   2   3     2.053539625591   110.06981078    57.32185616
 H      5   4   2     2.038536397410   119.66938553   359.69033313
 H      6   5   4     2.038305147164   119.78846114   180.99502222
 H      9   8   7     2.037806993337   119.01601212   179.12261782
 H     12  11   7     2.040559929633   119.81868751   359.82232088
 H     13  12  11     2.040069283093   119.64432237   179.79474855
 H     14  13  12     2.039628953670   120.10247623   180.20401686
 H     15  14  13     2.040066934166   120.05825472   180.22470961
 H     16  15  14     2.040428440988   120.07620736   180.99010851
 H     19  17   2     1.846305414821   112.76172082   181.19067784

---------------------
BASIS SET INFORMATION
---------------------
There are 4 groups of distinct atoms

 Group   1 Type C   : 7s4p1d contracted to 3s2p1d pattern {511/31/1}
 Group   2 Type H   : 4s contracted to 2s pattern {31}
 Group   3 Type F   : 7s4p1d contracted to 3s2p1d pattern {511/31/1}
 Group   4 Type O   : 7s4p1d contracted to 3s2p1d pattern {511/31/1}

Atom   0C    basis set group =>   1
Atom   1C    basis set group =>   1
Atom   2H    basis set group =>   2
Atom   3C    basis set group =>   1
Atom   4C    basis set group =>   1
Atom   5C    basis set group =>   1
Atom   6C    basis set group =>   1
Atom   7C    basis set group =>   1
Atom   8C    basis set group =>   1
Atom   9F    basis set group =>   3
Atom  10C    basis set group =>   1
Atom  11C    basis set group =>   1
Atom  12C    basis set group =>   1
Atom  13C    basis set group =>   1
Atom  14C    basis set group =>   1
Atom  15C    basis set group =>   1
Atom  16C    basis set group =>   1
Atom  17O    basis set group =>   4
Atom  18O    basis set group =>   4
Atom  19H    basis set group =>   2
Atom  20H    basis set group =>   2
Atom  21H    basis set group =>   2
Atom  22H    basis set group =>   2
Atom  23H    basis set group =>   2
Atom  24H    basis set group =>   2
Atom  25H    basis set group =>   2
Atom  26H    basis set group =>   2
Atom  27H    basis set group =>   2
Atom  28H    basis set group =>   2
Atom  29H    basis set group =>   2
Atom  30H    basis set group =>   2
---------------------------------
AUXILIARY/J BASIS SET INFORMATION
---------------------------------
There are 4 groups of distinct atoms

 Group   1 Type C   : 12s5p4d2f1g contracted to 6s4p3d1f1g pattern {711111/2111/211/2/1}
 Group   2 Type H   : 5s2p1d contracted to 3s1p1d pattern {311/2/1}
 Group   3 Type F   : 12s5p4d2f1g contracted to 6s4p3d1f1g pattern {711111/2111/211/2/1}
 Group   4 Type O   : 12s5p4d2f1g contracted to 6s4p3d1f1g pattern {711111/2111/211/2/1}

Atom   0C    basis set group =>   1
Atom   1C    basis set group =>   1
Atom   2H    basis set group =>   2
Atom   3C    basis set group =>   1
Atom   4C    basis set group =>   1
Atom   5C    basis set group =>   1
Atom   6C    basis set group =>   1
Atom   7C    basis set group =>   1
Atom   8C    basis set group =>   1
Atom   9F    basis set group =>   3
Atom  10C    basis set group =>   1
Atom  11C    basis set group =>   1
Atom  12C    basis set group =>   1
Atom  13C    basis set group =>   1
Atom  14C    basis set group =>   1
Atom  15C    basis set group =>   1
Atom  16C    basis set group =>   1
Atom  17O    basis set group =>   4
Atom  18O    basis set group =>   4
Atom  19H    basis set group =>   2
Atom  20H    basis set group =>   2
Atom  21H    basis set group =>   2
Atom  22H    basis set group =>   2
Atom  23H    basis set group =>   2
Atom  24H    basis set group =>   2
Atom  25H    basis set group =>   2
Atom  26H    basis set group =>   2
Atom  27H    basis set group =>   2
Atom  28H    basis set group =>   2
Atom  29H    basis set group =>   2
Atom  30H    basis set group =>   2
------------------------------------------------------------------------------
                             ORCA STARTUP CALCULATIONS
                           -- RI-GTO INTEGRALS CHOSEN --
------------------------------------------------------------------------------
------------------------------------------------------------------------------
                   ___                                                        
                  /   \      - P O W E R E D   B Y -                         
                 /     \                                                     
                 |  |  |   _    _      __       _____    __    __             
                 |  |  |  | |  | |    /  \     |  _  \  |  |  /  |          
                  \  \/   | |  | |   /    \    | | | |  |  | /  /          
                 / \  \   | |__| |  /  /\  \   | |_| |  |  |/  /          
                |  |  |   |  __  | /  /__\  \  |    /   |      \           
                |  |  |   | |  | | |   __   |  |    \   |  |\   \          
                \     /   | |  | | |  |  |  |  | |\  \  |  | \   \       
                 \___/    |_|  |_| |__|  |__|  |_| \__\ |__|  \__/        
                                                                              
                      - O R C A' S   B I G   F R I E N D -                    
                                      &                                       
                       - I N T E G R A L  F E E D E R -                       
                                                                              
 v1 FN, 2020, v2 2021, v3 2022-2024                                           
------------------------------------------------------------------------------


----------------------
SHARK INTEGRAL PACKAGE
----------------------

Number of atoms                             ...     31
Number of basis functions                   ...    278
Number of shells                            ...    134
Maximum angular momentum                    ...      2
Integral batch strategy                     ... SHARK/LIBINT Hybrid
RI-J (if used) integral strategy            ... SPLIT-RIJ (Revised 2003 algorithm where possible)
Printlevel                                  ...      1
Contraction scheme used                     ... SEGMENTED contraction
Prescreening option                         ... SCHWARTZ
   Thresh                                   ... 1.000e-09
   Tcut                                     ... 1.000e-10
   Tpresel                                  ... 1.000e-10 
Coulomb Range Separation                    ... NOT USED
Exchange Range Separation                   ... NOT USED
Multipole approximations                    ... NOT USED
Finite Nucleus Model                        ... NOT USED
CABS basis                                  ... NOT available
Auxiliary Coulomb fitting basis             ... AVAILABLE
   # of basis functions in Aux-J            ...   1025
   # of shells in Aux-J                     ...    335
   Maximum angular momentum in Aux-J        ...      4
Auxiliary J/K fitting basis                 ... NOT available
Auxiliary Correlation fitting basis         ... NOT available
Auxiliary 'external' fitting basis          ... NOT available

Checking pre-screening integrals            ... done (  0.0 sec) Dimension = 134
Check shell pair data                       ... done (  0.0 sec)
Shell pair information
Shell pair cut-off parameter TPreSel        ...   1.0e-10
Total number of shell pairs                 ...      9045
Shell pairs after pre-screening             ...      6719
Total number of primitive shell pairs       ...     36319
Primitive shell pairs kept                  ...     17125
          la=0 lb=0:   2340 shell pairs
          la=1 lb=0:   2259 shell pairs
          la=1 lb=1:    567 shell pairs
          la=2 lb=0:    963 shell pairs
          la=2 lb=1:    487 shell pairs
          la=2 lb=2:    103 shell pairs

Calculating one electron integrals          ... done (  0.1 sec)
Calculating RI/J V-Matrix + Cholesky decomp.... done (  0.1 sec)
Calculating Nuclear repulsion               ... done (  0.0 sec) ENN=   1229.351020041368 Eh

Diagonalization of the overlap matrix:
Smallest eigenvalue                        ... 2.241e-04
Time for diagonalization                   ...    0.019 sec
Threshold for overlap eigenvalues          ... 1.000e-07
Number of eigenvalues below threshold      ... 0
Time for construction of square roots      ...    0.008 sec
Total time needed                          ...    0.029 sec

-------------------
DFT GRID GENERATION
-------------------

General Integration Accuracy     IntAcc      ... 4.159
Radial Grid Type                 RadialGrid  ... OptM3 with GC (2021)
Angular Grid (max. ang.)         AngularGrid ... 3 (Lebedev-194)
Angular grid pruning method      GridPruning ... 4 (adaptive)
Weight generation scheme         WeightScheme... mBecke (2022)
Basis function cutoff            BFCut       ... 1.0000e-10
Integration weight cutoff        WCut        ... 1.0000e-14
Partially contracted basis set               ... off
Rotationally invariant grid construction     ... off
Angular grids for H and He will be reduced by one unit

Total number of grid points                  ...    76555
Total number of batches                      ...     1210
Average number of points per batch           ...       63
Average number of grid points per atom       ...     2470
Initializing property integral containers    ... done (  0.0 sec)

SHARK setup successfully completed in   1.1 seconds

Maximum memory used throughout the entire STARTUP-calculation: 40.5 MB
-------------------------------------------------------------------------------
                                 ORCA GUESS
                   Start orbitals & Density for SCF / CASSCF
-------------------------------------------------------------------------------

------------
SCF SETTINGS
------------
Hamiltonian:
 Density Functional     Method          .... DFT(GTOs)
 Exchange Functional    Exchange        .... PBE
   PBE kappa parameter   XKappa         ....  0.804000
   PBE mue parameter    XMuePBE         ....  0.219520
 Correlation Functional Correlation     .... PBE
   PBE beta parameter  CBetaPBE         ....  0.066725
 LDA part of GGA corr.  LDAOpt          .... PW91-LDA
 Gradients option       PostSCFGGA      .... off
   NL short-range parameter             ....  6.400000
 RI-approximation to the Coulomb term is turned on
   Number of AuxJ basis functions       .... 1025


General Settings:
 Integral files         IntName         .... sp
 Hartree-Fock type      HFTyp           .... RHF
 Total Charge           Charge          ....    0
 Multiplicity           Mult            ....    1
 Number of Electrons    NEL             ....  128
 Basis Dimension        Dim             ....  278
 Nuclear Repulsion      ENuc            ....   1229.3510200414 Eh

Convergence Acceleration:
 AO-DIIS                CNVDIIS         .... on
   Start iteration      DIISMaxIt       ....    12
   Startup error        DIISStart       ....  0.200000
   # of expansion vecs  DIISMaxEq       ....     5
   Bias factor          DIISBfac        ....   1.050
   Max. coefficient     DIISMaxC        ....  10.000
 MO-DIIS                CNVKDIIS        .... off
 Trust-Rad. Augm. Hess. CNVTRAH         .... auto
   Auto Start mean grad. ratio tolernc. ....  1.125000
   Auto Start start iteration           ....    50
   Auto Start num. interpolation iter.  ....    10
   Max. Number of Micro iterations      ....    24
   Max. Number of Macro iterations      .... Maxiter - #DIIS iter
   Number of Davidson start vectors     ....     2
   Converg. threshold    (grad. norm)   ....   1.000e-04
   Grad. Scal. Fac. for Micro threshold ....   0.100
   Minimum threshold for Micro iter.    ....   1.000e-02
   NR start threshold (gradient norm)   ....   1.000e-04
   Initial trust radius                 ....   0.400
   Minimum AH scaling param. (alpha)    ....   1.000
   Maximum AH scaling param. (alpha)    .... 1000.000
   Quad. conv. algorithm                .... NR
   White noise on init. David. guess    .... on
   Maximum white noise                  ....   0.010
   Pseudo random numbers                .... off
   Inactive MOs                         .... canonical
   Orbital update algorithm             .... Taylor
   Preconditioner                       .... Diag
   Full preconditioner red. dimension   ....   250
 SOSCF                  CNVSOSCF        .... on
   Start iteration      SOSCFMaxIt      ....   150
   Startup grad/error   SOSCFStart      ....  0.003300
   Hessian update       SOSCFHessUp     .... L-BFGS
 Level Shifting         CNVShift        .... on
   Level shift para.    LevelShift      ....    0.2500
   Turn off err/grad.   ShiftErr        ....    0.0010
 Zerner damping         CNVZerner       .... off
 Static damping         CNVDamp         .... on
   Fraction old density DampFac         ....    0.7000
   Max. Damping (<1)    DampMax         ....    0.9800
   Min. Damping (>=0)   DampMin         ....    0.0000
   Turn off err/grad.   DampErr         ....    0.1000

SCF Procedure:
 Maximum # iterations   MaxIter         ....   125
 SCF integral mode      SCFMode         .... Direct
   Integral package                     .... SHARK and LIBINT hybrid scheme
 Reset frequency        DirectResetFreq ....    20
 Integral Threshold     Thresh          ....  1.000e-09 Eh
 Primitive CutOff       TCut            ....  1.000e-10 Eh

Convergence Tolerance:
 Convergence Check Mode ConvCheckMode   .... Total+1el-Energy
 Convergence forced     ConvForced      .... 0
 Energy Change          TolE            ....  1.000e-05 Eh
 1-El. energy change                    ....  1.000e-02 Eh
 Orbital Gradient       TolG            ....  1.000e-04
 Orbital Rotation angle TolX            ....  1.000e-04
 DIIS Error             TolErr          ....  5.000e-04

------------------------------
INITIAL GUESS: MODEL POTENTIAL
------------------------------
Loading Hartree-Fock densities                     ... done
Calculating cut-offs                               ... done
Initializing the effective Hamiltonian             ... done
Setting up the integral package (SHARK)            ... done
Starting the Coulomb interaction                   ... done (   0.4 sec)
Making the grid                                    ... done (   0.4 sec)
Mapping shells                                     ... done
Starting the XC term evaluation                    ... done (   0.3 sec)
  promolecular density results
     # of electrons  =    127.992658647
     EX              =   -106.925355035
     EC              =     -4.303365428
     EX+EC           =   -111.228720463
Transforming the Hamiltonian                       ... done (   0.0 sec)
Diagonalizing the Hamiltonian                      ... done (   0.0 sec)
Back transforming the eigenvectors                 ... done (   0.0 sec)
Now organizing SCF variables                       ... done
                      ------------------
                      INITIAL GUESS DONE (   1.1 sec)
                      ------------------
             **** ENERGY FILE WAS UPDATED (sp.en.tmp) ****
Finished Guess after   1.2 sec
Maximum memory used throughout the entire GUESS-calculation: 32.0 MB

-------------------------------------------------------------------------------------------
                                      ORCA LEAN-SCF
                              memory conserving SCF solver
-------------------------------------------------------------------------------------------

----------------------------------------D-I-I-S--------------------------------------------
Iteration    Energy (Eh)           Delta-E    RMSDP     MaxDP     DIISErr   Damp  Time(sec)
-------------------------------------------------------------------------------------------
               ***  Starting incremental Fock matrix formation  ***
    1    -827.7455740563755171     0.00e+00  3.25e-03  1.64e-01  2.49e-01  0.700   1.5
    2    -827.9239433889983957    -1.78e-01  2.11e-03  9.58e-02  8.13e-02  0.700   1.4
                               ***Turning on AO-DIIS***
    3    -827.9832888593732605    -5.93e-02  8.68e-04  1.95e-02  2.90e-02  0.700   1.3
    4    -828.0208192309360129    -3.75e-02  1.52e-03  4.62e-02  1.22e-02  0.000   1.3
    5    -828.1057849005956086    -8.50e-02  3.90e-04  1.19e-02  7.08e-03  0.000   1.3
    6    -828.1065944167135058    -8.10e-04  1.40e-04  3.38e-03  3.46e-03  0.000   1.3
                              *** Initializing SOSCF ***
---------------------------------------S-O-S-C-F--------------------------------------
Iteration    Energy (Eh)           Delta-E    RMSDP     MaxDP     MaxGrad    Time(sec)
--------------------------------------------------------------------------------------
    7    -828.1066766381718480    -8.22e-05  5.21e-05  1.56e-03  1.08e-03     1.2
               *** Restarting incremental Fock matrix formation ***
    8    -828.1066836993186371    -7.06e-06  3.37e-05  8.92e-04  9.97e-05     1.5
    9    -828.1066825716420681     1.13e-06  1.55e-05  6.72e-04  2.27e-04     1.2
                 **** Energy Check signals convergence ****

               *****************************************************
               *                     SUCCESS                       *
               *           SCF CONVERGED AFTER   9 CYCLES          *
               *****************************************************

             **** ENERGY FILE WAS UPDATED (sp.en.tmp) ****

----------------
TOTAL SCF ENERGY
----------------

Total Energy       :       -828.10668257164207 Eh          -22533.92844 eV

Components:
Nuclear Repulsion  :       1229.35102004136843 Eh           33452.34194 eV
Electronic Energy  :      -2057.45770261301095 Eh          -55986.27038 eV
One Electron Energy:      -3569.24981144406092 Eh          -97124.22507 eV
Two Electron Energy:       1511.79210883105020 Eh           41137.95469 eV

Virial components:
Potential Energy   :      -1649.60686449309333 Eh          -44888.08485 eV
Kinetic Energy     :        821.50018192145114 Eh           22354.15641 eV
Virial Ratio       :          2.00804199535871

DFT components:
N(Alpha)           :       63.999825718310 electrons
N(Beta)            :       63.999825718310 electrons
N(Total)           :      127.999651436619 electrons
E(X)               :     -108.581123583279 Eh       
E(C)               :       -4.322413749002 Eh       
E(XC)              :     -112.903537332280 Eh       

---------------
SCF CONVERGENCE
---------------

  Last Energy change         ...   -1.1277e-06  Tolerance :   1.0000e-05
  Last MAX-Density change    ...    6.7214e-04  Tolerance :   1.0000e-03
  Last RMS-Density change    ...    1.5475e-05  Tolerance :   1.0000e-04
  Last DIIS Error            ...    1.0762e-03  Tolerance :   5.0000e-04
  Last Orbital Gradient      ...    2.2652e-04  Tolerance :   1.0000e-04
  Last Orbital Rotation      ...    5.7825e-04  Tolerance :   1.0000e-04


----------------
ORBITAL ENERGIES
----------------

  NO   OCC          E(Eh)            E(eV) 
   0   2.0000     -24.270249      -660.4270 
   1   2.0000     -18.810132      -511.8497 
   2   2.0000     -18.739543      -509.9289 
   3   2.0000     -10.017709      -272.5957 
   4   2.0000      -9.976466      -271.4734 
   5   2.0000      -9.920496      -269.9504 
   6   2.0000      -9.918637      -269.8998 
   7   2.0000      -9.912365      -269.7292 
   8   2.0000      -9.908826      -269.6329 
   9   2.0000      -9.903810      -269.4964 
  10   2.0000      -9.899899      -269.3899 
  11   2.0000      -9.898811      -269.3603 
  12   2.0000      -9.895534      -269.2712 
  13   2.0000      -9.894896      -269.2538 
  14   2.0000      -9.894273      -269.2369 
  15   2.0000      -9.894030      -269.2302 
  16   2.0000      -9.893793      -269.2238 
  17   2.0000      -9.890590      -269.1366 
  18   2.0000      -1.094954       -29.7952 
  19   2.0000      -1.018446       -27.7133 
  20   2.0000      -0.915116       -24.9016 
  21   2.0000      -0.800542       -21.7839 
  22   2.0000      -0.779615       -21.2144 
  23   2.0000      -0.741455       -20.1760 
  24   2.0000      -0.697621       -18.9832 
  25   2.0000      -0.678961       -18.4755 
  26   2.0000      -0.672406       -18.2971 
  27   2.0000      -0.649569       -17.6757 
  28   2.0000      -0.611018       -16.6266 
  29   2.0000      -0.584752       -15.9119 
  30   2.0000      -0.562924       -15.3180 
  31   2.0000      -0.547486       -14.8979 
  32   2.0000      -0.537373       -14.6227 
  33   2.0000      -0.527592       -14.3565 
  34   2.0000      -0.490268       -13.3409 
  35   2.0000      -0.468817       -12.7572 
  36   2.0000      -0.455335       -12.3903 
  37   2.0000      -0.438983       -11.9453 
  38   2.0000      -0.429838       -11.6965 
  39   2.0000      -0.417534       -11.3617 
  40   2.0000      -0.417339       -11.3564 
  41   2.0000      -0.409578       -11.1452 
  42   2.0000      -0.400421       -10.8960 
  43   2.0000      -0.394889       -10.7455 
  44   2.0000      -0.391845       -10.6626 
  45   2.0000      -0.387522       -10.5450 
  46   2.0000      -0.375934       -10.2297 
  47   2.0000      -0.367245        -9.9932 
  48   2.0000      -0.361543        -9.8381 
  49   2.0000      -0.345399        -9.3988 
  50   2.0000      -0.342708        -9.3256 
  51   2.0000      -0.333412        -9.0726 
  52   2.0000      -0.328430        -8.9370 
  53   2.0000      -0.319124        -8.6838 
  54   2.0000      -0.317579        -8.6418 
  55   2.0000      -0.312629        -8.5071 
  56   2.0000      -0.302670        -8.2361 
  57   2.0000      -0.294441        -8.0122 
  58   2.0000      -0.276496        -7.5238 
  59   2.0000      -0.253880        -6.9084 
  60   2.0000      -0.232142        -6.3169 
  61   2.0000      -0.230577        -6.2743 
  62   2.0000      -0.223049        -6.0695 
  63   2.0000      -0.207257        -5.6398 
  64   0.0000      -0.064784        -1.7629 
  65   0.0000      -0.041241        -1.1222 
  66   0.0000      -0.036709        -0.9989 
  67   0.0000      -0.027796        -0.7564 
  68   0.0000      -0.006911        -0.1881 
  69   0.0000       0.016733         0.4553 
  70   0.0000       0.043180         1.1750 
  71   0.0000       0.049266         1.3406 
  72   0.0000       0.059550         1.6204 
  73   0.0000       0.069263         1.8848 
  74   0.0000       0.080752         2.1974 
*Only the first 10 virtual orbitals were printed.

                    ********************************
                    * MULLIKEN POPULATION ANALYSIS *
                    ********************************

-----------------------
MULLIKEN ATOMIC CHARGES
-----------------------
   0 C :   -0.225296
   1 C :   -0.126066
   2 H :    0.083450
   3 C :    0.116728
   4 C :   -0.101066
   5 C :   -0.118476
   6 C :    0.031099
   7 C :    0.272038
   8 C :   -0.235135
   9 F :   -0.172047
  10 C :    0.111957
  11 C :   -0.096219
  12 C :   -0.052315
  13 C :   -0.045388
  14 C :   -0.049273
  15 C :   -0.111284
  16 C :    0.111630
  17 O :   -0.182492
  18 O :   -0.286845
  19 H :    0.122316
  20 H :    0.109719
  21 H :    0.109474
  22 H :    0.043059
  23 H :    0.051000
  24 H :    0.056176
  25 H :    0.049620
  26 H :    0.054149
  27 H :    0.054918
  28 H :    0.053623
  29 H :    0.050142
  30 H :    0.320804
Sum of atomic charges:   -0.0000000

--------------------------------
MULLIKEN REDUCED ORBITAL CHARGES
--------------------------------
  0 C s       :     3.077581  s :     3.077581
      pz      :     1.024164  p :     3.118850
      px      :     1.045531
      py      :     1.049155
      dz2     :     0.007421  d :     0.028865
      dxz     :     0.004798
      dyz     :     0.004605
      dx2y2   :     0.009782
      dxy     :     0.002258

  1 C s       :     3.079491  s :     3.079491
      pz      :     0.981384  p :     3.006084
      px      :     0.999611
      py      :     1.025089
      dz2     :     0.009811  d :     0.040492
      dxz     :     0.009313
      dyz     :     0.005554
      dx2y2   :     0.010107
      dxy     :     0.005707

  2 H s       :     0.916550  s :     0.916550

  3 C s       :     2.971863  s :     2.971863
      pz      :     0.976091  p :     2.869333
      px      :     0.954756
      py      :     0.938486
      dz2     :     0.003886  d :     0.042077
      dxz     :     0.006654
      dyz     :     0.006690
      dx2y2   :     0.012576
      dxy     :     0.012270

  4 C s       :     3.259097  s :     3.259097
      pz      :     0.996153  p :     2.807425
      px      :     0.930312
      py      :     0.880959
      dz2     :     0.002827  d :     0.034544
      dxz     :     0.006262
      dyz     :     0.004043
      dx2y2   :     0.010003
      dxy     :     0.011408

  5 C s       :     3.279680  s :     3.279680
      pz      :     0.986326  p :     2.803841
      px      :     0.906561
      py      :     0.910953
      dz2     :     0.003698  d :     0.034956
      dxz     :     0.006058
      dyz     :     0.003802
      dx2y2   :     0.008688
      dxy     :     0.012709

  6 C s       :     3.040551  s :     3.040551
      pz      :     1.014883  p :     2.888628
      px      :     0.933310
      py      :     0.940436
      dz2     :     0.003817  d :     0.039722
      dxz     :     0.007341
      dyz     :     0.005721
      dx2y2   :     0.010367
      dxy     :     0.012476

  7 C s       :     3.006959  s :     3.006959
      pz      :     0.974048  p :     2.643985
      px      :     0.890441
      py      :     0.779497
      dz2     :     0.007281  d :     0.077017
      dxz     :     0.010644
      dyz     :     0.014084
      dx2y2   :     0.022323
      dxy     :     0.022685

  8 C s       :     3.391010  s :     3.391010
      pz      :     1.027428  p :     2.811726
      px      :     0.934983
      py      :     0.849315
      dz2     :     0.003665  d :     0.032399
      dxz     :     0.005738
      dyz     :     0.003851
      dx2y2   :     0.009634
      dxy     :     0.009511

  9 F s       :     3.897308  s :     3.897308
      pz      :     1.834095  p :     5.267295
      px      :     1.843018
      py      :     1.590182
      dz2     :     0.000997  d :     0.007443
      dxz     :     0.000588
      dyz     :     0.001918
      dx2y2   :     0.001909
      dxy     :     0.002031

 10 C s       :     2.994810  s :     2.994810
      pz      :     0.966860  p :     2.852134
      px      :     0.948118
      py      :     0.937156
      dz2     :     0.005201  d :     0.041099
      dxz     :     0.007590
      dyz     :     0.005777
      dx2y2   :     0.012084
      dxy     :     0.010446

 11 C s       :     3.264239  s :     3.264239
      pz      :     0.954037  p :     2.797432
      px      :     0.927510
      py      :     0.915885
      dz2     :     0.002885  d :     0.034548
      dxz     :     0.007082
      dyz     :     0.005032
      dx2y2   :     0.008622
      dxy     :     0.010927

 12 C s       :     3.187624  s :     3.187624
      pz      :     0.973610  p :     2.829628
      px      :     0.956417
      py      :     0.899600
      dz2     :     0.003820  d :     0.035063
      dxz     :     0.006904
      dyz     :     0.004246
      dx2y2   :     0.008595
      dxy     :     0.011498

 13 C s       :     3.181703  s :     3.181703
      pz      :     0.988147  p :     2.828706
      px      :     0.850680
      py      :     0.989878
      dz2     :     0.005237  d :     0.034980
      dxz     :     0.003743
      dyz     :     0.005686
      dx2y2   :     0.012693
      dxy     :     0.007620

 14 C s       :     3.187571  s :     3.187571
      pz      :     0.963543  p :     2.826625
      px      :     0.958047
      py      :     0.905035
      dz2     :     0.002889  d :     0.035077
      dxz     :     0.007124
      dyz     :     0.005050
      dx2y2   :     0.009049
      dxy     :     0.010964

 15 C s       :     3.258650  s :     3.258650
      pz      :     0.982955  p :     2.818140
      px      :     0.922980
      py      :     0.912204
      dz2     :     0.003808  d :     0.034494
      dxz     :     0.006859
      dyz     :     0.004164
      dx2y2   :     0.008162
      dxy     :     0.011500

 16 C s       :     3.034378  s :     3.034378
      pz      :     0.999731  p :     2.722709
      px      :     0.871006
      py      :     0.851971
      dz2     :     0.031416  d :     0.131284
      dxz     :     0.011985
      dyz     :     0.031520
      dx2y2   :     0.029408
      dxy     :     0.026954

 17 O s       :     3.727455  s :     3.727455
      pz      :     1.517546  p :     4.437489
      px      :     1.411090
      py      :     1.508853
      dz2     :     0.003090  d :     0.017548
      dxz     :     0.002268
      dyz     :     0.005627
      dx2y2   :     0.002992
      dxy     :     0.003570

 18 O s       :     3.729855  s :     3.729855
      pz      :     1.417927  p :     4.541313
      px      :     1.690914
      py      :     1.432473
      dz2     :     0.004978  d :     0.015677
      dxz     :     0.002465
      dyz     :     0.001945
      dx2y2   :     0.003693
      dxy     :     0.002596

 19 H s       :     0.877684  s :     0.877684

 20 H s       :     0.890281  s :     0.890281

 21 H s       :     0.890526  s :     0.890526

 22 H s       :     0.956941  s :     0.956941

 23 H s       :     0.949000  s :     0.949000

 24 H s       :     0.943824  s :     0.943824

 25 H s       :     0.950380  s :     0.950380

 26 H s       :     0.945851  s :     0.945851

 27 H s       :     0.945082  s :     0.945082

 28 H s       :     0.946377  s :     0.946377

 29 H s       :     0.949858  s :     0.949858

 30 H s       :     0.679196  s :     0.679196


------------------------
MULLIKEN OVERLAP CHARGES
------------------------
B(  0-C ,  1-C ) :   0.5886 B(  0-C ,  3-C ) :  -0.0920 B(  0-C , 19-H ) :   0.7330 
B(  0-C , 20-H ) :   0.7168 B(  0-C , 21-H ) :   0.7436 B(  1-C ,  2-H ) :   0.6054 
B(  1-C ,  3-C ) :   0.7236 B(  1-C ,  4-C ) :  -0.1862 B(  1-C ,  8-C ) :  -0.2537 
B(  1-C , 16-C ) :   0.3505 B(  1-C , 17-O ) :  -0.2167 B(  1-C , 18-O ) :  -0.2887 
B(  1-C , 21-H ) :  -0.0558 B(  3-C ,  4-C ) :   0.2854 B(  3-C ,  5-C ) :   0.3838 
B(  3-C ,  6-C ) :  -0.4516 B(  3-C ,  7-C ) :   0.4815 B(  3-C ,  8-C ) :  -0.0742 
B(  3-C , 22-H ) :  -0.1716 B(  3-C , 24-H ) :  -0.1832 B(  4-C ,  5-C ) :   0.2821 
B(  4-C ,  6-C ) :   0.3936 B(  4-C ,  7-C ) :  -0.4214 B(  4-C ,  8-C ) :   0.2444 
B(  4-C , 22-H ) :   0.8781 B(  4-C , 23-H ) :  -0.1768 B(  5-C ,  6-C ) :   0.2783 
B(  5-C ,  7-C ) :   0.3345 B(  5-C ,  8-C ) :  -0.3319 B(  5-C , 10-C ) :  -0.2089 
B(  5-C , 22-H ) :  -0.1742 B(  5-C , 23-H ) :   0.8822 B(  6-C ,  8-C ) :   0.1795 
B(  6-C ,  9-F ) :  -0.1852 B(  6-C , 10-C ) :   0.5907 B(  6-C , 11-C ) :  -0.2535 
B(  6-C , 15-C ) :  -0.1998 B(  6-C , 23-H ) :  -0.1602 B(  6-C , 24-H ) :   0.0529 
B(  6-C , 25-H ) :  -0.0513 B(  7-C ,  8-C ) :   0.2727 B(  7-C ,  9-F ) :   0.8035 
B(  7-C , 10-C ) :  -0.2189 B(  7-C , 24-H ) :  -0.1416 B(  8-C ,  9-F ) :  -0.1539 
B(  8-C , 24-H ) :   0.8238 B( 10-C , 11-C ) :   0.3256 B( 10-C , 12-C ) :   0.3964 
B( 10-C , 13-C ) :  -0.4443 B( 10-C , 14-C ) :   0.3839 B( 10-C , 15-C ) :   0.2996 
B( 10-C , 23-H ) :  -0.0570 B( 10-C , 25-H ) :  -0.1548 B( 10-C , 29-H ) :  -0.1557 
B( 11-C , 12-C ) :   0.2951 B( 11-C , 13-C ) :   0.3655 B( 11-C , 14-C ) :  -0.4038 
B( 11-C , 15-C ) :   0.2330 B( 11-C , 25-H ) :   0.8687 B( 11-C , 26-H ) :  -0.1780 
B( 12-C , 13-C ) :   0.2485 B( 12-C , 14-C ) :   0.3718 B( 12-C , 15-C ) :  -0.4071 
B( 12-C , 25-H ) :  -0.1664 B( 12-C , 26-H ) :   0.8880 B( 12-C , 27-H ) :  -0.1759 
B( 13-C , 14-C ) :   0.2584 B( 13-C , 15-C ) :   0.3636 B( 13-C , 26-H ) :  -0.1832 
B( 13-C , 27-H ) :   0.8831 B( 13-C , 28-H ) :  -0.1818 B( 14-C , 15-C ) :   0.3018 
B( 14-C , 27-H ) :  -0.1770 B( 14-C , 28-H ) :   0.8885 B( 14-C , 29-H ) :  -0.1683 
B( 15-C , 28-H ) :  -0.1802 B( 15-C , 29-H ) :   0.8669 B( 16-C , 17-O ) :   1.4685 
B( 16-C , 18-O ) :   0.7628 B( 17-O , 18-O ) :  -0.1869 B( 18-O , 30-H ) :   0.4765 



                     *******************************
                     * LOEWDIN POPULATION ANALYSIS *
                     *******************************

----------------------
LOEWDIN ATOMIC CHARGES
----------------------
   0 C :   -0.320748
   1 C :   -0.149262
   2 H :    0.138305
   3 C :   -0.019877
   4 C :   -0.127844
   5 C :   -0.102013
   6 C :   -0.054808
   7 C :    0.081473
   8 C :   -0.146250
   9 F :   -0.055552
  10 C :   -0.028418
  11 C :   -0.108452
  12 C :   -0.120103
  13 C :   -0.122194
  14 C :   -0.120730
  15 C :   -0.113609
  16 C :    0.033200
  17 O :   -0.166358
  18 O :   -0.193558
  19 H :    0.125407
  20 H :    0.126263
  21 H :    0.124216
  22 H :    0.126793
  23 H :    0.130030
  24 H :    0.136323
  25 H :    0.125526
  26 H :    0.124918
  27 H :    0.124153
  28 H :    0.124696
  29 H :    0.125851
  30 H :    0.302622

-------------------------------
LOEWDIN REDUCED ORBITAL CHARGES
-------------------------------
  0 C s       :     2.946219  s :     2.946219
      pz      :     1.086865  p :     3.303663
      px      :     1.113792
      py      :     1.103006
      dz2     :     0.017275  d :     0.070866
      dxz     :     0.011734
      dyz     :     0.012928
      dx2y2   :     0.023285
      dxy     :     0.005644

  1 C s       :     2.879766  s :     2.879766
      pz      :     1.037349  p :     3.167742
      px      :     1.041828
      py      :     1.088564
      dz2     :     0.024769  d :     0.101754
      dxz     :     0.022378
      dyz     :     0.016072
      dx2y2   :     0.026224
      dxy     :     0.012311

  2 H s       :     0.861695  s :     0.861695

  3 C s       :     2.848094  s :     2.848094
      pz      :     0.965914  p :     3.060301
      px      :     1.017817
      py      :     1.076570
      dz2     :     0.009438  d :     0.111482
      dxz     :     0.014150
      dyz     :     0.016143
      dx2y2   :     0.036660
      dxy     :     0.035090

  4 C s       :     2.888193  s :     2.888193
      pz      :     1.016374  p :     3.147586
      px      :     1.075405
      py      :     1.055807
      dz2     :     0.006659  d :     0.092066
      dxz     :     0.014260
      dyz     :     0.008302
      dx2y2   :     0.029887
      dxy     :     0.032958

  5 C s       :     2.889487  s :     2.889487
      pz      :     0.992666  p :     3.120181
      px      :     1.076194
      py      :     1.051321
      dz2     :     0.008254  d :     0.092346
      dxz     :     0.014127
      dyz     :     0.008392
      dx2y2   :     0.026609
      dxy     :     0.034964

  6 C s       :     2.844722  s :     2.844722
      pz      :     1.002261  p :     3.101808
      px      :     1.035278
      py      :     1.064269
      dz2     :     0.009456  d :     0.108278
      dxz     :     0.015400
      dyz     :     0.013745
      dx2y2   :     0.032513
      dxy     :     0.037165

  7 C s       :     2.853057  s :     2.853057
      pz      :     0.974645  p :     2.883687
      px      :     1.049125
      py      :     0.859918
      dz2     :     0.015757  d :     0.181783
      dxz     :     0.022919
      dyz     :     0.029231
      dx2y2   :     0.056733
      dxy     :     0.057144

  8 C s       :     2.893523  s :     2.893523
      pz      :     1.031616  p :     3.164956
      px      :     1.063066
      py      :     1.070274
      dz2     :     0.008308  d :     0.087771
      dxz     :     0.013170
      dyz     :     0.008438
      dx2y2   :     0.029586
      dxy     :     0.028270

  9 F s       :     3.736158  s :     3.736158
      pz      :     1.838758  p :     5.307642
      px      :     1.849507
      py      :     1.619376
      dz2     :     0.001541  d :     0.011752
      dxz     :     0.000886
      dyz     :     0.003018
      dx2y2   :     0.003020
      dxy     :     0.003286

 10 C s       :     2.840084  s :     2.840084
      pz      :     0.993034  p :     3.076717
      px      :     1.020757
      py      :     1.062926
      dz2     :     0.011842  d :     0.111618
      dxz     :     0.017783
      dyz     :     0.015848
      dx2y2   :     0.035204
      dxy     :     0.030941

 11 C s       :     2.892274  s :     2.892274
      pz      :     1.001497  p :     3.125127
      px      :     1.078603
      py      :     1.045027
      dz2     :     0.006990  d :     0.091050
      dxz     :     0.016684
      dyz     :     0.010987
      dx2y2   :     0.025869
      dxy     :     0.030520

 12 C s       :     2.890766  s :     2.890766
      pz      :     1.002127  p :     3.136858
      px      :     1.083792
      py      :     1.050938
      dz2     :     0.008618  d :     0.092479
      dxz     :     0.017119
      dyz     :     0.010023
      dx2y2   :     0.025730
      dxy     :     0.030990

 13 C s       :     2.891753  s :     2.891753
      pz      :     1.006158  p :     3.138408
      px      :     1.063074
      py      :     1.069177
      dz2     :     0.011091  d :     0.092033
      dxz     :     0.009121
      dyz     :     0.015921
      dx2y2   :     0.032759
      dxy     :     0.023142

 14 C s       :     2.890524  s :     2.890524
      pz      :     1.000789  p :     3.137683
      px      :     1.084333
      py      :     1.052561
      dz2     :     0.006995  d :     0.092523
      dxz     :     0.016965
      dyz     :     0.011126
      dx2y2   :     0.026823
      dxy     :     0.030614

 15 C s       :     2.891391  s :     2.891391
      pz      :     1.009198  p :     3.131196
      px      :     1.076521
      py      :     1.045477
      dz2     :     0.008535  d :     0.091022
      dxz     :     0.016991
      dyz     :     0.009665
      dx2y2   :     0.024767
      dxy     :     0.031063

 16 C s       :     2.847150  s :     2.847150
      pz      :     1.015537  p :     2.822036
      px      :     0.854922
      py      :     0.951578
      dz2     :     0.072716  d :     0.297614
      dxz     :     0.025221
      dyz     :     0.072837
      dx2y2   :     0.071081
      dxy     :     0.055759

 17 O s       :     3.552383  s :     3.552383
      pz      :     1.575099  p :     4.582947
      px      :     1.419347
      py      :     1.588502
      dz2     :     0.004712  d :     0.031028
      dxz     :     0.003574
      dyz     :     0.011856
      dx2y2   :     0.005598
      dxy     :     0.005288

 18 O s       :     3.498469  s :     3.498469
      pz      :     1.466912  p :     4.665314
      px      :     1.686337
      py      :     1.512065
      dz2     :     0.009223  d :     0.029775
      dxz     :     0.004238
      dyz     :     0.004414
      dx2y2   :     0.007995
      dxy     :     0.003906

 19 H s       :     0.874593  s :     0.874593

 20 H s       :     0.873737  s :     0.873737

 21 H s       :     0.875784  s :     0.875784

 22 H s       :     0.873207  s :     0.873207

 23 H s       :     0.869970  s :     0.869970

 24 H s       :     0.863677  s :     0.863677

 25 H s       :     0.874474  s :     0.874474

 26 H s       :     0.875082  s :     0.875082

 27 H s       :     0.875847  s :     0.875847

 28 H s       :     0.875304  s :     0.875304

 29 H s       :     0.874149  s :     0.874149

 30 H s       :     0.697378  s :     0.697378


---------------------------------
LOEWDIN BOND ORDERS (THRESH 0.050000)
---------------------------------
B(  0-C ,  1-C ) :   1.0767 B(  0-C ,  3-C ) :   0.0561 B(  0-C , 16-C ) :   0.0570 
B(  0-C , 19-H ) :   0.9326 B(  0-C , 20-H ) :   0.9317 B(  0-C , 21-H ) :   0.9335 
B(  1-C ,  2-H ) :   0.8578 B(  1-C ,  3-C ) :   1.0050 B(  1-C ,  4-C ) :   0.0748 
B(  1-C ,  8-C ) :   0.0674 B(  1-C , 16-C ) :   0.9972 B(  1-C , 17-O ) :   0.0947 
B(  1-C , 18-O ) :   0.0629 B(  3-C ,  4-C ) :   1.4264 B(  3-C ,  5-C ) :   0.0893 
B(  3-C ,  6-C ) :   0.0969 B(  3-C ,  7-C ) :   0.0958 B(  3-C ,  8-C ) :   1.4149 
B(  3-C , 16-C ) :   0.0743 B(  4-C ,  5-C ) :   1.5101 B(  4-C ,  6-C ) :   0.0871 
B(  4-C ,  7-C ) :   0.1011 B(  4-C ,  8-C ) :   0.0841 B(  4-C , 22-H ) :   0.8796 
B(  5-C ,  6-C ) :   1.4063 B(  5-C ,  7-C ) :   0.0931 B(  5-C ,  8-C ) :   0.1121 
B(  5-C , 10-C ) :   0.0744 B(  5-C , 23-H ) :   0.8773 B(  6-C ,  7-C ) :   1.3580 
B(  6-C ,  8-C ) :   0.0889 B(  6-C ,  9-F ) :   0.0880 B(  6-C , 10-C ) :   1.0459 
B(  6-C , 11-C ) :   0.0755 B(  6-C , 15-C ) :   0.0770 B(  7-C ,  8-C ) :   1.4663 
B(  7-C ,  9-F ) :   1.2446 B(  7-C , 10-C ) :   0.0746 B(  8-C ,  9-F ) :   0.0983 
B(  8-C , 24-H ) :   0.8661 B( 10-C , 11-C ) :   1.4147 B( 10-C , 12-C ) :   0.0875 
B( 10-C , 13-C ) :   0.1097 B( 10-C , 14-C ) :   0.0870 B( 10-C , 15-C ) :   1.4124 
B( 11-C , 12-C ) :   1.5127 B( 11-C , 13-C ) :   0.0866 B( 11-C , 14-C ) :   0.1173 
B( 11-C , 15-C ) :   0.0808 B( 11-C , 25-H ) :   0.8830 B( 12-C , 13-C ) :   1.4964 
B( 12-C , 14-C ) :   0.0862 B( 12-C , 15-C ) :   0.1168 B( 12-C , 26-H ) :   0.8875 
B( 13-C , 14-C ) :   1.4969 B( 13-C , 15-C ) :   0.0866 B( 13-C , 27-H ) :   0.8895 
B( 14-C , 15-C ) :   1.5127 B( 14-C , 28-H ) :   0.8875 B( 15-C , 29-H ) :   0.8815 
B( 16-C , 17-O ) :   2.2363 B( 16-C , 18-O ) :   1.4511 B( 17-O , 18-O ) :   0.2136 
B( 18-O , 30-H ) :   0.8446 

------------------------------------------
LOEWDIN REDUCED ORBITAL POPULATIONS PER MO
-------------------------------------------
THRESHOLD FOR PRINTING IS 0.1%%
                      0         1         2         3         4         5   
                 -24.27025 -18.81013 -18.73954 -10.01771  -9.97647  -9.92050
                   2.00000   2.00000   2.00000   2.00000   2.00000   2.00000
                  --------  --------  --------  --------  --------  --------
 1 C  s               0.0       0.0       0.0       0.0       0.0      99.5
 3 C  px              0.0       0.0       0.0       0.0       0.0       0.1
 7 C  s               0.0       0.0       0.0       0.0      99.5       0.0
 8 C  px              0.0       0.0       0.0       0.0       0.2       0.0
 9 F  s             100.0       0.0       0.0       0.0       0.0       0.0
16 C  s               0.0       0.0       0.0      99.3       0.0       0.0
17 O  s               0.0       0.0      99.9       0.0       0.0       0.0
17 O  pz              0.0       0.0       0.0       0.1       0.0       0.0
17 O  py              0.0       0.0       0.0       0.2       0.0       0.0
18 O  s               0.0      99.9       0.0       0.0       0.0       0.0
18 O  py              0.0       0.0       0.0       0.2       0.0       0.0

                      6         7         8         9        10        11   
                  -9.91864  -9.91237  -9.90883  -9.90381  -9.89990  -9.89881
                   2.00000   2.00000   2.00000   2.00000   2.00000   2.00000
                  --------  --------  --------  --------  --------  --------
 1 C  px              0.1       0.0       0.0       0.0       0.0       0.0
 3 C  s              99.5       0.0       0.0       0.0       0.0       0.0
 3 C  py              0.0       0.0       0.0       0.0       0.1       0.1
 4 C  s               0.0       0.0       0.0       0.1       0.0      99.5
 4 C  px              0.0       0.0       0.0       0.1       0.0       0.0
 5 C  s               0.0       0.0       0.0      99.5       0.0       0.1
 5 C  px              0.0       0.0       0.0       0.0       0.0       0.1
 5 C  py              0.0       0.1       0.0       0.0       0.0       0.0
 6 C  s               0.0      99.5       0.0       0.0       0.0       0.0
 6 C  px              0.0       0.0       0.1       0.0       0.0       0.0
 6 C  py              0.0       0.0       0.0       0.1       0.0       0.0
 7 C  px              0.0       0.1       0.0       0.0       0.1       0.0
 8 C  s               0.0       0.0       0.0       0.0      99.5       0.0
 8 C  py              0.1       0.0       0.0       0.0       0.0       0.0
10 C  s               0.0       0.0      99.5       0.0       0.0       0.0
10 C  px              0.0       0.1       0.0       0.0       0.0       0.0

                     12        13        14        15        16        17   
                  -9.89553  -9.89490  -9.89427  -9.89403  -9.89379  -9.89059
                   2.00000   2.00000   2.00000   2.00000   2.00000   2.00000
                  --------  --------  --------  --------  --------  --------
 0 C  s               0.0       0.0       0.0       0.0       0.0      99.7
11 C  s               0.0       0.0       3.4      26.3      69.9       0.0
12 C  s               0.0       0.1      23.8      47.6      28.1       0.0
13 C  s               0.1       3.0      69.7      25.2       1.6       0.0
14 C  s               4.1      92.2       2.7       0.5       0.0       0.0
14 C  px              0.1       0.0       0.0       0.0       0.0       0.0
15 C  s              95.4       4.2       0.0       0.0       0.0       0.0
15 C  px              0.0       0.1       0.0       0.0       0.0       0.0

                     18        19        20        21        22        23   
                  -1.09495  -1.01845  -0.91512  -0.80054  -0.77962  -0.74146
                   2.00000   2.00000   2.00000   2.00000   2.00000   2.00000
                  --------  --------  --------  --------  --------  --------
 0 C  s               0.0       0.1       0.0       0.6       0.7       7.8
 0 C  pz              0.0       0.2       0.0       0.2       0.2       1.0
 0 C  px              0.0       0.0       0.0       0.1       0.1       0.2
 0 C  py              0.0       0.0       0.0       0.1       0.1       0.8
 1 C  s               0.0       1.0       0.3       2.9       2.8      17.3
 1 C  pz              0.0       1.4       0.4       0.0       0.0       0.0
 1 C  px              0.0       0.3       0.1       1.0       0.5       0.1
 1 C  py              0.0       0.1       0.1       0.0       0.0       0.5
 2 H  s               0.0       0.2       0.1       0.5       0.5       3.0
 3 C  s               0.0       0.1       0.0      10.7       5.7       4.7
 3 C  px              0.0       0.1       0.0       0.8       0.0       4.8
 4 C  s               0.0       0.0       0.0       8.4       2.6       0.0
 4 C  pz              0.0       0.0       0.0       0.2       0.0       0.0
 4 C  px              0.0       0.0       0.0       0.2       0.1       2.9
 4 C  py              0.0       0.0       0.0       1.6       0.6       0.1
 5 C  s               0.0       0.0       0.0       9.1       0.4       4.6
 5 C  pz              0.0       0.0       0.0       0.1       0.0       0.1
 5 C  px              0.0       0.0       0.0       0.3       1.0       0.3
 5 C  py              0.0       0.0       0.0       1.7       0.0       1.0
 6 C  s               0.4       0.0       0.0      12.4       0.2       8.4
 6 C  px              0.1       0.0       0.0       0.4       3.2       0.3
 6 C  py              0.9       0.0       0.0       0.0       0.0       0.0
 6 C  dz2             0.0       0.0       0.0       0.1       0.0       0.1
 7 C  s               8.0       0.0       0.0       7.1       0.6       2.7
 7 C  pz              1.2       0.0       0.0       0.5       0.0       0.1
 7 C  px              1.7       0.0       0.0       0.3       1.3       0.5
 7 C  py              7.6       0.0       0.0       3.5       0.0       1.9
 7 C  dz2             0.2       0.0       0.0       0.1       0.0       0.0
 7 C  dyz             0.4       0.0       0.0       0.0       0.0       0.0
 7 C  dx2y2           0.3       0.0       0.0       0.0       0.0       0.0
 7 C  dxy             0.5       0.0       0.0       0.1       0.0       0.1
 8 C  s               0.5       0.0       0.0       8.3       3.2       0.1
 8 C  pz              0.0       0.0       0.0       0.1       0.1       0.1
 8 C  px              1.0       0.0       0.0       0.3       0.0       2.3
 8 C  py              0.1       0.0       0.0       1.7       0.7       0.2
 9 F  s              74.2       0.0       0.0       1.1       0.0       0.5
 9 F  pz              0.3       0.0       0.0       0.0       0.0       0.0
 9 F  px              0.3       0.0       0.0       0.0       0.0       0.0
 9 F  py              1.6       0.0       0.0       0.3       0.0       0.3
10 C  s               0.0       0.0       0.0       6.4      10.0       0.5
10 C  px              0.1       0.0       0.0       0.3       1.9       2.8
11 C  s               0.0       0.0       0.0       2.5       9.2       0.3
11 C  pz              0.0       0.0       0.0       0.1       0.4       0.0
11 C  px              0.0       0.0       0.0       0.0       0.3       1.0
11 C  py              0.0       0.0       0.0       0.6       1.3       0.0
12 C  s               0.0       0.0       0.0       1.2       8.5       2.2
12 C  pz              0.0       0.0       0.0       0.0       0.2       0.1
12 C  px              0.0       0.0       0.0       0.2       0.6       0.0
12 C  py              0.0       0.0       0.0       0.2       1.2       0.3
13 C  s               0.0       0.0       0.0       1.0       8.3       3.0
13 C  px              0.0       0.0       0.0       0.3       1.9       0.3
14 C  s               0.0       0.0       0.0       1.3       8.6       2.1
14 C  pz              0.0       0.0       0.0       0.1       0.4       0.1
14 C  px              0.0       0.0       0.0       0.2       0.5       0.0
14 C  py              0.0       0.0       0.0       0.1       1.1       0.3
15 C  s               0.0       0.0       0.0       2.7       9.4       0.3
15 C  pz              0.0       0.0       0.0       0.2       0.3       0.0
15 C  px              0.0       0.0       0.0       0.0       0.4       1.0
15 C  py              0.0       0.0       0.0       0.5       1.3       0.0
16 C  s               0.0      19.2       5.1       0.1       0.1       1.5
16 C  pz              0.0       2.6       3.0       0.7       0.7       5.4
16 C  px              0.0       0.5       0.4       0.3       0.3       1.3
16 C  py              0.0       2.9      21.7       0.0       0.0       0.0
16 C  dz2             0.0       0.1       0.1       0.0       0.0       0.0
16 C  dxz             0.0       0.1       0.1       0.0       0.0       0.0
16 C  dyz             0.0       0.0       1.6       0.0       0.0       0.0
16 C  dx2y2           0.0       1.0       0.0       0.0       0.0       0.0
16 C  dxy             0.0       0.0       0.3       0.0       0.0       0.0
17 O  s               0.0      10.3      42.9       0.1       0.1       0.7
17 O  pz              0.0       0.7       2.0       0.0       0.0       0.1
17 O  px              0.0       0.1       0.3       0.0       0.0       0.0
17 O  py              0.0       1.9       2.2       0.0       0.0       0.0
17 O  dyz             0.0       0.1       0.1       0.0       0.0       0.0
18 O  s               0.0      45.1      15.6       0.1       0.1       0.4
18 O  pz              0.0       0.4       0.2       0.1       0.1       1.0
18 O  px              0.0       0.1       0.0       0.0       0.0       0.2
18 O  py              0.0       3.2       0.3       0.0       0.0       0.3
19 H  s               0.0       0.1       0.0       0.1       0.1       1.5
20 H  s               0.0       0.0       0.0       0.1       0.1       1.4
21 H  s               0.0       0.0       0.0       0.1       0.1       1.3
22 H  s               0.0       0.0       0.0       1.1       0.4       0.0
23 H  s               0.0       0.0       0.0       1.2       0.0       0.7
24 H  s               0.1       0.1       0.0       1.0       0.5       0.1
25 H  s               0.1       0.0       0.0       0.4       1.2       0.0
26 H  s               0.0       0.0       0.0       0.1       1.1       0.3
27 H  s               0.0       0.0       0.0       0.1       1.0       0.4
28 H  s               0.0       0.0       0.0       0.2       1.1       0.3
29 H  s               0.0       0.0       0.0       0.4       1.2       0.0
30 H  s               0.0       8.0       2.6       0.0       0.1       0.6

                     24        25        26        27        28        29   
                  -0.69762  -0.67896  -0.67241  -0.64957  -0.61102  -0.58475
                   2.00000   2.00000   2.00000   2.00000   2.00000   2.00000
                  --------  --------  --------  --------  --------  --------
 0 C  s               5.6       0.0       0.0       5.9      19.2       2.9
 0 C  pz              0.3       0.0       0.0       0.0       1.1       0.1
 0 C  px              0.0       0.0       0.0       0.1       0.0       0.3
 0 C  py              0.2       0.0       0.0       0.0       0.1       0.8
 1 C  s               5.1       0.0       0.0       0.5       0.4       2.7
 1 C  pz              0.1       0.0       0.0       0.4      10.4       0.0
 1 C  px              1.3       0.0       0.0       3.5       0.0       2.8
 1 C  py              0.4       0.3       0.1       0.6       0.5       3.1
 1 C  dxz             0.0       0.0       0.0       0.0       0.1       0.0
 1 C  dyz             0.0       0.0       0.0       0.0       0.3       0.0
 2 H  s               1.0       0.1       0.0       0.1       0.0       1.8
 3 C  s               2.0       0.1       0.0       6.8       0.0       2.8
 3 C  pz              0.1       0.8       0.1       0.0       0.4       0.3
 3 C  px              4.0       0.0       0.0       0.4       0.6       2.6
 3 C  py              0.1       8.0       1.5       0.0       0.0       1.6
 3 C  dxy             0.0       0.2       0.0       0.0       0.0       0.0
 4 C  s               2.1      14.0       2.4       1.9       0.2       0.2
 4 C  px              0.1       1.3       0.1       2.9       0.0       5.5
 4 C  py              0.4       0.2       0.0       0.6       0.0       0.6
 4 C  dz2             0.0       0.1       0.0       0.0       0.0       0.0
 5 C  s               0.1      11.5       1.5       2.6       0.0       3.6
 5 C  pz              0.1       0.1       0.1       0.1       0.0       0.2
 5 C  px              2.4       1.9       0.6       1.1       0.2       0.5
 5 C  py              0.2       0.7       0.1       0.8       0.1       1.3
 5 C  dx2y2           0.0       0.1       0.0       0.1       0.0       0.0
 6 C  s               4.9       0.1       0.0       4.8       0.4       3.0
 6 C  pz              0.0       0.5       0.2       0.0       0.0       0.3
 6 C  px              3.6       0.0       0.0       3.5       0.0       0.8
 6 C  py              0.0       6.7       0.2       0.0       0.0       2.8
 6 C  dxy             0.0       0.2       0.1       0.0       0.0       0.0
 7 C  s               0.3       9.2       1.2       2.4       0.0       0.1
 7 C  pz              0.0       0.1       0.0       0.1       0.0       0.0
 7 C  px              4.6       2.5       0.8       1.3       0.3       6.4
 7 C  py              0.3       0.2       0.0       1.4       0.1       1.1
 7 C  dx2y2           0.0       0.2       0.0       0.0       0.0       0.0
 8 C  s               5.1      11.1       2.0       1.5       0.2       2.6
 8 C  pz              0.0       0.1       0.0       0.1       0.0       0.2
 8 C  px              0.1       1.4       0.2       1.9       0.1       0.3
 8 C  py              0.2       0.4       0.1       0.7       0.0       1.2
 8 C  dx2y2           0.0       0.1       0.0       0.1       0.0       0.0
 9 F  s               0.0       2.4       0.2       0.4       0.0       0.0
 9 F  pz              0.0       0.3       0.0       0.1       0.0       0.0
 9 F  px              0.2       0.6       0.2       0.0       0.0       0.6
 9 F  py              0.0       1.6       0.2       0.6       0.0       0.4
10 C  s               8.8       0.3       0.0       5.0       0.0       0.2
10 C  pz              0.0       0.2       1.9       0.0       0.0       0.1
10 C  px              1.3       0.0       0.0       3.1       0.3       3.4
10 C  py              0.0       1.8       6.3       0.0       0.0       0.3
10 C  dxy             0.0       0.0       0.2       0.0       0.0       0.0
11 C  s               0.6       2.6      12.1       3.3       0.1       0.8
11 C  px              3.4       0.0       1.8       1.1       0.0       0.9
11 C  py              0.6       0.0       0.4       0.6       0.0       0.0
11 C  dx2y2           0.0       0.0       0.1       0.0       0.0       0.0
12 C  s               3.7       1.0      12.9       1.4       0.0       0.3
12 C  pz              0.3       0.1       0.2       0.4       0.0       0.2
12 C  px              1.1       0.5       1.5       3.3       0.1       1.3
12 C  py              0.7       0.1       0.2       0.6       0.0       0.4
13 C  s               9.0       0.2       0.0       9.0       0.2       2.4
13 C  pz              0.0       0.2       1.7       0.0       0.0       0.1
13 C  px              0.2       0.0       0.0       0.1       0.0       0.4
13 C  py              0.0       0.8       6.3       0.0       0.0       0.2
13 C  dxy             0.0       0.0       0.2       0.0       0.0       0.0
14 C  s               3.5       2.3      11.9       1.3       0.0       0.1
14 C  pz              0.1       0.0       0.0       0.1       0.0       0.0
14 C  px              1.3       0.1       1.9       3.6       0.2       2.2
14 C  py              0.8       0.0       0.4       0.8       0.0       0.3
14 C  dx2y2           0.0       0.0       0.1       0.1       0.0       0.0
15 C  s               0.8       1.4      12.9       3.4       0.1       1.4
15 C  pz              0.4       0.0       0.2       0.2       0.0       0.0
15 C  px              3.3       0.3       1.5       0.9       0.0       0.0
15 C  py              0.5       0.1       0.3       0.5       0.0       0.1
16 C  s               0.8       0.0       0.0       0.3       6.6       1.1
16 C  pz              2.3       0.0       0.0       0.6       3.1       0.0
[...]
15 C  dxz             0.0       0.0       0.7       2.5       0.0       0.0
15 C  dx2y2           0.1       0.0       0.6       2.9       0.0       0.0
15 C  dxy             0.0       0.0       2.0       5.1       0.2       0.0
16 C  s               0.0       3.9       0.0       0.0       0.0       0.1
16 C  pz              0.0       1.1       0.0       0.0       0.0       0.2
16 C  px              0.0       0.2       0.0       0.0       0.0       0.0
16 C  py              0.0       1.9       0.0       0.0       0.0       3.9
16 C  dz2             0.0       3.7       0.0       0.0       0.0       9.5
16 C  dxz             0.0       2.0       0.0       0.0       0.0       1.7
16 C  dyz             0.0       4.0       0.0       0.0       0.0       1.8
16 C  dx2y2           0.0       0.1       0.0       0.0       0.0       7.8
16 C  dxy             0.0       1.0       0.0       0.0       0.0       0.4
17 O  s               0.0       0.6       0.0       0.0       0.0       1.0
17 O  pz              0.0       0.1       0.0       0.0       0.0       0.0
17 O  py              0.0       0.5       0.0       0.0       0.0       1.3
17 O  dz2             0.0       9.3       0.0       0.0       0.0      10.9
17 O  dxz             0.0       0.2       0.0       0.0       0.0       1.1
17 O  dyz             0.0       0.2       0.0       0.0       0.1       4.7
17 O  dx2y2           0.0      14.2       0.0       0.0       0.1      15.2
17 O  dxy             0.0       0.1       0.0       0.0       0.0       0.6
18 O  s               0.0       2.8       0.0       0.0       0.0       1.7
18 O  pz              0.0       0.1       0.0       0.0       0.0       0.7
18 O  px              0.0       0.0       0.0       0.0       0.0       0.2
18 O  py              0.0       2.0       0.0       0.0       0.0       2.2
18 O  dz2             0.0      14.5       0.0       0.0       0.0       5.2
18 O  dxz             0.0       0.3       0.0       0.0       0.0       0.0
18 O  dyz             0.0       1.0       0.0       0.0       0.0       9.5
18 O  dx2y2           0.0      32.9       0.0       0.0       0.0      14.8
18 O  dxy             0.0       0.1       0.0       0.0       0.0       2.2
22 H  s               0.0       0.0       0.4       0.1       0.0       0.0
23 H  s               0.0       0.0       0.3       0.1       0.0       0.0
24 H  s               0.0       0.0       0.3       0.1       0.0       0.0
25 H  s               0.0       0.0       0.1       0.4       0.0       0.0
26 H  s               0.0       0.0       0.2       0.4       0.0       0.0
27 H  s               0.0       0.0       0.2       0.3       0.0       0.0
28 H  s               0.0       0.0       0.2       0.4       0.0       0.0
29 H  s               0.0       0.0       0.1       0.4       0.0       0.0
30 H  s               0.0       0.6       0.0       0.0       0.0       0.2

                    276       277   
                   3.53712   3.74028
                   0.00000   0.00000
                  --------  --------
 1 C  pz              0.1       0.0
 1 C  dz2             0.2       0.0
 1 C  dx2y2           0.1       0.1
 3 C  dx2y2           0.1       0.8
 4 C  dx2y2           0.0       0.2
 4 C  dxy             0.0       0.3
 5 C  dx2y2           0.0       0.2
 5 C  dxy             0.0       0.6
 6 C  py              0.0       0.1
 6 C  dyz             0.0       0.2
 6 C  dx2y2           0.0       2.5
 7 C  s               0.0       1.3
 7 C  pz              0.0       0.3
 7 C  px              0.0       0.5
 7 C  py              0.0       2.1
 7 C  dz2             0.0       0.2
 7 C  dxz             0.0       0.5
 7 C  dyz             0.0       2.1
 7 C  dx2y2           0.0       4.8
 7 C  dxy             0.0       5.3
 8 C  s               0.0       0.1
 8 C  dxz             0.0       0.2
 8 C  dx2y2           0.0       0.4
 8 C  dxy             0.0       1.5
 9 F  s               0.0       5.3
 9 F  pz              0.0       0.3
 9 F  px              0.0       0.6
 9 F  py              0.0       2.2
 9 F  dz2             0.0       6.0
 9 F  dxz             0.0       3.8
 9 F  dyz             0.0      15.0
 9 F  dx2y2           0.0      16.1
 9 F  dxy             0.1      24.3
10 C  dx2y2           0.0       0.3
10 C  dxy             0.0       0.1
16 C  s               7.2       0.0
16 C  pz              2.4       0.0
16 C  px              0.4       0.0
16 C  py              2.1       0.0
16 C  dz2             1.3       0.0
16 C  dyz             4.4       0.0
16 C  dx2y2           4.5       0.0
16 C  dxy             0.7       0.0
17 O  s               4.8       0.0
17 O  pz              2.0       0.0
17 O  px              0.4       0.0
17 O  py              1.3       0.0
17 O  dz2             4.4       0.0
17 O  dxz             7.6       0.0
17 O  dyz            37.3       0.0
17 O  dx2y2           3.1       0.0
17 O  dxy             6.7       0.0
18 O  s               0.1       0.0
18 O  pz              0.3       0.0
18 O  dxz             0.3       0.0
18 O  dyz             5.7       0.0
18 O  dx2y2           0.3       0.0
18 O  dxy             1.3       0.0
24 H  s               0.0       0.1


                      *****************************
                      * MAYER POPULATION ANALYSIS *
                      *****************************

  NA   - Mulliken gross atomic population
  ZA   - Total nuclear charge
  QA   - Mulliken gross atomic charge
  VA   - Mayer's total valence
  BVA  - Mayer's bonded valence
  FA   - Mayer's free valence

  ATOM       NA         ZA         QA         VA         BVA        FA
  0 C      6.2253     6.0000    -0.2253     3.9378     3.9378     0.0000
  1 C      6.1261     6.0000    -0.1261     3.9027     3.9027     0.0000
  2 H      0.9166     1.0000     0.0834     0.9766     0.9766     0.0000
  3 C      5.8833     6.0000     0.1167     3.8730     3.8730    -0.0000
  4 C      6.1011     6.0000    -0.1011     3.8144     3.8144     0.0000
  5 C      6.1185     6.0000    -0.1185     3.8318     3.8318     0.0000
  6 C      5.9689     6.0000     0.0311     3.7442     3.7442    -0.0000
  7 C      5.7280     6.0000     0.2720     3.9207     3.9207    -0.0000
  8 C      6.2351     6.0000    -0.2351     3.7359     3.7359    -0.0000
  9 F      9.1720     9.0000    -0.1720     1.2248     1.2248     0.0000
 10 C      5.8880     6.0000     0.1120     3.8530     3.8530     0.0000
 11 C      6.0962     6.0000    -0.0962     3.8391     3.8391    -0.0000
 12 C      6.0523     6.0000    -0.0523     3.8337     3.8337    -0.0000
 13 C      6.0454     6.0000    -0.0454     3.8159     3.8159    -0.0000
 14 C      6.0493     6.0000    -0.0493     3.8306     3.8306    -0.0000
 15 C      6.1113     6.0000    -0.1113     3.8377     3.8377     0.0000
 16 C      5.8884     6.0000     0.1116     4.3994     4.3994     0.0000
 17 O      8.1825     8.0000    -0.1825     2.3173     2.3173    -0.0000
 18 O      8.2868     8.0000    -0.2868     2.1797     2.1797     0.0000
 19 H      0.8777     1.0000     0.1223     0.9721     0.9721     0.0000
 20 H      0.8903     1.0000     0.1097     0.9564     0.9564    -0.0000
 21 H      0.8905     1.0000     0.1095     0.9523     0.9523    -0.0000
 22 H      0.9569     1.0000     0.0431     0.9626     0.9626     0.0000
 23 H      0.9490     1.0000     0.0510     0.9624     0.9624    -0.0000
 24 H      0.9438     1.0000     0.0562     0.9957     0.9957    -0.0000
 25 H      0.9504     1.0000     0.0496     0.9672     0.9672     0.0000
 26 H      0.9459     1.0000     0.0541     0.9495     0.9495    -0.0000
 27 H      0.9451     1.0000     0.0549     0.9492     0.9492     0.0000
 28 H      0.9464     1.0000     0.0536     0.9495     0.9495    -0.0000
 29 H      0.9499     1.0000     0.0501     0.9594     0.9594     0.0000
 30 H      0.6792     1.0000     0.3208     0.9023     0.9023    -0.0000

  Mayer bond orders larger than 0.100000
B(  0-C ,  1-C ) :   1.0886 B(  0-C , 19-H ) :   0.9369 B(  0-C , 20-H ) :   0.9457 
B(  0-C , 21-H ) :   0.9503 B(  1-C ,  2-H ) :   0.8761 B(  1-C ,  3-C ) :   1.0043 
B(  1-C , 16-C ) :   0.9375 B(  3-C ,  4-C ) :   1.3875 B(  3-C ,  8-C ) :   1.3014 
B(  4-C ,  5-C ) :   1.3478 B(  4-C , 22-H ) :   0.9631 B(  5-C ,  6-C ) :   1.3677 
B(  5-C , 23-H ) :   0.9574 B(  6-C ,  7-C ) :   1.3311 B(  6-C , 10-C ) :   0.9731 
B(  7-C ,  8-C ) :   1.3370 B(  7-C ,  9-F ) :   1.1055 B(  8-C , 24-H ) :   0.9542 
B( 10-C , 11-C ) :   1.3781 B( 10-C , 15-C ) :   1.3793 B( 11-C , 12-C ) :   1.3753 
B( 11-C , 25-H ) :   0.9608 B( 12-C , 13-C ) :   1.3741 B( 12-C , 26-H ) :   0.9631 
B( 13-C , 14-C ) :   1.3766 B( 13-C , 27-H ) :   0.9655 B( 14-C , 15-C ) :   1.3718 
B( 14-C , 28-H ) :   0.9637 B( 15-C , 29-H ) :   0.9585 B( 16-C , 17-O ) :   2.1369 
B( 16-C , 18-O ) :   1.2505 B( 18-O , 30-H ) :   0.8159 

-------
TIMINGS
-------

Total SCF time: 0 days 0 hours 0 min 12 sec 

Total time                  ....      12.258 sec
Sum of individual times     ....      12.219 sec  ( 99.7%)

SCF preparation             ....       0.079 sec  (  0.6%)
Fock matrix formation       ....      11.666 sec  ( 95.2%)
  Startup                   ....       0.011 sec  (  0.1% of F)
  Split-RI-J                ....       6.879 sec  ( 59.0% of F)
  XC integration            ....       4.648 sec  ( 39.8% of F)
    XC Preparation          ....       0.000 sec  (  0.0% of XC)
    Basis function eval.    ....       1.852 sec  ( 39.9% of XC)
    Density eval.           ....       1.194 sec  ( 25.7% of XC)
    XC-Functional eval.     ....       0.258 sec  (  5.5% of XC)
    XC-Potential eval.      ....       1.067 sec  ( 23.0% of XC)
Diagonalization             ....       0.000 sec  (  0.0%)
Density matrix formation    ....       0.046 sec  (  0.4%)
Total Energy calculation    ....       0.004 sec  (  0.0%)
Population analysis         ....       0.140 sec  (  1.1%)
Orbital Transformation      ....       0.039 sec  (  0.3%)
Orbital Orthonormalization  ....       0.000 sec  (  0.0%)
DIIS solution               ....       0.196 sec  (  1.6%)
  MO trafo                  ....       0.000 sec  (  0.0 % of DIIS)
  Orb grad                  ....       0.000 sec  (  0.0 % of DIIS)
  Energy W gradient         ....       0.000 sec  (  0.0 % of DIIS)
  DIIS error                ....       0.022 sec  ( 11.2 % of DIIS)
  DIIS work                 ....       0.154 sec  ( 78.6 % of DIIS)
  Form Q                    ....       0.000 sec  (  0.0 % of DIIS)
  Form QpQm                 ....       0.000 sec  (  0.0 % of DIIS)
  Exp/Cayley                ....       0.000 sec  (  0.0 % of DIIS)
  Orb update                ....       0.000 sec  (  0.0 % of DIIS)
  Wake-sleep                ....       0.002 sec  (  0.9 % of DIIS)
SOSCF solution              ....       0.047 sec  (  0.4%)
  MO trafo                  ....       0.030 sec  ( 63.9 % of SOSCF)
  Orb grad                  ....       0.000 sec  (  0.6 % of SOSCF)
  Rot update                ....       0.002 sec  (  4.0 % of SOSCF)
  Step                      ....       0.015 sec  ( 31.3 % of SOSCF)
Finished LeanSCF after  12.3 sec

Maximum memory used throughout the entire LEANSCF-calculation: 27.1 MB


-------------------------------------------------------------------------------
                          DFT DISPERSION CORRECTION                            
                                                                               
                                DFTD4 V3.4.0                                   
-------------------------------------------------------------------------------
The PBE functional is recognized
Active option DFTDOPT                   ...         5   

-------------------------   ----------------
Dispersion correction           -0.040106844
-------------------------   ----------------

------------------   -----------------
gCP correction             0.130283685
------------------   -----------------

-------------------------   --------------------
FINAL SINGLE POINT ENERGY      -828.016505730609
-------------------------   --------------------


------------------------------------------------------------------------------
                              ORCA PROPERTY CALCULATIONS
------------------------------------------------------------------------------

GBWName                                 ... sp.gbw
Number of atoms                         ...     31
Number of basis functions               ...    278
Max core memory                         ...   1024 MB

Electric properties:
Dipole moment                           ... YES
Quadrupole moment                       ...  NO
Static polarizability (Dipole/Dipole)   ...  NO
Static polarizability (Dipole/Quad.)    ...  NO
Static polarizability (Quad./Quad.)     ...  NO
Static polarizability (Velocity)        ...  NO

Atomic electric properties:
Dipole moment                           ...  NO
Quadrupole moment                       ...  NO
Static polarizability                   ...  NO

Choice of electric origin               ... Center of mass
Position of electric origin             ...     0.000023    -0.000007    -0.000014

General magnetic properties:
Magnetizability                         ...  NO

EPR properties:
g-Tensor (aka g-matrix)                 ...  NO
Zero-Field splitting spin-orbit         ...  NO
Zero-field splitting spin-spin          ...  NO
Hyperfine couplings                     ...  NO (   0 nuclei)
Quadrupole couplings                    ...  NO (   0 nuclei)
Contact density                         ...  NO (   0 nuclei)

NMR properties:
Chemical shifts                         ...  NO (   0 nuclei)
Spin-rotation constants                 ...  NO (   0 nuclei)
Spin-spin couplings                     ...  NO (   0 nuclei,    0 pairs)

Choice of magnetic origin               ... GIAO
Position of magnetic origin             ...     0.000000     0.000000     0.000000

Properties with geometric perturbations:
SCF Hessian                             ...  NO
IR spectrum                             ...  NO
VCD spectrum                            ...  NO
X-ray spectroscopy properties:
SCF XES/XAS/RIXS spectra                ...  NO


-------------
DIPOLE MOMENT
-------------

Method             : SCF
Type of density    : Electron Density
Multiplicity       :   1
Irrep              :   0
Energy             :  -828.1066825716420681 Eh
Relativity type    : 
Basis              : AO
                                X                 Y                 Z
Electronic contribution:      0.809409471       3.648137617       5.947388091
Nuclear contribution   :     -0.904423718      -3.376262065      -6.323534192
                        -----------------------------------------
Total Dipole Moment    :     -0.095014246       0.271875552      -0.376146101
                        -----------------------------------------
Magnitude (a.u.)       :      0.473740343
Magnitude (Debye)      :      1.204152255



--------------------
Rotational spectrum 
--------------------
 
Rotational constants in cm-1:             0.038591             0.006437             0.006144 
Rotational constants in MHz :          1156.914736           192.964953           184.186204 

Dipole components along the rotational axes: 
x,y,z [a.u.] :     0.096956     0.281995    -0.368114 
x,y,z [Debye]:     0.246443     0.716774    -0.935672 

 

Dipole moment calculation done in   0.8 sec 

Maximum memory used throughout the entire PROP-calculation: 18.8 MB

--------------------------------
SUGGESTED CITATIONS FOR THIS RUN
--------------------------------

Below you find a list of papers that are relevant to this ORCA run
We neither can nor want to force you to cite these papers, but we appreciate if you do
You receive ORCA, which is the product of decades of hard work by many enthusiastic individuals, for free
The only thing we kindly ask in return is that you cite our papers,
We deeply appreciate it, if you show your appreciation for ORCA by not just citing the generic ORCA reference.

Please note that relegating all ORCA citations to the supporting information does *not* help us.
SI sections are not indexed - citations you put there will not count into any citation statistics
But we need these citations in order to attract the funding resources that allow us to do what we are doing

Therefore, if you are a happy ORCA user, please consider citing a few of the papers listed below in the main body of your paper

In addition to the list printed below, the program has created the file sp.bibtex that contains the list in bibtex format
You can import this file easily into all common literature databanks and citation aid programs


List of essential papers. We consider these as the minimum necessary citations

  1. Neese,F.
     Software update: the ORCA program system, version 5.0
     WIRES Comput. Molec. Sci., 2022 12(1)e1606
     doi.org/10.1002/wcms.1606

List of papers to cite with high priority. The work reported in these papers was absolutely
necessary for this run to complete.
Our perspective: the developers of density functionals and basis sets usually get cited in chemistry papers
Good! But without the algorithms to do something with them, the functionals or basis sets would not do anything.
Hence, in our opinion, the algorithm design and method developments papers are equally worthy of getting cited

  1. Neese,F.
     An improvement of the resolution of the identity approximation for the formation of the Coulomb matrix
     J. Comp. Chem., 2003 24(14)1740-1747
     doi.org/10.1002/jcc.10318
  2. Neese,F.
     The SHARK Integral Generation and Digestion System
     J. Comp. Chem., 2022  1-16
     doi.org/10.1002/jcc.26942
  3. Caldeweyher,E.; Bannwarth,C.; Grimme,S.
     Extension of the D3 dispersion coefficient model
     J. Chem. Phys., 2017 147 034112
     doi.org/10.1063/1.4993215
  4. Caldeweyher,E.; Ehlert,S.; Hansen,A.; Neugebauer,H.; Spicher,S.; Bannwarth,C.; Grimme,S.
     A generally applicable atomic-charge dependent London dispersion correction
     J. Chem. Phys., 2019 150 154122
     doi.org/10.1063/1.5090222
  5. Caldeweyher,E.; Mewes,J.; Ehlert,S.; Grimme,S.
     Extension and evaluation of the D4 London-dispersion model for periodic systems
     Phys. Chem. Chem. Phys., 2020 22(16)8499-8512
     doi.org/10.1039/D0CP00502A
  6. Wittmann,L.; Gordiy,I.; Friede,M.; Helmich-Paris,B.; Grimme,S.; Hansen,A.; Bursch,M.
     Extension of the D3 and D4 London Dispersion Corrections to the full Actinides Series
     Phys. Chem. Chem. Phys., 2024 26(32)21379-21394
     doi.org/https://doi.org/10.1039/D4CP01514B 

List of suggested additional citations. These are papers that are important in the 'surrounding' of 
of this run, or papers that preceded the highly important papers. If you like your results we are grateful for a citation.

  1. Neese,F.
     The ORCA program system
     WIRES Comput. Molec. Sci., 2012 2(1)73-78
     doi.org/10.1002/wcms.81
  2. Neese,F.
     Software update: the ORCA program system, version 4.0
     WIRES Comput. Molec. Sci., 2018 8(1)1-6
     doi.org/10.1002/wcms.1327
  3. Neese,F.; Wennmohs,F.; Becker,U.; Riplinger,C.
     The ORCA quantum chemistry program package
     J. Chem. Phys., 2020 152 Art. No. L224108
     doi.org/10.1063/5.0004608

List of optional additional citations

  1. Neese,F.
     Approximate second-order SCF convergence for spin unrestricted wavefunctions
     Chem. Phys. Lett., 2000 325(1-3)93-98
     doi.org/10.1016/s0009-2614(00)00662-x

Timings for individual modules:

Sum of individual times          ...       15.640 sec (=   0.261 min)
Startup calculation              ...        1.138 sec (=   0.019 min)   7.3 %
SCF iterations                   ...       13.606 sec (=   0.227 min)  87.0 %
Property calculations            ...        0.895 sec (=   0.015 min)   5.7 %
                             ****ORCA TERMINATED NORMALLY****
TOTAL RUN TIME: 0 days 0 hours 0 minutes 16 seconds 307 msec
