 Entering Gaussian System
 *********************************************
 Gaussian 98:
 frequency output generated by the xtb code
 *********************************************
                         Standard orientation:
 --------------------------------------------------------------------
  Center     Atomic     Atomic              Coordinates (Angstroms)
  Number     Number      Type              X           Y           Z
 --------------------------------------------------------------------
    1          6             0       -3.257975   -1.180031    0.299452
    2          6             0       -1.758534   -0.906433    0.291138
    3          6             0       -1.465847    0.522915   -0.155891
    4          6             0       -0.004142    0.884139   -0.189442
    5          8             0        0.407447    2.005915   -0.421206
    6          8             0        0.797402   -0.140155    0.049881
    7          6             0        2.214532    0.100579    0.028754
    8          6             0        2.923590   -1.232524    0.167416
    9          1             0       -3.453466   -2.199182    0.621031
   10          1             0       -3.766609   -0.501122    0.979509
   11          1             0       -3.676369   -1.046705   -0.695138
   12          1             0       -1.260428   -1.604807   -0.382061
   13          1             0       -1.350214   -1.062696    1.290494
   14          1             0       -1.959884    1.243996    0.499489
   15          1             0       -1.857077    0.695581   -1.161975
   16          1             0        2.467125    0.602907   -0.910900
   17          1             0        2.460406    0.778484    0.852679
   18          1             0        2.658631   -1.884032   -0.659938
   19          1             0        3.996274   -1.069916    0.165913
   20          1             0        2.634264   -1.712008    1.097653
 --------------------------------------------------------------------
     1 basis functions        1 primitive gaussians
     1 alpha electrons        1 beta electrons
 
 Harmonic frequencies (cm**-1), IR intensities (km*mol⁻¹),
 Raman scattering activities (A**4/amu), Raman depolarization ratios,
 reduced masses (AMU), force constants (mDyne/A) and normal coordinates:
                      1                      2                      3
                        a                      a                      a 
 Frequencies --    12.6958                24.1781                81.1957
 Red. masses --     6.6777                10.3668                 7.7800
 Frc consts  --     0.0000                 0.0000                 0.0000
 IR Inten    --     0.0430                 6.7343                 0.1648
 Raman Activ --     0.0000                 0.0000                 0.0000
 Depolar     --     0.0000                 0.0000                 0.0000
 Atom AN      X      Y      Z        X      Y      Z        X      Y      Z
   1   6    -0.01   0.01  -0.01    -0.02   0.02   0.01     0.06  -0.17  -0.43
   2   6    -0.02   0.07   0.22    -0.03   0.09   0.27     0.01   0.11   0.35
   3   6     0.02  -0.08  -0.25     0.01  -0.08  -0.27    -0.00   0.09   0.29
   4   6     0.01  -0.02  -0.03    -0.00  -0.02  -0.01     0.00   0.05   0.10
   5   8    -0.00  -0.03  -0.09    -0.02   0.09   0.51     0.01  -0.00  -0.17
   6   8     0.00   0.03   0.22     0.01  -0.11  -0.42    -0.01   0.07   0.19
   7   6     0.00   0.05   0.38     0.00  -0.03  -0.21     0.00  -0.04  -0.21
   8   6     0.01  -0.03  -0.40     0.04   0.03   0.13    -0.07  -0.07  -0.06
   9   1    -0.01   0.04   0.10    -0.01   0.04   0.12     0.02  -0.04  -0.08
  10   1    -0.06   0.07  -0.11    -0.07   0.09  -0.12    -0.13  -0.03  -0.26
  11   1     0.06  -0.11  -0.04     0.06  -0.13  -0.04     0.17  -0.14  -0.20
  12   1     0.05  -0.05   0.17     0.05  -0.05   0.20     0.14   0.03   0.20
  13   1    -0.07   0.14   0.11    -0.08   0.16   0.13    -0.14   0.09   0.17
  14   1    -0.06   0.04  -0.19    -0.07   0.06  -0.22     0.02   0.04   0.09
  15   1     0.08  -0.15  -0.12     0.09  -0.17  -0.14    -0.02   0.01   0.09
  16   1     0.01   0.18   0.20     0.03  -0.06  -0.08    -0.05  -0.08  -0.11
  17   1    -0.01  -0.13   0.23    -0.04   0.04  -0.09     0.07   0.04  -0.13
  18   1     0.02   0.14  -0.24     0.05  -0.04   0.07    -0.10  -0.08   0.05
  19   1     0.00  -0.00  -0.06     0.01   0.02   0.07    -0.02  -0.05  -0.12
  20   1    -0.02  -0.18  -0.21    -0.01   0.06   0.06     0.04   0.06   0.04
                      4                      5                      6
                        a                      a                      a 
 Frequencies --   103.4913               156.3566               219.0417
 Red. masses --     9.8138                 6.0591                 8.5532
 Frc consts  --     0.0000                 0.0000                 0.0000
 IR Inten    --     1.4080                 5.2372                 4.8657
 Raman Activ --     0.0000                 0.0000                 0.0000
 Depolar     --     0.0000                 0.0000                 0.0000
 Atom AN      X      Y      Z        X      Y      Z        X      Y      Z
   1   6    -0.34   0.28  -0.13     0.01  -0.04  -0.07     0.10  -0.16   0.04
   2   6    -0.27  -0.06   0.04    -0.01   0.06   0.16     0.03   0.21  -0.02
   3   6     0.01  -0.10   0.11    -0.03   0.10   0.30    -0.10   0.25   0.02
   4   6     0.02  -0.21   0.07    -0.00  -0.03  -0.11    -0.03  -0.04  -0.10
   5   8     0.01  -0.25  -0.01     0.03  -0.04  -0.13     0.30  -0.14   0.02
   6   8     0.10  -0.18   0.09    -0.02  -0.11  -0.42    -0.24  -0.25  -0.22
   7   6     0.06   0.10  -0.07    -0.02  -0.00   0.11    -0.23  -0.04   0.22
   8   6     0.42   0.30  -0.07     0.05   0.04   0.08     0.12   0.14  -0.01
   9   1    -0.18   0.09  -0.05     0.01  -0.02  -0.04     0.12  -0.05   0.04
  10   1    -0.07   0.11  -0.05    -0.04  -0.03  -0.04    -0.02  -0.07  -0.00
  11   1    -0.06   0.12  -0.05     0.04  -0.01  -0.04     0.01  -0.11   0.01
  12   1    -0.10  -0.04   0.02     0.03   0.04   0.05     0.04   0.09  -0.01
  13   1    -0.12  -0.05   0.02    -0.04  -0.00   0.06     0.03   0.07  -0.01
  14   1     0.03  -0.01   0.04     0.08   0.01   0.18     0.03   0.07   0.05
  15   1     0.00   0.00   0.03    -0.11   0.09   0.14    -0.07   0.11   0.03
  16   1    -0.04   0.03  -0.03     0.08   0.07   0.09    -0.04   0.08   0.12
  17   1    -0.00   0.06  -0.04    -0.11  -0.05   0.10    -0.16  -0.05   0.13
  18   1     0.14   0.05   0.00     0.33   0.14  -0.18    -0.15  -0.04   0.12
  19   1     0.11   0.17  -0.07     0.01   0.07   0.42     0.02   0.11  -0.31
  20   1     0.20   0.08   0.00    -0.28  -0.17  -0.16     0.32   0.09   0.11
                      7                      8                      9
                        a                      a                      a 
 Frequencies --   231.2404               234.3554               325.2605
 Red. masses --     2.0281                 8.6596                 9.6737
 Frc consts  --     0.0000                 0.0000                 0.0000
 IR Inten    --     0.5131                 5.3477                 5.6491
 Raman Activ --     0.0000                 0.0000                 0.0000
 Depolar     --     0.0000                 0.0000                 0.0000
 Atom AN      X      Y      Z        X      Y      Z        X      Y      Z
   1   6     0.02  -0.05  -0.03    -0.07   0.13  -0.07     0.31   0.38  -0.11
   2   6    -0.01   0.11   0.20    -0.01  -0.14   0.15     0.37  -0.20   0.08
   3   6    -0.01   0.01  -0.12     0.07  -0.16   0.15     0.08  -0.18   0.05
   4   6    -0.01  -0.01  -0.00     0.03   0.01  -0.13    -0.06  -0.07   0.01
   5   8     0.06  -0.04  -0.01    -0.29   0.14  -0.07     0.07  -0.14   0.03
   6   8    -0.05  -0.03   0.04     0.20   0.09  -0.40    -0.21  -0.15   0.01
   7   6    -0.04  -0.01  -0.03     0.19   0.06   0.26    -0.29   0.10  -0.02
   8   6     0.02   0.03  -0.01    -0.07  -0.12   0.05    -0.24   0.17  -0.03
   9   1     0.05  -0.19  -0.53    -0.09   0.02  -0.13    -0.09   0.14  -0.05
  10   1     0.01  -0.38   0.36     0.00   0.00   0.03     0.16   0.18  -0.05
  11   1    -0.04   0.48   0.07     0.02   0.16  -0.02     0.16   0.19  -0.05
  12   1     0.05   0.01   0.12    -0.01  -0.06   0.06     0.09  -0.07   0.02
  13   1    -0.05   0.10   0.09    -0.04  -0.06   0.06     0.09  -0.06   0.03
  14   1    -0.05   0.06  -0.14     0.06  -0.05   0.08    -0.01  -0.08   0.02
  15   1     0.06  -0.10  -0.08    -0.04  -0.04   0.07    -0.01  -0.09   0.02
  16   1    -0.03  -0.01  -0.02     0.17   0.10   0.15    -0.11   0.04  -0.01
  17   1    -0.01   0.01  -0.02    -0.02  -0.08   0.17    -0.10   0.05  -0.01
  18   1     0.04   0.01  -0.01    -0.29  -0.06   0.12    -0.07   0.05  -0.01
  19   1     0.00   0.03   0.03    -0.01  -0.14  -0.27    -0.07   0.05  -0.00
  20   1    -0.01  -0.00  -0.01     0.16   0.05   0.12    -0.07   0.05  -0.01
                     10                     11                     12
                        a                      a                      a 
 Frequencies --   357.3511               470.7367               570.8275
 Red. masses --    10.7086                12.3397                 9.1959
 Frc consts  --     0.0000                 0.0000                 0.0000
 IR Inten    --     9.8835                 8.1726                12.8626
 Raman Activ --     0.0000                 0.0000                 0.0000
 Depolar     --     0.0000                 0.0000                 0.0000
 Atom AN      X      Y      Z        X      Y      Z        X      Y      Z
   1   6     0.18   0.16  -0.04     0.21   0.09  -0.02     0.02   0.00  -0.01
   2   6     0.17   0.04  -0.01     0.08   0.34  -0.09    -0.00   0.04  -0.07
   3   6    -0.07   0.04  -0.01    -0.09   0.21  -0.07     0.05   0.07   0.15
   4   6    -0.13   0.11   0.00    -0.06  -0.37   0.01     0.00   0.10   0.67
   5   8    -0.42   0.21  -0.05    -0.48  -0.29   0.09    -0.07  -0.08  -0.29
   6   8    -0.21   0.02   0.06     0.22  -0.21   0.07     0.02  -0.11  -0.26
   7   6    -0.07  -0.39   0.04     0.18   0.14  -0.01    -0.01   0.01  -0.00
   8   6     0.43  -0.19   0.03    -0.08   0.01  -0.00    -0.02   0.02   0.01
   9   1     0.00   0.06  -0.02     0.12   0.02  -0.00     0.03   0.00   0.03
  10   1     0.07   0.07  -0.02     0.03   0.00   0.00     0.01   0.01  -0.01
  11   1     0.07   0.07  -0.02     0.04   0.01  -0.00    -0.01  -0.03   0.00
  12   1     0.05   0.02  -0.01     0.06   0.12  -0.03    -0.02   0.07  -0.09
  13   1     0.06   0.02  -0.00     0.05   0.13  -0.03     0.03  -0.07  -0.05
  14   1    -0.04  -0.00  -0.01     0.07   0.10   0.02    -0.26   0.07  -0.23
  15   1    -0.02  -0.00  -0.01    -0.03   0.13  -0.00     0.36  -0.13  -0.13
  16   1    -0.02  -0.12   0.01     0.03   0.04  -0.01     0.04   0.05   0.04
  17   1     0.00  -0.11   0.00     0.04   0.04  -0.01    -0.06  -0.03   0.04
  18   1     0.24  -0.10   0.01    -0.09   0.03  -0.00    -0.02   0.00   0.01
  19   1     0.10   0.13  -0.00    -0.01  -0.11   0.01    -0.00  -0.01  -0.00
  20   1     0.23  -0.10   0.01    -0.09   0.03  -0.01    -0.01   0.01   0.01
                     13                     14                     15
                        a                      a                      a 
 Frequencies --   641.9826               774.5486               819.2866
 Red. masses --    11.1086                 3.3132                 2.1729
 Frc consts  --     0.0000                 0.0000                 0.0000
 IR Inten    --    11.1186                37.6715                 3.1560
 Raman Activ --     0.0000                 0.0000                 0.0000
 Depolar     --     0.0000                 0.0000                 0.0000
 Atom AN      X      Y      Z        X      Y      Z        X      Y      Z
   1   6    -0.09  -0.06   0.01     0.01  -0.00  -0.02     0.00  -0.00  -0.00
   2   6    -0.06   0.09  -0.03     0.01  -0.06  -0.20     0.00  -0.01  -0.01
   3   6     0.58  -0.03   0.02     0.00  -0.07  -0.20    -0.02   0.00   0.00
   4   6     0.36  -0.04  -0.06    -0.01   0.07   0.31    -0.00   0.02   0.03
   5   8    -0.29   0.25  -0.03     0.01  -0.02  -0.08    -0.00   0.02  -0.02
   6   8    -0.03  -0.25   0.07     0.00  -0.00  -0.07    -0.00  -0.04  -0.10
   7   6    -0.29  -0.08   0.01    -0.00  -0.00  -0.02     0.01   0.04   0.27
   8   6    -0.12   0.11  -0.02    -0.00  -0.00  -0.00     0.01   0.01   0.11
   9   1     0.09  -0.04   0.01    -0.00   0.02   0.07    -0.01   0.00   0.01
  10   1    -0.07  -0.07   0.02     0.19   0.04   0.10     0.02   0.01   0.01
  11   1    -0.07  -0.07   0.02    -0.20   0.02   0.08    -0.01   0.00   0.00
  12   1    -0.05  -0.02   0.02     0.24  -0.22   0.34     0.02  -0.01   0.02
  13   1    -0.06   0.00   0.00    -0.26   0.38   0.12    -0.01   0.02   0.01
  14   1     0.24   0.04   0.02     0.05  -0.25   0.24    -0.02  -0.01   0.00
  15   1     0.17   0.07   0.02    -0.07   0.34   0.04     0.00   0.01  -0.00
  16   1    -0.12  -0.02  -0.01     0.01   0.03   0.01     0.03  -0.46  -0.18
  17   1    -0.09   0.00  -0.01    -0.01  -0.03   0.02    -0.03   0.42  -0.27
  18   1    -0.01   0.02  -0.01     0.01  -0.02   0.01    -0.16   0.35  -0.21
  19   1    -0.04   0.09  -0.01    -0.00   0.01   0.01     0.01  -0.04  -0.15
  20   1    -0.01   0.02  -0.00    -0.00   0.02   0.01     0.15  -0.38  -0.13
                     16                     17                     18
                        a                      a                      a 
 Frequencies --   882.5102               891.1960               938.8745
 Red. masses --     3.8091                10.0618                 7.4104
 Frc consts  --     0.0000                 0.0000                 0.0000
 IR Inten    --     2.6290                15.9707                 5.3869
 Raman Activ --     0.0000                 0.0000                 0.0000
 Depolar     --     0.0000                 0.0000                 0.0000
 Atom AN      X      Y      Z        X      Y      Z        X      Y      Z
   1   6    -0.01   0.05   0.16     0.05   0.07  -0.04     0.12   0.25  -0.07
   2   6    -0.01   0.05   0.13    -0.04   0.12  -0.05    -0.09   0.18  -0.07
   3   6     0.02  -0.11  -0.31     0.13  -0.11   0.08     0.21  -0.30   0.10
   4   6    -0.01   0.04   0.28    -0.12  -0.16  -0.00    -0.19   0.03  -0.03
   5   8     0.01  -0.04  -0.05     0.01  -0.31   0.08     0.04  -0.09   0.02
   6   8     0.03   0.05  -0.07     0.25   0.51  -0.10    -0.35   0.09  -0.02
   7   6    -0.03  -0.02  -0.00    -0.25  -0.11   0.02     0.14   0.13  -0.01
   8   6    -0.03  -0.00   0.00    -0.22  -0.03   0.01     0.20  -0.08   0.01
   9   1     0.02  -0.05  -0.16     0.15   0.00   0.03     0.48  -0.01   0.02
  10   1    -0.37  -0.10  -0.13     0.00  -0.03   0.03    -0.15  -0.15   0.05
  11   1     0.38   0.01  -0.13    -0.08  -0.05   0.02    -0.12  -0.15   0.02
  12   1    -0.31  -0.11  -0.07     0.00   0.03  -0.00    -0.13  -0.06   0.01
  13   1     0.32   0.07  -0.09    -0.06  -0.01   0.00    -0.11  -0.04   0.01
  14   1     0.11  -0.18   0.18     0.06   0.02  -0.02     0.01  -0.12   0.04
  15   1    -0.12   0.25   0.02     0.07  -0.04   0.01     0.02  -0.10   0.04
  16   1     0.01  -0.01   0.00     0.10  -0.09   0.01    -0.02   0.05  -0.01
  17   1     0.00  -0.01  -0.00     0.06  -0.06  -0.00    -0.03   0.05  -0.00
  18   1     0.02  -0.00  -0.00     0.17  -0.07  -0.02    -0.07   0.02   0.01
  19   1    -0.01   0.05  -0.01    -0.12   0.40  -0.05     0.09  -0.25   0.02
  20   1     0.02  -0.02   0.00     0.19  -0.12   0.02    -0.07   0.02  -0.01
                     19                     20                     21
                        a                      a                      a 
 Frequencies --   987.5281              1067.9041              1072.6362
 Red. masses --     9.6992                 9.0972                 5.0464
 Frc consts  --     0.0000                 0.0000                 0.0000
 IR Inten    --     6.9990                59.2262                25.3204
 Raman Activ --     0.0000                 0.0000                 0.0000
 Depolar     --     0.0000                 0.0000                 0.0000
 Atom AN      X      Y      Z        X      Y      Z        X      Y      Z
   1   6    -0.16  -0.20   0.06     0.02  -0.02  -0.05    -0.01   0.04   0.14
   2   6     0.11  -0.08   0.03    -0.02   0.05   0.06     0.01  -0.04  -0.20
   3   6     0.36   0.18  -0.04    -0.07  -0.06  -0.10    -0.05   0.07   0.29
   4   6    -0.17  -0.10   0.00     0.04   0.02   0.12    -0.00  -0.06  -0.31
   5   8    -0.05  -0.27   0.06     0.01   0.01  -0.02    -0.00   0.01   0.05
   6   8    -0.36   0.32  -0.07     0.36   0.10  -0.03     0.17   0.02   0.05
   7   6     0.05   0.15  -0.02    -0.55   0.20  -0.02    -0.21   0.07  -0.02
   8   6     0.16  -0.13   0.02     0.29  -0.28   0.03     0.09  -0.10   0.02
   9   1    -0.33  -0.01  -0.02    -0.01   0.01   0.02    -0.01  -0.02  -0.07
  10   1     0.06   0.08  -0.04     0.07   0.02   0.02    -0.17  -0.03  -0.05
  11   1     0.06   0.09  -0.01    -0.06   0.00   0.02     0.18   0.01  -0.05
  12   1     0.08   0.01   0.00     0.02   0.10  -0.05    -0.03  -0.19   0.12
  13   1     0.08   0.02  -0.00    -0.01  -0.07   0.00     0.04   0.26  -0.02
  14   1     0.21   0.16  -0.04     0.12   0.06   0.00    -0.42  -0.20  -0.01
  15   1     0.21   0.16  -0.04    -0.19  -0.08   0.03     0.42   0.17  -0.08
  16   1    -0.00   0.05  -0.00    -0.21   0.13   0.01    -0.05   0.05   0.01
  17   1    -0.04   0.05  -0.00    -0.19   0.13  -0.04    -0.08   0.04  -0.01
  18   1    -0.02  -0.01   0.00    -0.05  -0.06   0.03    -0.02  -0.02   0.01
  19   1     0.06  -0.16   0.01     0.10  -0.30   0.03     0.03  -0.09   0.01
  20   1    -0.01  -0.03  -0.01    -0.05  -0.05  -0.02    -0.01  -0.03  -0.01
                     22                     23                     24
                        a                      a                      a 
 Frequencies --  1087.3142              1117.7063              1136.7195
 Red. masses --     9.0178                 8.1072                 7.0165
 Frc consts  --     0.0000                 0.0000                 0.0000
 IR Inten    --    11.6171                15.8392                10.1195
 Raman Activ --     0.0000                 0.0000                 0.0000
 Depolar     --     0.0000                 0.0000                 0.0000
 Atom AN      X      Y      Z        X      Y      Z        X      Y      Z
   1   6    -0.54   0.05  -0.05    -0.02  -0.05   0.01     0.01  -0.18   0.06
   2   6     0.62   0.13  -0.00    -0.00   0.12  -0.04    -0.10   0.41  -0.14
   3   6     0.04  -0.01   0.00     0.00  -0.12   0.04     0.02  -0.41   0.14
   4   6    -0.09   0.04   0.00    -0.04  -0.01  -0.00     0.04   0.02  -0.00
   5   8    -0.01  -0.02   0.00     0.00  -0.08   0.02     0.04   0.05  -0.01
   6   8     0.07  -0.07   0.01     0.11   0.22  -0.02    -0.08  -0.03  -0.09
   7   6    -0.01   0.01   0.00    -0.11  -0.54   0.01     0.05   0.09   0.24
   8   6    -0.01  -0.01  -0.00     0.14   0.44  -0.01    -0.03  -0.06  -0.16
   9   1     0.02  -0.02   0.01    -0.08   0.00  -0.00    -0.25   0.00  -0.02
  10   1    -0.24  -0.10   0.02     0.02   0.03  -0.01     0.11   0.11  -0.05
  11   1    -0.25  -0.10   0.02     0.02   0.03  -0.00     0.11   0.12  -0.01
  12   1     0.19   0.06  -0.01     0.04   0.07  -0.02     0.10   0.21  -0.06
  13   1     0.19   0.05  -0.01     0.04   0.06  -0.02     0.09   0.21  -0.07
  14   1    -0.10  -0.12   0.04     0.01  -0.02   0.01    -0.03  -0.14   0.05
  15   1    -0.11  -0.13   0.03     0.01  -0.02   0.01    -0.01  -0.14   0.04
  16   1     0.00  -0.00  -0.00     0.04  -0.12   0.03    -0.19  -0.09  -0.06
  17   1     0.02   0.00  -0.00    -0.04  -0.16   0.02     0.19   0.12  -0.07
  18   1     0.01  -0.01   0.00    -0.27   0.24  -0.01     0.10  -0.19   0.06
  19   1    -0.01   0.02   0.00     0.08  -0.29   0.01    -0.02   0.05   0.07
  20   1     0.01  -0.00   0.00    -0.24   0.17  -0.06    -0.03   0.14   0.04
                     25                     26                     27
                        a                      a                      a 
 Frequencies --  1137.4091              1208.7380              1210.9945
 Red. masses --     5.9280                 5.0617                11.6321
 Frc consts  --     0.0000                 0.0000                 0.0000
 IR Inten    --    20.5003                43.2766               587.4711
 Raman Activ --     0.0000                 0.0000                 0.0000
 Depolar     --     0.0000                 0.0000                 0.0000
 Atom AN      X      Y      Z        X      Y      Z        X      Y      Z
   1   6     0.00  -0.10   0.02    -0.02   0.10   0.27     0.04  -0.05   0.09
   2   6    -0.05   0.24  -0.07     0.04  -0.14  -0.41    -0.08   0.01  -0.12
   3   6    -0.01  -0.25   0.06    -0.07   0.05   0.13     0.31   0.01   0.03
   4   6     0.08  -0.01   0.00     0.18  -0.07   0.11    -0.68   0.32  -0.06
   5   8     0.02   0.06  -0.00    -0.02  -0.01  -0.01     0.06   0.03  -0.01
   6   8    -0.08  -0.02   0.15    -0.08   0.09  -0.03     0.29  -0.32   0.06
   7   6     0.05   0.07  -0.41     0.01  -0.00  -0.00    -0.05   0.01  -0.04
   8   6    -0.03  -0.05   0.27     0.00  -0.00   0.00    -0.02   0.01   0.05
   9   1    -0.14   0.00  -0.00     0.02  -0.04  -0.13    -0.07  -0.01  -0.04
  10   1     0.07   0.06  -0.03    -0.28  -0.05  -0.08    -0.02   0.02  -0.03
  11   1     0.05   0.07  -0.00     0.27  -0.01  -0.06     0.11   0.03  -0.02
  12   1     0.05   0.13  -0.04     0.21  -0.11   0.12     0.02  -0.04   0.04
  13   1     0.06   0.11  -0.04    -0.20   0.16   0.02    -0.08   0.02  -0.00
  14   1    -0.01  -0.09   0.03     0.20   0.28  -0.10     0.11   0.10  -0.06
  15   1    -0.05  -0.10   0.03    -0.25  -0.35   0.06    -0.05  -0.06   0.04
  16   1     0.29   0.21   0.08    -0.03   0.01  -0.00     0.05   0.01   0.01
  17   1    -0.33  -0.12   0.12    -0.02   0.01  -0.00     0.15  -0.08   0.02
  18   1    -0.05   0.21  -0.11     0.00   0.00  -0.00    -0.02   0.04  -0.01
  19   1    -0.02   0.04  -0.13     0.00  -0.01  -0.00    -0.01   0.03  -0.02
  20   1     0.15  -0.31  -0.04     0.00  -0.00   0.00     0.01  -0.05  -0.01
                     28                     29                     30
                        a                      a                      a 
 Frequencies --  1234.0293              1261.1900              1265.1332
 Red. masses --     2.3665                 2.3597                 3.9129
 Frc consts  --     0.0000                 0.0000                 0.0000
 IR Inten    --    10.6391                 0.1300                 0.6130
 Raman Activ --     0.0000                 0.0000                 0.0000
 Depolar     --     0.0000                 0.0000                 0.0000
 Atom AN      X      Y      Z        X      Y      Z        X      Y      Z
   1   6     0.00  -0.00   0.02     0.04  -0.12  -0.18    -0.07   0.10  -0.12
   2   6    -0.01   0.00  -0.02     0.01   0.07  -0.03    -0.04  -0.18   0.04
   3   6     0.04   0.00  -0.01     0.10   0.18   0.13    -0.25  -0.27   0.15
   4   6    -0.08   0.04   0.00     0.04  -0.01   0.03    -0.08   0.04  -0.00
   5   8     0.01   0.01  -0.00    -0.03  -0.05   0.00     0.06   0.11  -0.02
   6   8     0.04  -0.03   0.13    -0.01   0.03  -0.01     0.03  -0.05   0.02
   7   6    -0.01   0.01   0.08    -0.01   0.00   0.00     0.02  -0.01   0.00
   8   6     0.00  -0.03  -0.28     0.01   0.00  -0.01    -0.01  -0.01  -0.01
   9   1    -0.01  -0.00  -0.01    -0.08   0.02   0.05     0.17   0.01   0.03
  10   1    -0.01   0.00  -0.01     0.19   0.04   0.03     0.03  -0.03   0.05
  11   1     0.02   0.00  -0.00    -0.16   0.03   0.03    -0.10  -0.05  -0.00
  12   1     0.01   0.01   0.00    -0.48  -0.46   0.13     0.07   0.03  -0.01
  13   1    -0.03  -0.02   0.00     0.29   0.30  -0.08     0.38   0.36  -0.09
  14   1     0.02   0.01  -0.00    -0.05   0.06  -0.04     0.39   0.38  -0.11
  15   1    -0.03  -0.01   0.01    -0.23  -0.32   0.07     0.26   0.18  -0.05
  16   1     0.56  -0.26   0.03     0.03  -0.01   0.00    -0.02   0.01   0.00
  17   1    -0.54   0.25  -0.02     0.00  -0.00   0.00    -0.05   0.02  -0.00
  18   1     0.08  -0.23   0.08    -0.00  -0.01   0.01     0.01  -0.01  -0.00
  19   1    -0.00   0.01   0.09     0.00  -0.01   0.01    -0.01   0.02   0.00
  20   1    -0.09   0.24   0.03    -0.00   0.01  -0.00     0.00   0.01   0.01
                     31                     32                     33
                        a                      a                      a 
 Frequencies --  1320.1926              1348.2175              1395.7978
 Red. masses --     3.9345                 5.2611                 3.3538
 Frc consts  --     0.0000                 0.0000                 0.0000
 IR Inten    --     4.8144                 2.6161                 7.8290
 Raman Activ --     0.0000                 0.0000                 0.0000
 Depolar     --     0.0000                 0.0000                 0.0000
 Atom AN      X      Y      Z        X      Y      Z        X      Y      Z
   1   6    -0.01   0.01  -0.00     0.03  -0.11   0.04    -0.01   0.00  -0.00
   2   6    -0.00  -0.01   0.00     0.36   0.31  -0.09    -0.00  -0.01   0.00
   3   6    -0.06  -0.03   0.01    -0.29  -0.19   0.05    -0.01  -0.00   0.00
   4   6     0.13  -0.03   0.01    -0.02  -0.00  -0.00     0.04  -0.01   0.00
   5   8    -0.01   0.01  -0.00     0.04   0.07  -0.01    -0.01  -0.00   0.00
   6   8    -0.13  -0.08   0.01     0.02  -0.03   0.01    -0.05  -0.02   0.00
   7   6    -0.35   0.27  -0.04    -0.00   0.00  -0.00    -0.09   0.06  -0.01
   8   6     0.08   0.10  -0.01     0.00  -0.01   0.00     0.26  -0.36   0.04
   9   1     0.02   0.00   0.00    -0.17   0.00  -0.01     0.01  -0.00   0.00
  10   1    -0.00  -0.00   0.00    -0.05   0.01  -0.06     0.01   0.00   0.00
  11   1    -0.00  -0.01  -0.00    -0.05   0.05   0.04     0.01   0.00  -0.00
  12   1     0.02   0.02  -0.01    -0.34  -0.29   0.05     0.00   0.01  -0.01
  13   1     0.02   0.02  -0.00    -0.34  -0.27   0.10     0.00   0.01   0.00
  14   1     0.02   0.02  -0.00     0.25   0.17   0.02    -0.00  -0.00   0.00
  15   1     0.02   0.01  -0.01     0.24   0.12  -0.08     0.00  -0.00  -0.00
  16   1     0.53  -0.24  -0.00     0.01   0.00   0.00     0.14   0.00   0.03
  17   1     0.52  -0.24   0.06     0.00   0.00  -0.00     0.14  -0.00  -0.03
  18   1     0.02  -0.07   0.07    -0.00   0.00  -0.00    -0.35   0.30  -0.14
  19   1     0.06  -0.21   0.02    -0.00   0.01  -0.00    -0.05   0.52  -0.06
  20   1     0.03  -0.09  -0.05    -0.00   0.00   0.00    -0.37   0.32   0.07
                     34                     35                     36
                        a                      a                      a 
 Frequencies --  1412.1330              1429.9860              1463.4878
 Red. masses --     3.1814                 1.9913                 1.5189
 Frc consts  --     0.0000                 0.0000                 0.0000
 IR Inten    --     1.7459                 8.2130                 5.4027
 Raman Activ --     0.0000                 0.0000                 0.0000
 Depolar     --     0.0000                 0.0000                 0.0000
 Atom AN      X      Y      Z        X      Y      Z        X      Y      Z
   1   6     0.42   0.11  -0.01     0.02   0.01  -0.00    -0.00  -0.00  -0.00
   2   6    -0.06  -0.07   0.02    -0.07  -0.04   0.01     0.00  -0.00   0.00
   3   6     0.03  -0.01   0.00    -0.13   0.23  -0.09     0.00   0.00   0.00
   4   6    -0.00  -0.00  -0.00    -0.05   0.05  -0.01    -0.00   0.00   0.00
   5   8     0.00   0.00  -0.00    -0.01  -0.02   0.00     0.00  -0.00   0.00
   6   8    -0.00   0.00  -0.00     0.02  -0.02   0.01     0.00   0.00  -0.00
   7   6     0.00  -0.00   0.00    -0.00   0.00  -0.00     0.01   0.02   0.05
   8   6     0.00  -0.00   0.00    -0.00   0.00   0.00    -0.00   0.03   0.21
   9   1    -0.49   0.10  -0.06     0.01   0.00   0.00     0.00   0.00   0.00
  10   1    -0.44  -0.25  -0.09    -0.01   0.00  -0.01     0.00  -0.00   0.00
  11   1    -0.45  -0.16   0.18    -0.02   0.01   0.01     0.00  -0.00  -0.00
  12   1     0.03   0.08  -0.05     0.04   0.04   0.00    -0.01   0.00  -0.01
  13   1     0.03   0.10  -0.00     0.04   0.03  -0.02    -0.01   0.01   0.00
  14   1    -0.01   0.00  -0.02     0.33  -0.25   0.54    -0.00   0.00  -0.00
  15   1    -0.01   0.01   0.01     0.37  -0.50  -0.24    -0.00   0.00   0.00
  16   1     0.00   0.00   0.00    -0.00  -0.01  -0.00    -0.01  -0.05  -0.02
  17   1     0.00   0.00  -0.00    -0.00  -0.00   0.00    -0.02  -0.00   0.02
  18   1    -0.00   0.00  -0.00    -0.00  -0.00   0.00     0.46  -0.09  -0.06
  19   1    -0.00   0.01  -0.00    -0.00   0.00  -0.00     0.01  -0.07  -0.71
  20   1    -0.01   0.00   0.00    -0.00  -0.00  -0.00    -0.45   0.06  -0.09
                     37                     38                     39
                        a                      a                      a 
 Frequencies --  1465.9067              1480.8081              1491.3302
 Red. masses --     1.8803                 1.5783                 1.8324
 Frc consts  --     0.0000                 0.0000                 0.0000
 IR Inten    --     0.6280                 4.5327                 0.1735
 Raman Activ --     0.0000                 0.0000                 0.0000
 Depolar     --     0.0000                 0.0000                 0.0000
 Atom AN      X      Y      Z        X      Y      Z        X      Y      Z
   1   6    -0.00  -0.00  -0.00    -0.00   0.00  -0.00     0.04  -0.03   0.01
   2   6     0.01  -0.01   0.00     0.02  -0.02   0.01    -0.18   0.18  -0.07
   3   6     0.00   0.00  -0.00     0.00  -0.00   0.00    -0.03  -0.01   0.00
   4   6     0.00  -0.02   0.00    -0.00   0.00  -0.00     0.02  -0.01   0.00
   5   8    -0.00   0.01  -0.00    -0.00  -0.00   0.00     0.00   0.01  -0.00
   6   8    -0.06  -0.02   0.00    -0.00   0.00   0.00    -0.01   0.00  -0.00
   7   6    -0.07  -0.25   0.02     0.06   0.01  -0.00    -0.00  -0.01   0.00
   8   6    -0.03   0.04   0.01     0.16   0.15  -0.02     0.02   0.02   0.00
   9   1     0.00  -0.00   0.00    -0.00   0.00  -0.00     0.04  -0.00   0.00
  10   1     0.00   0.00   0.00     0.01  -0.01   0.01    -0.09   0.06  -0.13
  11   1     0.00   0.00  -0.00     0.01  -0.01  -0.01    -0.10   0.12   0.06
  12   1    -0.01   0.01  -0.02    -0.04   0.03  -0.06     0.34  -0.24   0.51
  13   1    -0.02   0.02   0.01    -0.04   0.05   0.03     0.37  -0.48  -0.24
  14   1     0.00  -0.00   0.01    -0.00   0.00  -0.00     0.01   0.02  -0.02
  15   1     0.00  -0.01  -0.00    -0.00   0.00   0.00     0.00   0.03  -0.00
  16   1     0.26   0.52   0.35    -0.04   0.01  -0.01     0.01   0.02   0.02
  17   1     0.26   0.44  -0.44    -0.04   0.01   0.01     0.01   0.02  -0.02
  18   1     0.05  -0.04   0.02    -0.33  -0.38   0.42    -0.03  -0.04   0.05
  19   1     0.00  -0.04  -0.04    -0.02   0.27  -0.02    -0.00   0.03  -0.02
  20   1     0.00  -0.04  -0.02    -0.31  -0.46  -0.35    -0.05  -0.05  -0.04
                     40                     41                     42
                        a                      a                      a 
 Frequencies --  1497.1467              1499.1163              1678.4467
 Red. masses --     1.5239                 1.6468                13.3613
 Frc consts  --     0.0000                 0.0000                 0.0000
 IR Inten    --     2.5588                 1.0740               665.5985
 Raman Activ --     0.0000                 0.0000                 0.0000
 Depolar     --     0.0000                 0.0000                 0.0000
 Atom AN      X      Y      Z        X      Y      Z        X      Y      Z
   1   6     0.01  -0.08  -0.20    -0.05   0.19  -0.08     0.00   0.00  -0.00
   2   6     0.00  -0.02  -0.04    -0.03   0.11  -0.04    -0.00  -0.00  -0.00
   3   6     0.00   0.00   0.00    -0.02  -0.01   0.00    -0.07  -0.06   0.01
   4   6    -0.00   0.00   0.00     0.00  -0.00   0.00     0.31   0.72  -0.15
   5   8     0.00   0.00  -0.00     0.00   0.00  -0.00    -0.21  -0.54   0.11
   6   8     0.00  -0.00  -0.00    -0.00   0.00  -0.00     0.01  -0.06   0.01
   7   6     0.00   0.00  -0.00    -0.00  -0.00   0.00     0.01   0.01  -0.00
   8   6    -0.00  -0.00  -0.00     0.00   0.00   0.00    -0.01  -0.01   0.00
   9   1    -0.02   0.22   0.68    -0.32   0.08   0.01    -0.00   0.00   0.00
  10   1    -0.23  -0.35   0.16     0.22  -0.33   0.50    -0.00  -0.00   0.00
  11   1     0.19   0.45  -0.03     0.28  -0.51  -0.19    -0.00  -0.00   0.00
  12   1     0.02   0.01  -0.01     0.05  -0.07   0.13    -0.00  -0.00   0.00
  13   1    -0.03   0.01   0.00     0.06  -0.13  -0.05    -0.00  -0.00   0.00
  14   1     0.01   0.01  -0.01     0.02  -0.00   0.01     0.02   0.04  -0.02
  15   1    -0.01  -0.01   0.00     0.02  -0.01  -0.01     0.01   0.04   0.00
  16   1    -0.00  -0.00  -0.00     0.00   0.00   0.00    -0.01   0.02   0.00
  17   1    -0.00  -0.00   0.00     0.00   0.00  -0.00    -0.01   0.02  -0.01
  18   1    -0.00   0.00  -0.00    -0.00  -0.00   0.00     0.01  -0.00  -0.00
  19   1     0.00  -0.00   0.00    -0.00   0.00  -0.00    -0.00   0.00  -0.00
  20   1     0.00   0.00   0.00    -0.00  -0.00  -0.00     0.01  -0.01   0.00
                     43                     44                     45
                        a                      a                      a 
 Frequencies --  2926.5229              2948.4047              2957.3738
 Red. masses --     1.9850                 1.4588                 1.9201
 Frc consts  --     0.0000                 0.0000                 0.0000
 IR Inten    --    38.8843                38.5060                 5.0009
 Raman Activ --     0.0000                 0.0000                 0.0000
 Depolar     --     0.0000                 0.0000                 0.0000
 Atom AN      X      Y      Z        X      Y      Z        X      Y      Z
   1   6    -0.00   0.00   0.00     0.00  -0.00   0.00     0.00  -0.00  -0.00
   2   6     0.00  -0.00  -0.00     0.00  -0.00   0.00     0.00   0.01   0.04
   3   6     0.00   0.00   0.00    -0.00  -0.00  -0.00    -0.02  -0.05  -0.28
   4   6     0.00  -0.00   0.00    -0.00   0.01  -0.00    -0.00  -0.00  -0.01
   5   8     0.00  -0.00  -0.00    -0.00  -0.00   0.00     0.00   0.00   0.00
   6   8    -0.00  -0.00  -0.01     0.02   0.00  -0.00    -0.00  -0.00  -0.00
   7   6     0.00  -0.03  -0.30     0.07   0.19  -0.02    -0.00  -0.00  -0.00
   8   6     0.00   0.00   0.01    -0.01  -0.01   0.00     0.00   0.00   0.00
   9   1     0.00   0.00  -0.00    -0.00  -0.00   0.00     0.00   0.00  -0.00
  10   1     0.00  -0.00  -0.00    -0.00   0.00   0.00    -0.01   0.01   0.01
  11   1    -0.00   0.00  -0.00    -0.00   0.00  -0.00     0.00  -0.00   0.00
  12   1    -0.00   0.00   0.00    -0.00   0.00   0.00     0.05  -0.06  -0.06
  13   1    -0.00  -0.00   0.00    -0.00   0.00  -0.00    -0.05   0.02  -0.12
  14   1     0.00  -0.00  -0.00    -0.00   0.00   0.00    -0.23   0.31   0.26
  15   1    -0.00   0.00  -0.01     0.00  -0.00   0.01     0.30  -0.13   0.75
  16   1    -0.16  -0.31   0.56    -0.16  -0.29   0.62     0.00   0.00  -0.00
  17   1     0.16   0.44   0.51    -0.15  -0.39  -0.53     0.00   0.01   0.01
  18   1    -0.01  -0.03  -0.03     0.01   0.02   0.02    -0.00  -0.00  -0.00
  19   1    -0.00   0.00   0.00     0.02   0.00   0.00    -0.00  -0.00   0.00
  20   1     0.01   0.02  -0.03     0.01   0.01  -0.03     0.00  -0.00   0.00
                     46                     47                     48
                        a                      a                      a 
 Frequencies --  2978.4664              2988.5353              3004.1191
 Red. masses --     1.5308                 1.9720                 1.5099
 Frc consts  --     0.0000                 0.0000                 0.0000
 IR Inten    --    11.1668                53.6065                41.1196
 Raman Activ --     0.0000                 0.0000                 0.0000
 Depolar     --     0.0000                 0.0000                 0.0000
 Atom AN      X      Y      Z        X      Y      Z        X      Y      Z
   1   6     0.00  -0.01   0.00     0.00  -0.01  -0.03     0.01  -0.03   0.00
   2   6     0.01  -0.02  -0.02     0.01   0.06   0.28    -0.14   0.15  -0.00
   3   6    -0.14   0.16   0.01    -0.01   0.02   0.06    -0.02   0.02   0.00
   4   6    -0.01   0.00   0.00    -0.00   0.00   0.00    -0.00   0.00  -0.00
   5   8     0.00  -0.00  -0.00    -0.00  -0.00   0.00     0.00  -0.00   0.00
   6   8     0.00  -0.00   0.00    -0.00  -0.00  -0.00     0.00  -0.00   0.00
   7   6     0.00   0.00   0.00    -0.00  -0.00   0.00     0.00   0.00  -0.00
   8   6     0.00   0.00  -0.00     0.00   0.00   0.00    -0.00  -0.00   0.00
   9   1     0.00   0.01  -0.00    -0.00  -0.01  -0.00     0.01   0.08  -0.03
  10   1    -0.00   0.01   0.01    -0.04   0.05   0.05    -0.04   0.05   0.06
  11   1    -0.01   0.00  -0.02     0.04  -0.01   0.08    -0.01  -0.00  -0.03
  12   1    -0.06   0.09   0.09     0.25  -0.34  -0.30     0.34  -0.49  -0.51
  13   1     0.00  -0.00   0.00    -0.29   0.12  -0.70     0.19  -0.05   0.52
  14   1     0.36  -0.53  -0.52     0.07  -0.10  -0.09     0.04  -0.06  -0.06
  15   1     0.16  -0.05   0.47    -0.04   0.01  -0.09     0.02  -0.00   0.05
  16   1     0.00   0.00  -0.00     0.00   0.00  -0.00    -0.00  -0.00   0.00
  17   1     0.00   0.00  -0.00     0.00   0.00   0.00    -0.00  -0.00  -0.00
  18   1     0.00  -0.00  -0.00    -0.00  -0.00  -0.00     0.00   0.00   0.00
  19   1    -0.00  -0.00  -0.00    -0.00  -0.00   0.00     0.00   0.00   0.00
  20   1    -0.00  -0.00   0.00    -0.00  -0.00   0.00     0.00   0.00  -0.00
                     49                     50                     51
                        a                      a                      a 
 Frequencies --  3033.5449              3038.2233              3049.0409
 Red. masses --     1.9610                 1.7553                 1.4388
 Frc consts  --     0.0000                 0.0000                 0.0000
 IR Inten    --    79.8058                67.7140                41.1276
 Raman Activ --     0.0000                 0.0000                 0.0000
 Depolar     --     0.0000                 0.0000                 0.0000
 Atom AN      X      Y      Z        X      Y      Z        X      Y      Z
   1   6    -0.02   0.10   0.27     0.12  -0.21   0.09    -0.10  -0.17   0.05
   2   6    -0.01   0.02   0.04     0.02  -0.02   0.01     0.00  -0.01   0.00
   3   6    -0.00   0.00   0.00     0.00  -0.01   0.00    -0.00  -0.00  -0.00
   4   6    -0.00   0.00   0.00     0.00  -0.00   0.00     0.00   0.00   0.00
   5   8     0.00  -0.00   0.00    -0.00   0.00  -0.00    -0.00  -0.00   0.00
   6   8     0.00  -0.00  -0.00    -0.00   0.00  -0.00    -0.00   0.00  -0.00
   7   6     0.00   0.00   0.00    -0.00  -0.00   0.00     0.00   0.00   0.00
   8   6    -0.00  -0.00   0.00     0.00   0.00   0.00     0.00   0.00   0.00
   9   1    -0.00   0.01   0.04     0.08   0.34  -0.10     0.14   0.84  -0.27
  10   1     0.32  -0.44  -0.41    -0.27   0.36   0.41     0.12  -0.20  -0.17
  11   1    -0.25   0.10  -0.59    -0.23   0.05  -0.60     0.09  -0.06   0.27
  12   1     0.04  -0.07  -0.06    -0.03   0.05   0.05    -0.01   0.02   0.02
  13   1    -0.03   0.01  -0.07    -0.02   0.01  -0.07    -0.01   0.00  -0.03
  14   1     0.00  -0.01  -0.01    -0.01   0.02   0.02    -0.00   0.00   0.00
  15   1    -0.00   0.00  -0.01    -0.01   0.00  -0.02    -0.00   0.00  -0.00
  16   1     0.00   0.00  -0.00     0.00   0.00  -0.00    -0.00  -0.00   0.00
  17   1    -0.00  -0.00  -0.00     0.00   0.00   0.00    -0.00  -0.00  -0.00
  18   1    -0.00  -0.00  -0.00    -0.00  -0.00  -0.00    -0.00  -0.00  -0.01
  19   1     0.00   0.00   0.00    -0.00  -0.00   0.00    -0.00   0.00   0.00
  20   1     0.00   0.00  -0.00    -0.00  -0.00   0.00    -0.00  -0.00   0.01
                     52                     53                     54
                        a                      a                      a 
 Frequencies --  3056.4114              3059.5926              3065.1647
 Red. masses --     1.9300                 1.4180                 1.8288
 Frc consts  --     0.0000                 0.0000                 0.0000
 IR Inten    --    30.0675                19.8172                23.3405
 Raman Activ --     0.0000                 0.0000                 0.0000
 Depolar     --     0.0000                 0.0000                 0.0000
 Atom AN      X      Y      Z        X      Y      Z        X      Y      Z
   1   6    -0.00  -0.00   0.00     0.00   0.00  -0.00     0.00  -0.00   0.00
   2   6     0.00  -0.00   0.00    -0.00   0.00  -0.00     0.00  -0.00   0.00
   3   6     0.00  -0.00  -0.00    -0.00   0.00   0.00    -0.00   0.00  -0.00
   4   6    -0.00  -0.00  -0.00     0.00  -0.00   0.00     0.00  -0.00   0.00
   5   8    -0.00   0.00   0.00     0.00  -0.00   0.00     0.00   0.00  -0.00
   6   8    -0.00  -0.00   0.00     0.00   0.00  -0.00     0.00   0.00  -0.00
   7   6    -0.00  -0.01  -0.02     0.00   0.01  -0.01    -0.01  -0.01   0.00
   8   6    -0.02  -0.08  -0.28     0.05   0.16  -0.09    -0.26  -0.07   0.01
   9   1     0.00   0.00  -0.00    -0.00  -0.01   0.00     0.00   0.00  -0.00
  10   1     0.00  -0.00  -0.00    -0.00   0.00   0.00    -0.00   0.00   0.00
  11   1    -0.00  -0.00  -0.00    -0.00   0.00  -0.00    -0.00  -0.00  -0.00
  12   1    -0.00   0.00   0.00     0.00  -0.00  -0.00    -0.00   0.00   0.00
  13   1    -0.00   0.00  -0.00     0.00  -0.00   0.00    -0.00   0.00  -0.00
  14   1    -0.00   0.00   0.00     0.00  -0.00  -0.00    -0.00   0.00   0.00
  15   1     0.00  -0.00   0.00     0.00   0.00  -0.00     0.00  -0.00   0.00
  16   1    -0.01  -0.01   0.02    -0.01  -0.01   0.03     0.00   0.01  -0.02
  17   1     0.01   0.02   0.03    -0.00  -0.01  -0.01     0.00   0.01   0.01
  18   1     0.22   0.50   0.63    -0.11  -0.27  -0.38    -0.01   0.05   0.08
  19   1    -0.02  -0.01  -0.04     0.17   0.04  -0.01     0.94   0.15  -0.00
  20   1    -0.14  -0.22   0.39    -0.23  -0.35   0.72     0.00   0.05  -0.11
