17
 energy: -25.856358010054 gnorm: 0.036890798495 xtb: 6.7.1 (edcfbbe)
C            1.01072641861535       -1.59920232428106        0.30658365185785
O            0.51173914269801       -0.73460748930655       -0.73931577053613
C           -0.22589656282021        0.37793179860625       -0.29291910321350
O            0.49658881450021        1.20917350493955        0.57694633811121
C            1.66225764640737        1.77375416631662       -0.04706585504419
O           -1.35239760764838        0.02712441669395        0.46707319080053
C           -2.29671906160444       -0.75594932050904       -0.28247145753283
H            0.62677113325045       -2.60894696208150        0.13404110445605
H            0.69827490929396       -1.26092643047565        1.29710540166797
H            2.10376874157083       -1.61326948623718        0.25888110799151
H           -0.51040154714801        0.90774020217490       -1.21691814741155
H            2.40738869869087        1.00212661196090       -0.26803956640506
H            2.07823982574007        2.48504263733260        0.66790183806607
H            1.39271390250845        2.29970142261799       -0.97126592535368
H           -2.58031411988603       -0.24114963596497       -1.20876746735546
H           -3.17522292658453       -0.86851974726462        0.35445329269599
H           -1.89103456110948       -1.74475618956711       -0.52155502539456
17
 energy: -25.858005423379 gnorm: 0.014238002200 xtb: 6.7.1 (edcfbbe)
C            1.01099688067094       -1.60119348483750        0.31011743732277
O            0.51436106085783       -0.74016458098837       -0.72691333173594
C           -0.21656723372503        0.36290381417780       -0.28300621490307
O            0.50653000815008        1.19765975471622        0.56531572099250
C            1.66005746671506        1.77638592516272       -0.04953139873747
O           -1.34463745866646        0.01418771777487        0.45550369135576
C           -2.29725930785341       -0.75289800226109       -0.28460899507076
H            0.62233476526898       -2.60454595538518        0.13031802563306
H            0.68600379459941       -1.24291436084156        1.28722402403997
H            2.10084895866994       -1.60742767778186        0.25724289843927
H           -0.49657919438451        0.88663761037438       -1.21534426519853
H            2.39959008660702        1.00679857964790       -0.28158231298005
H            2.06014437606981        2.47609776051539        0.68112804187278
H            1.37786835279398        2.30316279971479       -0.96533221168189
H           -2.57739278591159       -0.22714586120039       -1.20164976944449
H           -3.15997105245103       -0.85713114503383        0.36989750888655
H           -1.88984587093653       -1.73514571879919       -0.53411124139026
17
 energy: -25.858333771674 gnorm: 0.003342726334 xtb: 6.7.1 (edcfbbe)
C            1.01268773542905       -1.60587837715743        0.31506804746336
O            0.51844366165522       -0.74715935326448       -0.72104370402470
C           -0.20876366490580        0.35100244319435       -0.27965684682968
O            0.51116847049739        1.18426889487318        0.55926939208378
C            1.65309626983587        1.77918716866786       -0.05271342001404
O           -1.33340760404567        0.00517841584357        0.44999049909562
C           -2.29572201399255       -0.74552643231080       -0.28690030520907
H            0.62491413933063       -2.60753570057368        0.13536280384348
H            0.68194192266612       -1.24078143869980        1.28680996122308
H            2.10090225612865       -1.61118695179897        0.26489203272413
H           -0.48676167888152        0.87249092394893       -1.22000264516597
H            2.39504357385894        1.01894036636527       -0.30442532178164
H            2.04585615655980        2.46550242126850        0.69154307044679
H            1.36041607927040        2.31778547717602       -0.95720331454028
H           -2.58346183576686       -0.20636905161793       -1.19263426679324
H           -3.14432415906652       -0.84979161768087        0.38260344733317
H           -1.89554646209869       -1.72486001327860       -0.55629182245458
17
 energy: -25.858426072024 gnorm: 0.002518448005 xtb: 6.7.1 (edcfbbe)
C            1.01567985393133       -1.61232189421402        0.32004450595947
O            0.52387949645780       -0.75568264365444       -0.71940619081864
C           -0.20305505076744        0.34261350857819       -0.27987111179681
O            0.51405842207453        1.17595627760016        0.55710800656647
C            1.64814604102573        1.78429741554391       -0.05488278382440
O           -1.32651489917719       -0.00023975573576        0.44814220804024
C           -2.29738248648383       -0.73896262049952       -0.28848990872404
H            0.62910803827166       -2.61454733402690        0.14181550697362
H            0.68183498297594       -1.24564149686465        1.29021347158931
H            2.10399999491041       -1.61730769393889        0.27403971727875
H           -0.47984522778885        0.86273037996400       -1.22460701622394
H            2.39209273759794        1.03153716229372       -0.32520909287666
H            2.04284309193422        2.46042972753557        0.69705514041279
H            1.34601363398456        2.33521413852361       -0.94944321827658
H           -2.59347472761225       -0.18707645828643       -1.18443653875937
H           -3.13813265885191       -0.84983867547059        0.38918133806716
H           -1.90276839600820       -1.71589286239284       -0.57658642618717
17
 energy: -25.858515184197 gnorm: 0.003511550984 xtb: 6.7.1 (edcfbbe)
C            1.01891712647707       -1.61940632137200        0.32649274410776
O            0.53030033141834       -0.76580396538804       -0.71832503694989
C           -0.19757225639670        0.33482338862822       -0.28213813990410
O            0.51709826811404        1.16864770641692        0.55472566786331
C            1.64375130310651        1.79050093632357       -0.05733077338269
O           -1.32056723744037       -0.00508622590147        0.44603880517714
C           -2.30023109803706       -0.73233659009752       -0.29030692734117
H            0.63428524171331       -2.62295748968230        0.14992504521456
H            0.68076153112598       -1.25144740052155        1.29494511617150
H            2.10779200428821       -1.62328742199743        0.28623914207966
H           -0.47248764459343        0.85253904217336       -1.23094949765633
H            2.38704094811960        1.04465638425142       -0.35066507301719
H            2.04605394049938        2.45257573965656        0.70314442570736
H            1.33157845043807        2.35843667679882       -0.93868035674294
H           -2.60914627739283       -0.16546217983227       -1.17344273814929
H           -3.13197879731998       -0.85664043968402        0.39622029683440
H           -1.90911298764569       -1.70448466481714       -0.60122509261188
17
 energy: -25.858603904172 gnorm: 0.004262077225 xtb: 6.7.1 (edcfbbe)
C            1.02249061225662       -1.62741121627097        0.33516355674313
O            0.53743337840308       -0.77755214501180       -0.71544496229828
C           -0.19184647591639        0.32671189225203       -0.28437592268053
O            0.52120234526863        1.16176877499936        0.55247063894268
C            1.63922102438890        1.79744487290019       -0.06123819417530
O           -1.31542778640356       -0.01039517552430        0.44402266231054
C           -2.30354907773999       -0.72507016710532       -0.29337929508737
H            0.64103486768270       -2.63256898173198        0.15924364876098
H            0.67809522172415       -1.25821367521200        1.30107679881159
H            2.11191149384757       -1.62882212384144        0.30170003998859
H           -0.46399736210343        0.84063113251957       -1.23650008239744
H            2.37818920088898        1.05833858947192       -0.38364941490659
H            2.05446447759399        2.44085824395273        0.70882750979959
H            1.31464106406424        2.38739060051029       -0.92447363039501
H           -2.62937629414395       -0.13934735537758       -1.15897078753354
H           -3.12435362552424       -0.86958540148181        0.40295496177185
H           -1.91365021781287       -1.68891069009374       -0.63275992025468
17
 energy: -25.858690340905 gnorm: 0.004626524768 xtb: 6.7.1 (edcfbbe)
C            1.02654360319767       -1.63660785923833        0.34631540781583
O            0.54500328143482       -0.79078529394969       -0.70962819542759
C           -0.18554307277485        0.31760223493828       -0.28497476144724
O            0.52694107031318        1.15448276887335        0.55129525825826
C            1.63376832621900        1.80492809001365       -0.06724798830103
O           -1.31066323209571       -0.01700478598008        0.44308365924719
C           -2.30679839817324       -0.71644242982301       -0.29819562859231
H            0.65013063020410       -2.64362064836938        0.16931241897096
H            0.67387426962099       -1.26719231745958        1.30909168553842
H            2.11636433918303       -1.63371837767168        0.32071197613831
H           -0.45439296833185        0.82687015153354       -1.23933512544897
H            2.36456805605092        1.07333551069340       -0.42554979928134
H            2.06721710259258        2.42555188633534        0.71216764856146
H            1.29301168446254        2.42064670489312       -0.90684326300700
H           -2.65190315520987       -0.10735813987152       -1.14077190061150
H           -3.11501033742843       -0.88751784140393        0.40758213459954
H           -1.91662835279043       -1.66790247855832       -0.67234591961280
17
 energy: -25.858768827531 gnorm: 0.004597160178 xtb: 6.7.1 (edcfbbe)
C            1.03150792519563       -1.64764510036306        0.35971015219822
O            0.55296820391916       -0.80559631105613       -0.70043618672897
C           -0.17823154871489        0.30670874228678       -0.28264439240992
O            0.53484163802451        1.14588556478268        0.55221716454527
C            1.62661294058304        1.81309727818823       -0.07563147557951
O           -1.30574001731494       -0.02575624298520        0.44431030960088
C           -2.30981796405989       -0.70558908960709       -0.30485935201677
H            0.66276974426395       -2.65690490911642        0.17911803223501
H            0.66827959339041       -1.28038558602948        1.31919868653994
H            2.12158226750243       -1.63791136413209        0.34337007383400
H           -0.44382014787717        0.81132841633369       -1.23803428022041
H            2.34577320017586        1.09112292577808       -0.47565564412043
H            2.08291024787392        2.40859725778718        0.71062103482290
H            1.26483261787579        2.45564530191209       -0.88623990172434
H           -2.67361825978343       -0.06878913599308       -1.11894530154038
H           -3.10494365306029       -0.90801873022402        0.40773456436974
H           -1.91942394151966       -1.64052184260696       -0.71916587640501
17
 energy: -25.858827104142 gnorm: 0.002556846112 xtb: 6.7.1 (edcfbbe)
C            1.03528164382479       -1.65558430299000        0.36883746677047
O            0.55747877779173       -0.81507676428643       -0.69214701983917
C           -0.17316406411005        0.29877501362925       -0.27795745072298
O            0.54168853358733        1.13946687813412        0.55527934550131
C            1.62078219381236        1.81804047030683       -0.08264398745434
O           -1.30269591757176       -0.03318397279102        0.44772515453387
C           -2.31110578987863       -0.69715562684679       -0.31024640461663
H            0.67440197779051       -2.66667215755347        0.18298279078182
H            0.66327721368212       -1.29300427440086        1.32657302861968
H            2.12532703776286       -1.63855720284892        0.35954560950705
H           -0.43750961997031        0.80151668848692       -1.23255443629449
H            2.33000904285229        1.10393670838636       -0.50939094091399
H            2.09363174198664        2.39924180741290        0.70310083102396
H            1.24248757647193        2.47393466522340       -0.87250718176715
H           -2.68244537598710       -0.04142479039278       -1.10346189620933
H           -3.09967516349088       -0.92026410678653        0.40185715178491
H           -1.92128696207941       -1.61872185772777       -0.75032445330481
17
 energy: -25.858855057587 gnorm: 0.002110459707 xtb: 6.7.1 (edcfbbe)
C            1.03790353520027       -1.66122430192806        0.37791691611836
O            0.56088661163768       -0.82323428431956       -0.68472298130001
C           -0.16824898917947        0.29083933746772       -0.27281814401236
O            0.54966764762143        1.13100744814530        0.55874683944479
C            1.61550151311833        1.82083489801331       -0.09007867474948
O           -1.29854640383981       -0.04233219308517        0.45165027666546
C           -2.31111972955440       -0.68971051205963       -0.31580727072575
H            0.68666393746178       -2.67452237218311        0.18666590443962
H            0.65475715248863       -1.30334907147712        1.33326785888090
H            2.12783050528919       -1.63499857550133        0.37783828894512
H           -0.43264682422818        0.79368532123243       -1.22653202201266
H            2.31396934155748        1.11357158809277       -0.54534060107937
H            2.10499148515864        2.38763816072686        0.69638933933176
H            1.21888384338128        2.49122541205284       -0.85872941747991
H           -2.68996588670692       -0.01315240611776       -1.08780843840483
H           -3.09330253014820       -0.93333587173458        0.39696496131361
H           -1.92074236278333       -1.59767540236971       -0.78293522797503
17
 energy: -25.858863706645 gnorm: 0.001935836013 xtb: 6.7.1 (edcfbbe)
C            1.03881808006390       -1.66242962997631        0.38026488022019
O            0.56059154972568       -0.82508095215143       -0.68200510131085
C           -0.16672171673325        0.28780202859719       -0.26878984010303
O            0.55349701254236        1.12729673564354        0.56163538677477
C            1.61334630688309        1.82011779473237       -0.09328377755961
O           -1.29728487190136       -0.04644949559333        0.45503180401892
C           -2.31020947128662       -0.68673091979853       -0.31769636080494
H            0.69578065769310       -2.67738502600995        0.18401831971431
H            0.64801210724109       -1.31009816935682        1.33466638122547
H            2.12842214915504       -1.62821409052453        0.38636870786171
H           -0.43290117274313        0.79317402975158       -1.22104320374667
H            2.30636270349315        1.11556629811092       -0.55554610503045
H            2.10889042718289        2.38555812078241        0.68887690535465
H            1.20977090353927        2.49063565042963       -0.85492338480267
H           -2.68678079184214       -0.00416367549162       -1.08241457838541
H           -3.09313039898687       -0.93557310218303        0.39081269944569
H           -1.91998062755178       -1.58875842200688       -0.79130512547187
17
 energy: -25.858869486015 gnorm: 0.001061101436 xtb: 6.7.1 (edcfbbe)
C            1.04028244433377       -1.66505051017301        0.38490737397490
O            0.56234742788500       -0.83014480768134       -0.67978899745858
C           -0.16420326043931        0.28357753237483       -0.26744972810325
O            0.55698274650274        1.12287332360358        0.56225818276353
C            1.61104838456336        1.82124659281235       -0.09653429550012
O           -1.29510203663809       -0.05014073182223        0.45610867163231
C           -2.31070648646065       -0.68291866664996       -0.31965225440337
H            0.70551316579741       -2.68207309393648        0.18511525506346
H            0.64048418454348       -1.31635001597079        1.33710849166538
H            2.12974630838778       -1.62298674245284        0.39888962733278
H           -0.43057503260575        0.78934190336981       -1.21994849196933
H            2.29896091835873        1.11981747125116       -0.57476432874066
H            2.11576360545643        2.37806199715159        0.68743388618595
H            1.19943555884212        2.50156936491571       -0.84744545492044
H           -2.69352411166996        0.01008473768647       -1.07404282817582
H           -3.08977748928862       -0.94295449366915        0.39067585595643
H           -1.92019348109404       -1.57868668585450       -0.80820335790297
17
 energy: -25.858875500413 gnorm: 0.000575135758 xtb: 6.7.1 (edcfbbe)
C            1.04013879282591       -1.66395875280918        0.38356881056943
O            0.56114364736135       -0.82943938029876       -0.68133711984449
C           -0.16508301509152        0.28466906717748       -0.26848219221780
O            0.55595750234145        1.12372317166510        0.56136985602052
C            1.61203938975071        1.82010502582621       -0.09557657371665
O           -1.29582948174933       -0.04834693790485        0.45547583377494
C           -2.31092709095331       -0.68363260843329       -0.31829648645427
H            0.70963067983626       -2.68185577280514        0.18158000337503
H            0.63701074647265       -1.31816017630319        1.33525883067000
H            2.12931277234322       -1.61794019073467        0.40014184317452
H           -0.43164360994581        0.79073519271973       -1.22129408334825
H            2.30117585531992        1.11776051901499       -0.56972077966960
H            2.11473913062567        2.37886496308656        0.68803563243509
H            1.20363603531990        2.49873715364835       -0.84936838709216
H           -2.69282766325631        0.00580237753423       -1.07596651776725
H           -3.09110641234293       -0.94035417856957        0.39173548293179
H           -1.92088443238344       -1.58144229785879       -0.80245654544065
17
 energy: -25.858890904595 gnorm: 0.001413657686 xtb: 6.7.1 (edcfbbe)
C            1.04011202426864       -1.66207778510849        0.38227678101034
O            0.55742726577549       -0.82997073753583       -0.68354908412535
C           -0.16644308167288        0.28582042022943       -0.26982086385802
O            0.55560231446035        1.12384789987540        0.55964686626585
C            1.61407261487290        1.81734074686068       -0.09529001253395
O           -1.29680150424160       -0.04552428637367        0.45520927990171
C           -2.31171672957426       -0.68352820000031       -0.31562377103082
H            0.72967701167694       -2.68404938103397        0.16894047414414
H            0.61925754375739       -1.32959694093235        1.33112054010142
H            2.12821164239495       -1.59716621841688        0.41263599049417
H           -0.43345743220111        0.79225972394863       -1.22316649130412
H            2.30430810015228        1.11444987099712       -0.56450866952245
H            2.11491659930833        2.37833562841793        0.68698595496234
H            1.21018218118046        2.49366008614510       -0.85232376505437
H           -2.69385957363852        0.00224599555233       -1.07632272349122
H           -3.09245161760888       -0.93750837123963        0.39466925297604
H           -1.92255451243606       -1.58327127643029       -0.79621215153550
17
 energy: -25.858588976038 gnorm: 0.017739124097 xtb: 6.7.1 (edcfbbe)
C            1.04028970994403       -1.65246204099784        0.37735429584981
O            0.53362165890644       -0.83748905522296       -0.69452677496948
C           -0.17307750539555        0.29062844834551       -0.27678444063284
O            0.55820569446795        1.11996638118801        0.55015754043127
C            1.62598815183688        1.80095430677177       -0.09741509340248
O           -1.30342750530063       -0.02675893640808        0.45374249853644
C           -2.31761381583298       -0.67953609674581       -0.30003331798914
H            0.87342634455472       -2.70259653058713        0.08308759730970
H            0.49355887801048       -1.41607157866942        1.30572844555419
H            2.12006096032173       -1.45390487852913        0.50782827060646
H           -0.44096286481485        0.79955491292156       -1.23286974134139
H            2.31682784729340        1.09522971122166       -0.55622526316067
H            2.12536426396904        2.36417556929056        0.68256147953394
H            1.23857030968095        2.47671836562812       -0.86237648244224
H           -2.69863847954993       -0.01706486232455       -1.07692143526784
H           -3.10160989635566       -0.91776582374318        0.40875421458026
H           -1.93410090526159       -1.58831071718394       -0.75739418579577
17
 energy: -25.858940110978 gnorm: 0.004844246171 xtb: 6.7.1 (edcfbbe)
C            1.03970523293135       -1.65451614185664        0.37778108418084
O            0.54253891891543       -0.83231108334586       -0.69057153452480
C           -0.17161174095673        0.29053800382893       -0.27469257290040
O            0.55531392092263        1.12340859116126        0.55380795963029
C            1.62212163184992        1.80743838176935       -0.09491456426906
O           -1.30195741583856       -0.03302159455043        0.45340220276908
C           -2.31531403345997       -0.68336454896699       -0.30645270802125
H            0.80586842771139       -2.68947980779430        0.12326769235702
H            0.55568027306987       -1.37474302864657        1.31538509250167
H            2.12110807453481       -1.51998201084398        0.45953752480224
H           -0.43844843886270        0.79769360242418       -1.22959920452811
H            2.31485315379742        1.10082073159947       -0.55299401420725
H            2.11851705535239        2.37176306748440        0.68717717533586
H            1.23082877850034        2.48097898143552       -0.86076328553438
H           -2.69509266120611       -0.01445208623849       -1.08106250650453
H           -3.09885463689182       -0.92390020022945        0.40376538126467
H           -1.92877369389526       -1.59160368227524       -0.76840611495165
17
 energy: -25.858966757071 gnorm: 0.003678721260 xtb: 6.7.1 (edcfbbe)
C            1.04003290100063       -1.65439946601166        0.37852861466720
O            0.54214373173737       -0.83310341711726       -0.68931684161496
C           -0.17146782562343        0.28986861352155       -0.27387751938493
O            0.55596762683161        1.12304547145111        0.55399414733783
C            1.62208413849247        1.80705034507793       -0.09623665387732
O           -1.30199119567248       -0.03364758946798        0.45436045557821
C           -2.31587409946764       -0.68257666076294       -0.30702616354655
H            0.81408912739105       -2.68867735959725        0.12047434682051
H            0.55142478416620       -1.38128548798450        1.31446416835574
H            2.11899521927423       -1.51379361636650        0.46561587681941
H           -0.43831694681527        0.79684168603321       -1.22832353321933
H            2.31362278693954        1.10017233335464       -0.55400924968308
H            2.11915823645814        2.37150340308641        0.68475284241234
H            1.23002880230990        2.47924366100639       -0.86151897026848
H           -2.69742106474464       -0.00963420617884       -1.07905042302521
H           -3.09803533228418       -0.92566005282470        0.40503222570280
H           -1.92795804351909       -1.58968048226445       -0.77319571567394
17
 energy: -25.859022470831 gnorm: 0.002496830698 xtb: 6.7.1 (edcfbbe)
C            1.04016550201261       -1.65389659254706        0.37982664486802
O            0.53877491638166       -0.83569080679447       -0.68688192767915
C           -0.17138639036929        0.28898529461109       -0.27205115738141
O            0.55889223069318        1.12086759619232        0.55487195871280
C            1.62317781194110        1.80517534125036       -0.09971854780076
O           -1.30308658164858       -0.03223778044185        0.45638213964401
C           -2.31728749463425       -0.68043701067002       -0.30700349301141
H            0.84478767548590       -2.68789989147156        0.10646206881761
H            0.53064768610049       -1.40483525225446        1.30959604886373
H            2.11181177366278       -1.48817675594024        0.48793199522594
H           -0.43770539515808        0.79599564581189       -1.22550777516656
H            2.31178163967217        1.09753005788557       -0.56192230921677
H            2.12361542583265        2.36741149570153        0.68083106105426
H            1.22724005511797        2.47890319110108       -0.86170194898857
H           -2.69856425833569       -0.00502300614553       -1.07755490862685
H           -3.09867427077955       -0.92455088653181        0.40601688098780
H           -1.92770747950063       -1.58685346480167       -0.77490912290246
17
 energy: -25.859112579960 gnorm: 0.010336674190 xtb: 6.7.1 (edcfbbe)
C            1.04069318658739       -1.65231877771926        0.38492195120344
O            0.52426474441671       -0.84722765472344       -0.67960575214140
C           -0.17124900790829        0.28565233629449       -0.26674939145957
O            0.57064962005037        1.11212806552056        0.55594801905419
C            1.62810351373004        1.79742342876138       -0.11339291046427
O           -1.30694732722147       -0.02514325911845        0.46342117512385
C           -2.32314777776851       -0.67107439392782       -0.30447985229068
H            0.98076137088761       -2.69055257587969        0.04148170366108
H            0.43317746630593       -1.50678386421728        1.28851360490116
H            2.08468047758793       -1.37375201707241        0.58807224561629
H           -0.43577642433764        0.79283528422505       -1.21751706593739
H            2.30456223449414        1.08741736359659       -0.59374714019876
H            2.14326880546168        2.34954864731752        0.66597162266030
H            1.21892585625114        2.47888503865926       -0.86214369156048
H           -2.70482283850139        0.01210099647640       -1.06994755873729
H           -3.10147460572502       -0.91861619161877        0.41210107520488
H           -1.92918644783618       -1.57525525161900       -0.77818042723511
17
 energy: -25.859145607874 gnorm: 0.001389637977 xtb: 6.7.1 (edcfbbe)
C            1.04047599279974       -1.65458943887840        0.38348359620444
O            0.53134195523821       -0.84304987216529       -0.68254638514568
C           -0.17058664407170        0.28645129387618       -0.26884751495477
O            0.56653491228347        1.11484444249287        0.55603908471924
C            1.62502303558757        1.80227008839405       -0.10753289984144
O           -1.30482082057719       -0.02850313255693        0.46008399051737
C           -2.32012430539463       -0.67457435629017       -0.30595685138061
H            0.91750423587681       -2.68913076202719        0.07383065485701
H            0.48043732126355       -1.46085281553885        1.29788457610060
H            2.09558456365033       -1.43043283789727        0.54279242616265
H           -0.43546954045424        0.79367602217052       -1.22109140041132
H            2.30572131087043        1.09439386015039       -0.58674099715387
H            2.13679626114543        2.35524691873451        0.67448312943403
H            1.21812044575228        2.48540152820740       -0.85834030426770
H           -2.69935043595676        0.00353173053204       -1.07427656263210
H           -3.10107471996663       -0.91976929007098        0.40656675649366
H           -1.92963072157226       -1.57964620417773       -0.77516369130128
17
 energy: -25.859215010143 gnorm: 0.004353766750 xtb: 6.7.1 (edcfbbe)
C            1.04069627568366       -1.65513661101655        0.38584893104809
O            0.52631666609907       -0.84829889484516       -0.68045728264593
C           -0.17007713718650        0.28472962461995       -0.26735829044270
O            0.57149454680511        1.11091682103920        0.55585333632458
C            1.62643748952783        1.80020800792796       -0.11258280495202
O           -1.30555544566044       -0.02583164572657        0.46231772625882
C           -2.32216637419224       -0.67039138061568       -0.30430809868766
H            0.97164870507535       -2.68985371461613        0.04921133158268
H            0.44279033381487       -1.50288616107274        1.28834194850564
H            2.08320555428477       -1.38797077399363        0.58351684970813
H           -0.43412864698816        0.79189611978936       -1.21932871483832
H            2.30258119063482        1.09285978278455       -0.60159321168984
H            2.14486053073433        2.34784919793334        0.66975116792945
H            1.21389374682769        2.48876635736608       -0.85682668420078
H           -2.70083391615394        0.00947786156176       -1.07148841764944
H           -3.10267328679747       -0.91588573302662        0.40859220849490
H           -1.93200738603431       -1.57518168315397       -0.77482238734534
17
 energy: -25.859257493349 gnorm: 0.001458019317 xtb: 6.7.1 (edcfbbe)
C            1.04007503752366       -1.65650132123225        0.38594029894763
O            0.52933990969670       -0.84776730120563       -0.68110448791905
C           -0.16915351424356        0.28421776744044       -0.26776179344267
O            0.57190645332737        1.11105837466437        0.55509753014598
C            1.62594373442171        1.80086162960176       -0.11314542578842
O           -1.30396599722420       -0.02668966842752        0.46246094013588
C           -2.32188017539675       -0.66966940500060       -0.30299565094790