13
 energy: -20.959959888642 gnorm: 0.041185585620 xtb: 6.7.1 (edcfbbe)
C           -2.02953412625151       -0.82990292943684       -0.43229156838613
C           -1.53240468148337        0.24836057422983        0.52546441285620
C           -0.30422826241825        0.97562572545219        0.02577560795545
N            0.92876977683235        0.09675457294045       -0.03468858724861
O            1.82523015988038        0.44167563078610       -0.79854194870643
O            0.99164201569430       -0.88581552313959        0.69179451706460
H           -2.94192677275798       -1.29360713247405       -0.04648207255328
H           -2.25626699150771       -0.40295017556238       -1.41481224452972
H           -1.28683114576883       -1.62252596818917       -0.56872214124440
H           -1.34007007739698       -0.16530526783731        1.52004023822518
H           -2.30076867010251        1.02004864674482        0.64959088379962
H           -0.42058014099366        1.37225841739258       -0.98512043335528
H           -0.00899664296599        1.79538676857481        0.69011624611328
13
 energy: -20.961806577525 gnorm: 0.019197724559 xtb: 6.7.1 (edcfbbe)
C           -2.01920140642339       -0.82175995744728       -0.43161537539057
C           -1.52851293091114        0.25365939615338        0.52718739341793
C           -0.29526348890758        0.97212785668591        0.01726126045866
N            0.90973853227188        0.09824708295824       -0.03038097434909
O            1.80094151035948        0.42929624293800       -0.79134231157353
O            0.95978097451217       -0.87737408001116        0.68923392164753
H           -2.92411418313129       -1.28453241169070       -0.04370630887258
H           -2.24484961988082       -0.39600937003454       -1.40851851679611
H           -1.27213421316454       -1.60465144068269       -0.55837739831939
H           -1.32302549520358       -0.18577538168703        1.50579128504935
H           -2.30954902456272        1.00747403269980        0.65698296777298
H           -0.41744777270262        1.36654033845034       -0.99265702316406
H           -0.01232844149558        1.79276103114917        0.68226399010937
13
 energy: -20.962205170638 gnorm: 0.008714731081 xtb: 6.7.1 (edcfbbe)
C           -2.01473559426591       -0.81800913417197       -0.43367510489846
C           -1.52526696106702        0.25631949568187        0.53044493786944
C           -0.28594894553596        0.96778988800141        0.01139401783551
N            0.89072484538603        0.09502956822390       -0.03291410078703
O            1.78696206489714        0.42330048558695       -0.78313005593496
O            0.93937388337859       -0.86708669779127        0.69712560321308
H           -2.91722933602913       -1.28086469844500       -0.04793454957681
H           -2.23678920286781       -0.39191305310599       -1.40811623439852
H           -1.26577446483079       -1.59660082548495       -0.55578287516512
H           -1.30373988607760       -0.19763078742587        1.49755657611676
H           -2.30776482362459        1.00199176300189        0.67167385607464
H           -0.42056022657169        1.36195292088989       -0.99695964628385
H           -0.01521691203100        1.79572441452057        0.67244048592583
13
 energy: -20.962210774310 gnorm: 0.006922573723 xtb: 6.7.1 (edcfbbe)
C           -2.01391273423262       -0.81759886384233       -0.43482349796155
C           -1.52434782304531        0.25561177551925        0.53238127685020
C           -0.28341384577803        0.96782840161684        0.01150045961389
N            0.89405838265103        0.10441503570748       -0.02022280247358
O            1.78199038456653        0.41408512759203       -0.79056639142440
O            0.93326649389749       -0.86935746865423        0.69634548728519
H           -2.91764257844084       -1.28050513940566       -0.05147099907314
H           -2.23339156623131       -0.38921455310478       -1.40905983460126
H           -1.26460304407931       -1.59619634605728       -0.55638772297248
H           -1.29909325364815       -0.20060090952025        1.49706059141258
H           -2.30645580911691        0.99962187093828        0.67751195823405
H           -0.42131569685420        1.35897116776428       -0.99815769925608
H           -0.02110446892809        1.80294324092781        0.66801208435707
13
 energy: -20.962275905471 gnorm: 0.002055380253 xtb: 6.7.1 (edcfbbe)
C           -2.01592913354265       -0.81742898566852       -0.43492092029208
C           -1.52479272333110        0.25425920487232        0.53278962268507
C           -0.28456652189673        0.96699766931444        0.01077420748985
N            0.89336294177812        0.10055748626090       -0.02596454885280
O            1.78740873401996        0.41758351269393       -0.78761409338712
O            0.94015163151528       -0.86601213992340        0.70178950098177
H           -2.92061840781500       -1.27993464386075       -0.05188407690398
H           -2.23508530123784       -0.38736458847545       -1.40910393958750
H           -1.26726144898699       -1.59708895453202       -0.55782068191881
H           -1.29987112630305       -0.20177999325957        1.49770154331247
H           -2.30566081510167        0.99967681635354        0.67904069362063
H           -0.42285254871714        1.35813017189484       -0.99901282342238
H           -0.02025083962091        1.80240778381119        0.66634842626534
13
 energy: -20.962281609086 gnorm: 0.000716070178 xtb: 6.7.1 (edcfbbe)
C           -2.01722429771985       -0.81690960661214       -0.43544294210672
C           -1.52434854460139        0.25291044208337        0.53344405204221
C           -0.28450679456695        0.96615824966157        0.01012106927392
N            0.89362741427314        0.10136402476461       -0.02534990235774
O            1.78845379517779        0.41773392744214       -0.78710626368071
O            0.94331655494573       -0.86318372706273        0.70575219101734
H           -2.92286422789649       -1.27848190772438       -0.05328050918216
H           -2.23557572955524       -0.38527731791589       -1.40922522815051
H           -1.26977658868278       -1.59770356948980       -0.55935121014714
H           -1.29772282558806       -0.20442855179786        1.49728847652649
H           -2.30427861989233        0.99874802762619        0.68215833973509
H           -0.42365129684033        1.35529783275402       -1.00047726901006
H           -0.02141439829298        1.80377551575233        0.66359210603048
13
 energy: -20.962285281909 gnorm: 0.001107185280 xtb: 6.7.1 (edcfbbe)
C           -2.01938482814931       -0.81574210261260       -0.43640474263741
C           -1.52338208565137        0.25059334622298        0.53441677183058
C           -0.28468072316027        0.96481060709036        0.00894865381760
N            0.89472186139130        0.10347119197765       -0.02308593894730
O            1.78940840806874        0.41755314388332       -0.78665735035669
O            0.94888168989074       -0.85815869409473        0.71244974669534
H           -2.92682227859321       -1.27519006974916       -0.05575089905794
H           -2.23604078030059       -0.38157947893007       -1.40951908942014
H           -1.27438447948879       -1.59878138159553       -0.56182270010889
H           -1.29349359695509       -0.20951670274924        1.49609124825419
H           -2.30209117192412        0.99676755439038        0.68806426145623
H           -0.42472287749674        1.34964580318406       -1.00334190539660
H           -0.02397469687102        1.80613012246403        0.65873485386152
13
 energy: -20.962286609079 gnorm: 0.000642733689 xtb: 6.7.1 (edcfbbe)
C           -2.02015431652859       -0.81532618299934       -0.43675466401233
C           -1.52285957234947        0.25000704261161        0.53439579809964
C           -0.28484917078440        0.96459901292357        0.00840565912825
N            0.89552238728108        0.10401021862053       -0.02207372858932
O            1.78958426584075        0.41748520601848       -0.78632538248397
O            0.95025236278239       -0.85634562601222        0.71476871187818
H           -2.92770151358454       -1.27429933037133       -0.05589191949377
H           -2.23703828386647       -0.38046753674873       -1.40945716278347
H           -1.27580954973321       -1.59879245595518       -0.56308469274770
H           -1.29185658909823       -0.21116251538616        1.49532399886920
H           -2.30162780075382        0.99578994595518        0.68986500014827
H           -0.42465464739095        1.34789576202346       -1.00442898624472
H           -0.02477313105428        1.80660979880158        0.65738027822223
13
 energy: -20.962287718539 gnorm: 0.000088613580 xtb: 6.7.1 (edcfbbe)
C           -2.02098402116523       -0.81467740355862       -0.43738226819396
C           -1.52229000792710        0.24934178807207        0.53458256342310
C           -0.28511659585349        0.96431510374244        0.00767571928477
N            0.89643741177467        0.10436470827496       -0.02078184078157
O            1.78952951460101        0.41674811534198       -0.78633457978192
O            0.95172811758050       -0.85365170690222        0.71871950183622
H           -2.92835168257068       -1.27358794660052       -0.05608758735523
H           -2.23860934946813       -0.37856486589503       -1.40933787770028
H           -1.27708631612603       -1.59829502521080       -0.56539288167241
H           -1.28953351615643       -0.21343604682910        1.49431550035000
H           -2.30103320700906        0.99453177192188        0.69275565234314
H           -0.42470311628734        1.34539281212243       -1.00594163707486
H           -0.02595279063242        1.80752203500196        0.65533264531349
13
 energy: -20.962288090392 gnorm: 0.000163325784 xtb: 6.7.1 (edcfbbe)
C           -2.02164837461760       -0.81429266960637       -0.43777108145160
C           -1.52195057926212        0.24882564806426        0.53469105425579
C           -0.28513195260881        0.96408963340524        0.00732055537956
N            0.89694235688298        0.10462632610685       -0.01996055778773
O            1.78940673956280        0.41605954655259       -0.78655922445235
O            0.95296980998702       -0.85174852482604        0.72155003324824
H           -2.92868008188337       -1.27363387653689       -0.05620449239062
H           -2.24007034259165       -0.37724043193312       -1.40911461559951
H           -1.27777191625543       -1.59768391980768       -0.56714923865661
H           -1.28830684057957       -0.21481317219672        1.49376159087203
H           -2.30054464949569        0.99380560154691        0.69422857062792
H           -0.42471517288137        1.34390686541866       -1.00676169221321
H           -0.02646455549693        1.80810231329372        0.65409200815859
13
 energy: -20.962288373684 gnorm: 0.000159107595 xtb: 6.7.1 (edcfbbe)
C           -2.02193814926055       -0.81398608003513       -0.43811716398224
C           -1.52186792109276        0.24855555995081        0.53479110596752
C           -0.28514352382771        0.96382464177072        0.00711519967066
N            0.89723339617664        0.10472250961903       -0.01938250290387
O            1.78915679651772        0.41514511809200       -0.78702632166396
O            0.95402423462438       -0.85027348383757        0.72385897153601
H           -2.92839324099313       -1.27401010648998       -0.05601507779092
H           -2.24156409957767       -0.37618384734569       -1.40885479997544
H           -1.27787997742142       -1.59697933086123       -0.56895648223614
H           -1.28773593649767       -0.21560126055755        1.49347953377584
H           -2.30029026300132        0.99354033962504        0.69509846765780
H           -0.42471043310408        1.34291229152382       -1.00724534547975
H           -0.02685644178217        1.80833698802718        0.65337732541500
13
 energy: -20.962288796782 gnorm: 0.000088233217 xtb: 6.7.1 (edcfbbe)
C           -2.02244192013021       -0.81356381665373       -0.43865258744546
C           -1.52165550885592        0.24815303364253        0.53476468744988
C           -0.28503959782219        0.96359249196672        0.00688839389978
N            0.89753150238439        0.10483015055029       -0.01845663052129
O            1.78849970697390        0.41314770794711       -0.78809640364762
O            0.95560668352904       -0.84780408243844        0.72778436608759
H           -2.92758075403175       -1.27530301780857       -0.05542770483060
H           -2.24455197509519       -0.37455898416064       -1.40829243762738
H           -1.27766725260699       -1.59543122705637       -0.57220842580630
H           -1.28702742491302       -0.21665359309324        1.49301320111235
H           -2.29987525588290        0.99314117817731        0.69599046122783
H           -0.42446956708364        1.34177834397141       -1.00782711772355
H           -0.02729419570527        1.80867515443708        0.65264310781525
13
 energy: -20.962289174531 gnorm: 0.000103886574 xtb: 6.7.1 (edcfbbe)
C           -2.02321580388086       -0.81275861508202       -0.43966787411014
C           -1.52141611406685        0.24757701016195        0.53469639754726
C           -0.28490754003568        0.96311266642537        0.00652425103878
N            0.89809263046151        0.10497239429456       -0.01685326163392
O            1.78711631382072        0.40928120095487       -0.79034779468454
O            0.95866795342362       -0.84322896240147        0.73491824996738
H           -2.92590670675129       -1.27755516942942       -0.05435792486254
H           -2.24989083936795       -0.37176869116656       -1.40735930670380
H           -1.27718845031303       -1.59262461655903       -0.57804566051905
H           -1.28587606697853       -0.21836407030051        1.49218939113542
H           -2.29938370193640        0.99248062727850        0.69757539387095
H           -0.42391837860189        1.33987697968787       -1.00876245665589
H           -0.02813885501312        1.80900258561731        0.65161350560060
13
 energy: -20.962289250121 gnorm: 0.000077809992 xtb: 6.7.1 (edcfbbe)
C           -2.02333148685826       -0.81256163562775       -0.43997927429614
C           -1.52131704727982        0.24740145355045        0.53467030690372
C           -0.28489882204012        0.96309343018629        0.00648057131679
N            0.89812055809545        0.10498564976521       -0.01642508325209
O            1.78634223245597        0.40774670326500       -0.79141871756052
O            0.95953226709579       -0.84168200536668        0.73719686468135
H           -2.92540938786054       -1.27815702979090       -0.05420581395764
H           -2.25111668530082       -0.37099383007007       -1.40712889655819
H           -1.27697321271961       -1.59187438754263       -0.57962414451992
H           -1.28556907538556       -0.21888629532012        1.49195079655735
H           -2.29922385197265        0.99225930617665        0.69799470090551
H           -0.42377273485036        1.33959028477060       -1.00891947582756
H           -0.02834831261923        1.80908169548540        0.65153107559785
