20
 energy: -386.243480041280 gnorm: 0.001280163934 xtb: 6.7.1 (edcfbbe)
C           -2.34176347511674       -1.19173100719556       -0.60986829773330
C           -2.08360540740083       -0.53629872968067        0.74339698651639
C           -1.43593501621488        0.84894863339416        0.60769067219808
C           -0.13136345924625        0.81837154518340       -0.13950445527712
O            0.12014088997506        1.48120583485859       -1.13539713525318
O            0.75009776967856       -0.02934108439696        0.41658927980619
C            2.05392344448726       -0.13672035756003       -0.23663532479831
C            2.85574803839109       -1.15887866948014        0.52774339026567
H           -2.98774161532363       -0.56380454289459       -1.23335774763419
H           -1.40629042737557       -1.35776037179646       -1.15773983700137
H           -2.83040484629255       -2.16344878000828       -0.48818176335655
H           -1.44838762690226       -1.18009054959121        1.35997964199734
H           -3.02782623364320       -0.41070201713876        1.28311947969609
H           -1.24000020250634        1.26993055250345        1.60129456303374
H           -2.09871873318295        1.53326297958903        0.07231486341709
H            1.89443234883683       -0.43694886487620       -1.27669023318304
H            2.52756060333751        0.84959000816780       -0.22065153694094
H            3.83896506230136       -1.25916819705062        0.05847894439067
H            3.00148912527246       -0.85021642646200        1.56700694417957
H            2.36627750598503       -2.13699580750924        0.51117549925303
20
 energy: -386.243485625931 gnorm: 0.000518730449 xtb: 6.7.1 (edcfbbe)
C           -2.34058384115726       -1.19126766592884       -0.61025405422027
C           -2.08222635499434       -0.53716419335338        0.74333042392124
C           -1.43595809042436        0.84890980601350        0.60812614685344
C           -0.13210416016315        0.81970393261613       -0.13993589779964
O            0.11881138605681        1.48173036394681       -1.13621682707927
O            0.75039561007784       -0.02700980825279        0.41702896307255
C            2.05411901652607       -0.13691881110746       -0.23769450797134
C            2.85452411107654       -1.15865499829354        0.52832323169319
H           -2.98543774481432       -0.56206669424972       -1.23336610439913
H           -1.40516151805779       -1.35798309192701       -1.15793105997397
H           -2.83018072869108       -2.16231471598919       -0.48952959939353
H           -1.44512855993284       -1.18096412973958        1.35843067070717
H           -3.02626965032797       -0.41300189107646        1.28458492106445
H           -1.23951949235697        1.26925528774770        1.60185527205425
H           -2.10053029516728        1.53272791442709        0.07416019263248
H            1.89255558897592       -0.43856605092960       -1.27685734583911
H            2.52844548322998        0.84906912748872       -0.22422697435807
H            3.83818812759873       -1.26183447141674        0.06067701492934
H            2.99952120608138       -0.84874371928433        1.56713560760827
H            2.36313709448783       -2.13570244072425        0.51312402058897
20
 energy: -386.243490003941 gnorm: 0.000638752644 xtb: 6.7.1 (edcfbbe)
C           -2.33825161409419       -1.19047488439307       -0.61124309115871
C           -2.07894787858540       -0.53876776139666        0.74315930728891
C           -1.43578970764302        0.84915496503373        0.60949264656082
C           -0.13308242470721        0.82201783991884       -0.14027217638103
O            0.11640383782707        1.48185465223973       -1.13806791657537
O            0.75089086780098       -0.02304428952350        0.41814510612334
C            2.05369971530093       -0.13713450078558       -0.23964920095429
C            2.85143192297246       -1.15820893245780        0.52958269291114
H           -2.98112053198328       -0.55882767349766       -1.23398112844156
H           -1.40265904948851       -1.35829323966583       -1.15835365954907
H           -2.83000810814513       -2.16066641984476       -0.49240341490043
H           -1.43932810462934       -1.18237063047340        1.35590377284848
H           -3.02215573004922       -0.41772726604112        1.28658642514665
H           -1.23860088529743        1.26817923603394        1.60360236531086
H           -2.10265520087042        1.53237378611432        0.07758480385545
H            1.88850000112203       -0.44216773076823       -1.27725497368508
H            2.52962790570189        0.84813556028818       -0.23042818239577
H            3.83530604450662       -1.26575456118227        0.06341450604026
H            2.99609145819308       -0.84511386153492        1.56755397477227
H            2.35724361899441       -2.13396130733545        0.51739253690870
20
 energy: -386.243490003941 gnorm: 0.000638752644 xtb: 6.7.1 (edcfbbe)
C           -2.33825161409419       -1.19047488439307       -0.61124309115871
C           -2.07894787858540       -0.53876776139666        0.74315930728891
C           -1.43578970764302        0.84915496503373        0.60949264656082
C           -0.13308242470721        0.82201783991884       -0.14027217638103
O            0.11640383782707        1.48185465223973       -1.13806791657537
O            0.75089086780098       -0.02304428952350        0.41814510612334
C            2.05369971530093       -0.13713450078558       -0.23964920095429
C            2.85143192297246       -1.15820893245780        0.52958269291114
H           -2.98112053198328       -0.55882767349766       -1.23398112844156
H           -1.40265904948851       -1.35829323966583       -1.15835365954907
H           -2.83000810814513       -2.16066641984476       -0.49240341490043
H           -1.43932810462934       -1.18237063047340        1.35590377284848
H           -3.02215573004922       -0.41772726604112        1.28658642514665
H           -1.23860088529743        1.26817923603394        1.60360236531086
H           -2.10265520087042        1.53237378611432        0.07758480385545
H            1.88850000112203       -0.44216773076823       -1.27725497368508
H            2.52962790570189        0.84813556028818       -0.23042818239577
H            3.83530604450662       -1.26575456118227        0.06341450604026
H            2.99609145819308       -0.84511386153492        1.56755397477227
H            2.35724361899441       -2.13396130733545        0.51739253690870
