      -----------------------------------------------------------      
     |                   =====================                   |     
     |                           x T B                           |     
     |                   =====================                   |     
     |                         S. Grimme                         |     
     |          Mulliken Center for Theoretical Chemistry        |     
     |                    University of Bonn                     |     
      -----------------------------------------------------------      

   * xtb version 6.7.1 (edcfbbe) compiled by 'albert@albert-system' on 2024-07-22

   xtb is free software: you can redistribute it and/or modify it under
   the terms of the GNU Lesser General Public License as published by
   the Free Software Foundation, either version 3 of the License, or
   (at your option) any later version.
   
   xtb is distributed in the hope that it will be useful,
   but WITHOUT ANY WARRANTY; without even the implied warranty of
   MERCHANTABILITY or FITNESS FOR A PARTICULAR PURPOSE.  See the
   GNU Lesser General Public License for more details.
   
   Cite this work as:
   * C. Bannwarth, E. Caldeweyher, S. Ehlert, A. Hansen, P. Pracht,
     J. Seibert, S. Spicher, S. Grimme, WIREs Comput. Mol. Sci., 2020, 11,
     e01493. DOI: 10.1002/wcms.1493
   
   for GFN2-xTB:
   * C. Bannwarth, S. Ehlert and S. Grimme., J. Chem. Theory Comput., 2019,
     15, 1652-1671. DOI: 10.1021/acs.jctc.8b01176
   for GFN1-xTB:
   * S. Grimme, C. Bannwarth, P. Shushkov, J. Chem. Theory Comput., 2017,
     13, 1989-2009. DOI: 10.1021/acs.jctc.7b00118
   for GFN0-xTB:
   * P. Pracht, E. Caldeweyher, S. Ehlert, S. Grimme, ChemRxiv, 2019, preprint.
     DOI: 10.26434/chemrxiv.8326202.v1
   for GFN-FF:
   * S. Spicher and S. Grimme, Angew. Chem. Int. Ed., 2020, 59, 15665-15673.
     DOI: 10.1002/anie.202004239
   
   for ALPB and GBSA implicit solvation:
   * S. Ehlert, M. Stahn, S. Spicher, S. Grimme, J. Chem. Theory Comput.,
     2021, 17, 4250-4261. DOI: 10.1021/acs.jctc.1c00471
   
   for ddCOSMO and CPCM-X implicit solvation:
   * M. Stahn, S. Ehlert, S. Grimme, J. Phys. Chem. A,
     2023, XX, XXXX-XXXX. DOI: 10.1021/acs.jpca.3c04382
   
   for DFT-D4:
   * E. Caldeweyher, C. Bannwarth and S. Grimme, J. Chem. Phys., 2017,
     147, 034112. DOI: 10.1063/1.4993215
   * E. Caldeweyher, S. Ehlert, A. Hansen, H. Neugebauer, S. Spicher,
     C. Bannwarth and S. Grimme, J. Chem. Phys., 2019, 150, 154122.
     DOI: 10.1063/1.5090222
   * E. Caldeweyher, J.-M. Mewes, S. Ehlert and S. Grimme, Phys. Chem. Chem. Phys.
     2020, 22, 8499-8512. DOI: 10.1039/D0CP00502A
   
   for sTDA-xTB:
   * S. Grimme and C. Bannwarth, J. Chem. Phys., 2016, 145, 054103.
     DOI: 10.1063/1.4959605
   
   in the mass-spec context:
   * V. Asgeirsson, C. Bauer and S. Grimme, Chem. Sci., 2017, 8, 4879.
     DOI: 10.1039/c7sc00601b
   * J. Koopman and S. Grimme, ACS Omega 2019, 4, 12, 15120-15133.
     DOI: 10.1021/acsomega.9b02011
   
   for metadynamics refer to:
   * S. Grimme, J. Chem. Theory Comput., 2019, 155, 2847-2862
     DOI: 10.1021/acs.jctc.9b00143
   
   for SPH calculations refer to:
   * S. Spicher and S. Grimme, J. Chem. Theory Comput., 2021, 17, 1701-1714
     DOI: 10.1021/acs.jctc.0c01306
   
   for ONIOM refer to:
   * C. Plett, A. Katbashev, S. Ehlert, S. Grimme, M. Bursch,
     Phys. Chem. Chem. Phys., 2023, 25, 17860-17868. DOI: 10.1039/D3CP02178E
   
   for DIPRO refer to:
   * J. Kohn, N. Gildemeister, S. Grimme, D. Fazzi, A. Hansen,
     J. Chem. Phys., 2023, just accepted.
   
   for PTB refer to:
   * S. Grimme, M. Mueller, A. Hansen, J. Chem. Phys., 2023, 158, 124111.
     DOI: 10.1063/5.0137838
   
   with help from (in alphabetical order)
   P. Atkinson, C. Bannwarth, F. Bohle, G. Brandenburg, E. Caldeweyher
   M. Checinski, S. Dohm, S. Ehlert, S. Ehrlich, I. Gerasimov, C. Hölzer
   A. Katbashev, J. Kohn, J. Koopman, C. Lavigne, S. Lehtola, F. März, M. Müller,
   F. Musil, H. Neugebauer, J. Pisarek, C. Plett, P. Pracht, F. Pultar,
   J. Seibert, P. Shushkov, S. Spicher, M. Stahn, M. Steiner, T. Strunk,
   J. Stückrath, T. Rose, and J. Unsleber
   
 * started run on 2025/04/11 at 16:07:03.651     
   ID    Z sym.   atoms
    1    6 C      1-4, 7, 8
    2    8 O      5, 6
    3    1 H      9-20

           -------------------------------------------------
          |                Calculation Setup                |
           -------------------------------------------------

          program call               : /srv/scratch/z5358697/.xtb/bin/xtb xtb_opt.coord --opt normal --orca -I xtb_opt-xcontrol-inp
          hostname                   : k061
          coordinate file            : xtb_opt.coord
          omp threads                :                    16

           -------------------------------------------------
          |                   Orca driver                   |
           -------------------------------------------------
orca executable           : /apps/z_install_tree/linux-rocky8-ivybridge/gcc-12.2.0/orca-6.0.0-srtngmq3qlimg2qxbl6avaaiffipurdx/bin/orca
orca input file           : xtb_opt.inp
orca input line           : 
orca parallel             : true
orca number of threads    : 16
                         * ORCA takes the control...
  ------------------------------------------------------------------------

                                 *****************
                                 * O   R   C   A *
                                 *****************

                                            #,                                       
                                            ###                                      
                                            ####                                     
                                            #####                                    
                                            ######                                   
                                           ########,                                 
                                     ,,################,,,,,                         
                               ,,#################################,,                 
                          ,,##########################################,,             
                       ,#########################################, ''#####,          
                    ,#############################################,,   '####,        
                  ,##################################################,,,,####,       
                ,###########''''           ''''###############################       
              ,#####''   ,,,,##########,,,,          '''####'''          '####       
            ,##' ,,,,###########################,,,                        '##       
           ' ,,###''''                  '''############,,,                           
         ,,##''                                '''############,,,,        ,,,,,,###''
      ,#''                                            '''#######################'''  
     '                                                          ''''####''''         
             ,#######,   #######,   ,#######,      ##                                
            ,#'     '#,  ##    ##  ,#'     '#,    #''#        ,####,   ,####,        
            ##       ##  ##   ,#'  ##            #'  '#       #'       #'  '#        
            ##       ##  #######   ##           ,######,      #####,   #    #        
            '#,     ,#'  ##    ##  '#,     ,#' ,#      #,     #,   #   #,  ,#        
             '#######'   ##     ##  '#######'  #'      '#     '####' # '####'        



                #########################################################
                #                        -***-                          #
                #          Department of theory and spectroscopy        #
                #                                                       #
                #                      Frank Neese                      #
                #                                                       #
                #     Directorship, Architecture, Infrastructure        #
                #                    SHARK, DRIVERS                     #
                #        Core code/Algorithms in most modules           #
                #                                                       #
                #        Max Planck Institute fuer Kohlenforschung      #
                #                Kaiser Wilhelm Platz 1                 #
                #                 D-45470 Muelheim/Ruhr                 #
                #                      Germany                          #
                #                                                       #
                #                  All rights reserved                  #
                #                        -***-                          #
                #########################################################


                         Program Version 6.0.0  -   RELEASE  -


 With contributions from (in alphabetic order):
   Daniel Aravena         : Magnetic Suceptibility
   Michael Atanasov       : Ab Initio Ligand Field Theory (pilot matlab implementation)
   Alexander A. Auer      : GIAO ZORA, VPT2 properties, NMR spectrum
   Ute Becker             : All parallelization in ORCA, NUMFREQ, NUMCALC
   Giovanni Bistoni       : ED, misc. LED, open-shell LED, HFLD
   Martin Brehm           : Molecular dynamics
   Dmytro Bykov           : pre 5.0 version of the SCF Hessian
   Marcos Casanova-Páez   : Triplet and SCS-CIS(D). UHF-(DLPNO)-IP/EA/STEOM-CCSD. UHF-CVS-IP/STEOM-CCSD
   Vijay G. Chilkuri      : MRCI spin determinant printing, contributions to CSF-ICE
   Pauline Colinet        : FMM embedding
   Dipayan Datta          : RHF DLPNO-CCSD density
   Achintya Kumar Dutta   : EOM-CC, STEOM-CC
   Nicolas Foglia         : Exact transition moments, OPA infrastructure, MCD improvements
   Dmitry Ganyushin       : Spin-Orbit,Spin-Spin,Magnetic field MRCI
   Miquel Garcia          : C-PCM and meta-GGA Hessian, CCSD/C-PCM, Gaussian charge scheme
   Tiago L. C. Gouveia    : GS-ROHF, GS-ROCIS
   Yang Guo               : DLPNO-NEVPT2, F12-NEVPT2, CIM, IAO-localization
   Andreas Hansen         : Spin unrestricted coupled pair/coupled cluster methods
   Ingolf Harden          : AUTO-CI MPn and infrastructure 
   Benjamin Helmich-Paris : MC-RPA, TRAH-(SCF,CASSCF), AVAS, COSX integrals, SCF dyn. polar.
   Lee Huntington         : MR-EOM, pCC
   Robert Izsak           : Overlap fitted RIJCOSX, COSX-SCS-MP3, EOM
   Riya Kayal             : Wick's Theorem for AUTO-CI, AUTO-CI UHF-CCSDT
   Emily Kempfer          : AUTO-CI, RHF CISDT and CCSDT
   Christian Kollmar      : KDIIS, OOCD, Brueckner-CCSD(T), CCSD density, CASPT2, CASPT2-K, improved NEVPT2
   Axel Koslowski         : Symmetry handling
   Simone Kossmann        : Meta GGA functionals, TD-DFT gradient, OOMP2, (MP2 Hessian; deprecated post 5.0)
   Lucas Lang             : DCDCAS
   Marvin Lechner         : AUTO-CI (C++ implementation), FIC-MRCC
   Spencer Leger          : CASSCF response
   Dagmar Lenk            : GEPOL surface, SMD, ORCA-2-JSON
   Dimitrios Liakos       : Extrapolation schemes; Compound Job, initial MDCI parallelization
   Dimitrios Manganas     : Further ROCIS development; embedding schemes. LFT, Crystal Embedding
   Dimitrios Pantazis     : SARC Basis sets
   Anastasios Papadopoulos: AUTO-CI, single reference methods and gradients
   Taras Petrenko         : pre 6.0 DFT Hessian and TD-DFT gradient, (ASA, deprecated), ECA, 1-Electron XAS/XES, NRVS
   Peter Pinski           : DLPNO-MP2, DLPNO-MP2 Gradient
   Christoph Reimann      : Effective Core Potentials
   Marius Retegan         : Local ZFS, SOC
   Christoph Riplinger    : Optimizer, TS searches, QM/MM, DLPNO-CCSD(T), (RO)-DLPNO pert. Triples
   Michael Roemelt        : Original ROCIS implementation
   Masaaki Saitow         : Open-shell DLPNO-CCSD energy and density
   Barbara Sandhoefer     : DKH picture change effects
   Kantharuban Sivalingam : CASSCF convergence/infrastructure, NEVPT2 and variants, FIC-MRCI
   Bernardo de Souza      : ESD, SOC TD-DFT
   Georgi Stoychev        : AutoAux, RI-MP2 NMR, DLPNO-MP2 response, X2C
   Van Anh Tran           : RI-MP2 g-tensors
   Willem Van den Heuvel  : Paramagnetic NMR
   Zikuan Wang            : NOTCH, Electric field optimization 
   Frank Wennmohs         : Technical directorship and infrastructure
   Hang Xu                : AUTO-CI-Response properties 


 We gratefully acknowledge several colleagues who have allowed us to
 interface, adapt or use parts of their codes:
   Stefan Grimme, W. Hujo, H. Kruse, P. Pracht,  : VdW corrections, initial TS optimization,
                  C. Bannwarth, S. Ehlert,         DFT functionals, gCP, sTDA/sTD-DF
                  L. Wittmann, M. Mueller
   Ed Valeev, F. Pavosevic, A. Kumar             : LibInt (2-el integral package), F12 methods
   Garnet Chan, S. Sharma, J. Yang, R. Olivares  : DMRG
   Ulf Ekstrom                                   : XCFun DFT Library
   Mihaly Kallay                                 : mrcc  (arbitrary order and MRCC methods)
   Frank Weinhold                                : gennbo (NPA and NBO analysis)
   Simon Mueller                                 : openCOSMO-RS
   Christopher J. Cramer and Donald G. Truhlar   : smd solvation model
   Lars Goerigk                                  : TD-DFT with DH, B97 family of functionals
   V. Asgeirsson, H. Jonsson                     : NEB implementation
   FAccTs GmbH                                   : IRC, NEB, NEB-TS, DLPNO-Multilevel, CI-OPT
                                                   MM, QMMM, 2- and 3-layer-ONIOM, Crystal-QMMM,
                                                   LR-CPCM, SF, NACMEs, symmetry and pop. for TD-DFT,
                                                   nearIR, NL-DFT gradient (VV10), updates on ESD,
                                                   ML-optimized integration grids, MBIS, APM,
                                                   GOAT, DOCKER, SOLVATOR, interface openCOSMO-RS
   S Lehtola, MJT Oliveira, MAL Marques          : LibXC Library
   Liviu Ungur et al                             : ANISO software


 Your calculation uses the libint2 library for the computation of 2-el integrals
 For citations please refer to: http://libint.valeyev.net

 Your ORCA version has been built with support for libXC version: 6.2.2
 For citations please refer to: https://libxc.gitlab.io

 This ORCA versions uses:
   CBLAS   interface :  Fast vector & matrix operations
   LAPACKE interface :  Fast linear algebra routines
   SCALAPACK package :  Parallel linear algebra routines
   Shared memory     :  Shared parallel matrices
   BLAS/LAPACK       :  OpenBLAS 0.3.27  USE64BITINT DYNAMIC_ARCH NO_AFFINITY SkylakeX SINGLE_THREADED
        Core in use  :  SkylakeX
   Copyright (c) 2011-2014, The OpenBLAS Project




***************************************
The coordinates will be read from file: xtb_opt.xyz
***************************************


Your calculation utilizes the geometrical counterpoise correction gCP
Please cite in your paper:
H.Kruse, S. Grimme J.Chem.Phys., 136, (2012), 154101 
   

Your calculation utilizes the atom-pairwise dispersion correction
based on EEQ partial charges (D4)


Your calculation utilizes the SMD solvation module
Please cite in your paper:
A.V. Marenich, C.J. Cramer, D.G. Truhlar J. Phys. Chem. B, 113, (2009), 6378 

================================================================================

----- Orbital basis set information -----
Your calculation utilizes the basis: def2-mTZVPP
   Stefan Grimme, Andreas Hansen, Sebastian Ehlert, and Jan-Michael Mewes 
   J. Chem. Phys. 154, 064103 (2021). DOI: 10.1063/5.0040021

----- AuxJ basis set information -----
Your calculation utilizes the auxiliary basis: def2/J
   F. Weigend, Phys. Chem. Chem. Phys. 8, 1057 (2006).

================================================================================
                                        WARNINGS
                       Please study these warnings very carefully!
================================================================================

Using LibXC functional ID 497 : Re-regularized SCAN exchange by Furness et al
[ 1]  J. W. Furness, A. D. Kaplan, J. Ning, J. P. Perdew, and J. Sun.,  J. Phys. Chem. Lett. 11, 8208-8215 (2020)
[ 2]  J. W. Furness, A. D. Kaplan, J. Ning, J. P. Perdew, and J. Sun.,  J. Phys. Chem. Lett. 11, 9248-9248 (2020)
Using LibXC functional ID 498 : Re-regularized SCAN correlation by Furness et al
[ 1]  J. W. Furness, A. D. Kaplan, J. Ning, J. P. Perdew, and J. Sun.,  J. Phys. Chem. Lett. 11, 8208-8215 (2020)
[ 2]  J. W. Furness, A. D. Kaplan, J. Ning, J. P. Perdew, and J. Sun.,  J. Phys. Chem. Lett. 11, 9248-9248 (2020)
Using LibXC functional ID 497 : Re-regularized SCAN exchange by Furness et al
[ 1]  J. W. Furness, A. D. Kaplan, J. Ning, J. P. Perdew, and J. Sun.,  J. Phys. Chem. Lett. 11, 8208-8215 (2020)
[ 2]  J. W. Furness, A. D. Kaplan, J. Ning, J. P. Perdew, and J. Sun.,  J. Phys. Chem. Lett. 11, 9248-9248 (2020)
Using LibXC functional ID 498 : Re-regularized SCAN correlation by Furness et al
[ 1]  J. W. Furness, A. D. Kaplan, J. Ning, J. P. Perdew, and J. Sun.,  J. Phys. Chem. Lett. 11, 8208-8215 (2020)
[ 2]  J. W. Furness, A. D. Kaplan, J. Ning, J. P. Perdew, and J. Sun.,  J. Phys. Chem. Lett. 11, 9248-9248 (2020)

================================================================================
                                       INPUT FILE
================================================================================
NAME = xtb_opt.inp
|  1> ! r2scan-3c def2/J RI DEFGRID2 scfconv7 ENGRAD tightSCF miniprint
|  2> %cpcm
|  3>     smd true
|  4>     smdsolvent "water"
|  5> end
|  6> * xyzfile 0 1 xtb_opt.xyz
|  7> 
|  8>                          ****END OF INPUT****
================================================================================

                     *******************************
                     * Energy+Gradient Calculation *
                     *******************************

---------------------------------
CARTESIAN COORDINATES (ANGSTROEM)
---------------------------------
  C     -2.830325   -1.106227   -0.116862
  C     -2.517808    0.384504   -0.063799
  C     -1.219504    0.662630    0.693023
  C     -0.006327    0.181586   -0.061698
  O      0.093143    0.126642   -1.268947
  O      0.967224   -0.171472    0.772325
  C      2.222094   -0.599440    0.217019
  C      3.115994    0.587857   -0.106792
  H     -2.920502   -1.515322    0.886719
  H     -3.763177   -1.279197   -0.646583
  H     -2.037572   -1.638725   -0.638537
  H     -3.334776    0.912464    0.428590
  H     -2.419575    0.770760   -1.079900
  H     -1.220969    0.194070    1.677048
  H     -1.092929    1.739288    0.829464
  H      2.662311   -1.229053    0.990629
  H      2.022279   -1.187306   -0.684120
  H      4.078353    0.228601   -0.456341
  H      2.661250    1.194373   -0.886933
  H      3.260806    1.199969    0.779290

----------------------------
CARTESIAN COORDINATES (A.U.)
----------------------------
  NO LB      ZA    FRAG     MASS         X           Y           Z
   0 C     6.0000    0    12.011   -5.348539   -2.090465   -0.220837
   1 C     6.0000    0    12.011   -4.757968    0.726607   -0.120563
   2 C     6.0000    0    12.011   -2.304528    1.252190    1.309623
   3 C     6.0000    0    12.011   -0.011956    0.343148   -0.116592
   4 O     8.0000    0    15.999    0.176015    0.239318   -2.397963
   5 O     8.0000    0    15.999    1.827788   -0.324035    1.459483
   6 C     6.0000    0    12.011    4.199149   -1.132777    0.410106
   7 C     6.0000    0    12.011    5.888375    1.110889   -0.201808
   8 H     1.0000    0     1.008   -5.518948   -2.863543    1.675656
   9 H     1.0000    0     1.008   -7.111373   -2.417332   -1.221865
  10 H     1.0000    0     1.008   -3.850453   -3.096741   -1.206660
  11 H     1.0000    0     1.008   -6.301814    1.724307    0.809917
  12 H     1.0000    0     1.008   -4.572333    1.456526   -2.040715
  13 H     1.0000    0     1.008   -2.307297    0.366740    3.169161
  14 H     1.0000    0     1.008   -2.065336    3.286778    1.567460
  15 H     1.0000    0     1.008    5.031038   -2.322573    1.872017
  16 H     1.0000    0     1.008    3.821554   -2.243684   -1.292799
  17 H     1.0000    0     1.008    7.706970    0.431994   -0.862360
  18 H     1.0000    0     1.008    5.029033    2.257039   -1.676061
  19 H     1.0000    0     1.008    6.162030    2.267612    1.472645

------------------------------------------------------------------------------
                   ___                                                        
                  /   \      - P O W E R E D   B Y -                         
                 /     \                                                     
                 |  |  |   _    _      __       _____    __    __             
                 |  |  |  | |  | |    /  \     |  _  \  |  |  /  |          
                  \  \/   | |  | |   /    \    | | | |  |  | /  /          
                 / \  \   | |__| |  /  /\  \   | |_| |  |  |/  /          
                |  |  |   |  __  | /  /__\  \  |    /   |      \           
                |  |  |   | |  | | |   __   |  |    \   |  |\   \          
                \     /   | |  | | |  |  |  |  | |\  \  |  | \   \       
                 \___/    |_|  |_| |__|  |__|  |_| \__\ |__|  \__/        
                                                                              
                      - O R C A' S   B I G   F R I E N D -                    
                                      &                                       
                       - I N T E G R A L  F E E D E R -                       
                                                                              
 v1 FN, 2020, v2 2021, v3 2022-2024                                           
------------------------------------------------------------------------------


----------------------
SHARK INTEGRAL PACKAGE
----------------------

Number of atoms                             ...     20
Number of basis functions                   ...    222
Number of shells                            ...    110
Maximum angular momentum                    ...      2
Integral batch strategy                     ... SHARK/LIBINT Hybrid
RI-J (if used) integral strategy            ... SPLIT-RIJ (Revised 2003 algorithm where possible)
Printlevel                                  ...      1
Contraction scheme used                     ... SEGMENTED contraction
Prescreening option                         ... SCHWARTZ
   Thresh                                   ... 3.000e-11
   Tcut                                     ... 1.000e-12
   Tpresel                                  ... 1.000e-12 
Coulomb Range Separation                    ... NOT USED
Exchange Range Separation                   ... NOT USED
Multipole approximations                    ... NOT USED
Finite Nucleus Model                        ... NOT USED
CABS basis                                  ... NOT available
Auxiliary Coulomb fitting basis             ... AVAILABLE
   # of basis functions in Aux-J            ...    524
   # of shells in Aux-J                     ...    180
   Maximum angular momentum in Aux-J        ...      4
Auxiliary J/K fitting basis                 ... NOT available
Auxiliary Correlation fitting basis         ... NOT available
Auxiliary 'external' fitting basis          ... NOT available

Checking pre-screening integrals            ... done (  0.0 sec) Dimension = 110
Check shell pair data                       ... done (  0.0 sec)
Shell pair information
Shell pair cut-off parameter TPreSel        ...   1.0e-12
Total number of shell pairs                 ...      6105
Shell pairs after pre-screening             ...      5364
Total number of primitive shell pairs       ...     21533
Primitive shell pairs kept                  ...     13478
          la=0 lb=0:   1799 shell pairs
          la=1 lb=0:   2018 shell pairs
          la=1 lb=1:    589 shell pairs
          la=2 lb=0:    579 shell pairs
          la=2 lb=1:    327 shell pairs
          la=2 lb=2:     52 shell pairs

Calculating one electron integrals          ... done (  0.0 sec)
Calculating RI/J V-Matrix + Cholesky decomp.... done (  0.1 sec)
Calculating Nuclear repulsion               ... done (  0.0 sec) ENN=    394.515860769492 Eh

Diagonalization of the overlap matrix:
Smallest eigenvalue                        ... 1.539e-04
Time for diagonalization                   ...    0.009 sec
Threshold for overlap eigenvalues          ... 1.000e-07
Number of eigenvalues below threshold      ... 0
Time for construction of square roots      ...    0.019 sec
Total time needed                          ...    0.042 sec

-------------------
DFT GRID GENERATION
-------------------

General Integration Accuracy     IntAcc      ... 4.388
Radial Grid Type                 RadialGrid  ... OptM3 with GC (2021)
Angular Grid (max. ang.)         AngularGrid ... 4 (Lebedev-302)
Angular grid pruning method      GridPruning ... 4 (adaptive)
Weight generation scheme         WeightScheme... mBecke (2022)
Basis function cutoff            BFCut       ... 1.0000e-11
Integration weight cutoff        WCut        ... 1.0000e-14
Partially contracted basis set               ... off
Rotationally invariant grid construction     ... off
Angular grids for H and He will be reduced by one unit
Diffuse basis detected: some atoms will have their outermost
                        angular grid increased by 1.

Total number of grid points                  ...    87377
Total number of batches                      ...     1375
Average number of points per batch           ...       63
Average number of grid points per atom       ...     4369
Initializing property integral containers    ... done (  0.0 sec)

SHARK setup successfully completed in   1.4 seconds

Maximum memory used throughout the entire STARTUP-calculation: 39.4 MB
Occupation numbers will be reassigned to an Aufbau configuration
             **** ENERGY FILE WAS UPDATED (xtb_opt.en.tmp) ****
Finished Guess after   0.3 sec
Maximum memory used throughout the entire GUESS-calculation: 15.2 MB
--------------------
CPCM SOLVATION MODEL
--------------------
CPCM parameters:
  Epsilon                                         ...      78.3550
  Refrac                                          ...       1.3328
  Rsolv                                           ...       1.3000
  Surface type                                    ... GAUSSIAN VDW
  Discretization scheme                           ... Constant charge density
    Threshold for H atoms                         ...       5.0000 (charges/Ang^2)
    Threshold for non-H atoms                     ...       5.0000 (charges/Ang^2)
  Epsilon function type                           ...         CPCM
Solvent:                                          ... WATER
SMD-CDS solvent descriptors:
  Soln                                            ...       1.3328
  Soln25                                          ...       1.3323
  Sola                                            ...       0.0000
  Solb                                            ...       0.0000
  Solg                                            ...       0.0000
  Solc                                            ...       0.0000
  Solh                                            ...       0.0000
Radii:
  Scheme                                          ... Element-dependent radii
  Radius for C  used is    3.4960 Bohr (=   1.8500 Ang.)
  Radius for O  used is    2.8724 Bohr (=   1.5200 Ang.)
  Radius for H  used is    2.2677 Bohr (=   1.2000 Ang.)
Calculating surface                               ...        done! (  0.0s)
Cavity surface points                             ...         1510
Cavity Volume                                     ...     880.2321
Cavity Surface-area                               ...     587.9840
Calculating surface distance matrix               ...        done! (  0.0s)
Performing Cholesky decomposition & store         ...        done! (  0.1s)
Overall time for CPCM initialization              ...                 0.1s

----------------------------------------D-I-I-S--------------------------------------------
Iteration    Energy (Eh)           Delta-E    RMSDP     MaxDP     DIISErr   Damp  Time(sec)
-------------------------------------------------------------------------------------------
               ***  Starting incremental Fock matrix formation  ***
                              *** Initializing SOSCF ***
---------------------------------------S-O-S-C-F--------------------------------------
Iteration    Energy (Eh)           Delta-E    RMSDP     MaxDP     MaxGrad    Time(sec)
--------------------------------------------------------------------------------------
    1    -386.2563303390146530     0.00e+00  7.14e-06  2.75e-04  3.54e-05     3.9
               *** Restarting incremental Fock matrix formation ***
    2    -386.2563302613107226     7.77e-08  1.13e-05  4.38e-04  9.70e-05     3.7
    3    -386.2563293937739672     8.68e-07  8.09e-06  2.96e-04  2.01e-04     2.9
    4    -386.2563306078034202    -1.21e-06  1.32e-06  4.37e-05  1.40e-05     2.9
                  *** Gradient check signals convergence ***

               *****************************************************
               *                     SUCCESS                       *
               *           SCF CONVERGED AFTER   4 CYCLES          *
               *****************************************************


SMD CDS free energy correction energy :                 4.91337     Kcal/mol
Total Energy after SMD CDS correction =              -386.248500661 Eh
             **** ENERGY FILE WAS UPDATED (xtb_opt.en.tmp) ****

----------------
TOTAL SCF ENERGY
----------------

Total Energy       :       -386.24850066050044 Eh          -10510.35604 eV

Components:
Nuclear Repulsion  :        394.51586076949184 Eh           10735.32234 eV
Electronic Energy  :       -780.75707107440542 Eh          -21245.48000 eV
One Electron Energy:      -1306.47345842992445 Eh          -35550.95018 eV
Two Electron Energy:        525.71638735551903 Eh           14305.47018 eV
CPCM Dielectric    :         -0.01512030288985 Eh              -0.41144 eV
SMD CDS (Gcds)     :          0.00782994730299 Eh               0.21306 eV

Virial components:
Potential Energy   :       -770.88328307989082 Eh          -20976.80057 eV
Kinetic Energy     :        384.63478241939032 Eh           10466.44453 eV
Virial Ratio       :          2.00419545583205

DFT components:
N(Alpha)           :       32.000025774178 electrons
N(Beta)            :       32.000025774178 electrons
N(Total)           :       64.000051548357 electrons
E(X)               :      -52.084255633885 Eh       
E(C)               :       -2.038316541947 Eh       
E(XC)              :      -54.122572175832 Eh       

CPCM Solvation Model Properties:
Surface-charge          :         -0.04711428222281
Corrected charge        :         -0.00000000000000
Outlying charge corr.   :          0.00016731121934 Eh               0.00455 eV
Free-energy (cav+disp)  :          0.00782994730299 Eh               0.21306 eV

---------------
SCF CONVERGENCE
---------------

  Last Energy change         ...    1.2140e-06  Tolerance :   1.0000e-07
  Last MAX-Density change    ...    4.3698e-05  Tolerance :   1.0000e-07
  Last RMS-Density change    ...    1.3232e-06  Tolerance :   5.0000e-09
  Last DIIS Error            ...    3.9056e-04  Tolerance :   1.0000e-07
  Last Orbital Gradient      ...    1.4004e-05  Tolerance :   1.0000e-04
  Last Orbital Rotation      ...    5.1467e-05  Tolerance :   1.0000e-04


----------------
ORBITAL ENERGIES
----------------

  NO   OCC          E(Eh)            E(eV) 
   0   2.0000     -19.001036      -517.0445 
   1   2.0000     -18.943556      -515.4804 
   2   2.0000     -10.162388      -276.5326 
   3   2.0000     -10.082992      -274.3722 
   4   2.0000     -10.035324      -273.0751 
   5   2.0000     -10.025284      -272.8018 
   6   2.0000     -10.017925      -272.6016 
   7   2.0000     -10.010176      -272.3907 
   8   2.0000      -1.077736       -29.3267 
   9   2.0000      -0.988929       -26.9101 
  10   2.0000      -0.767540       -20.8858 
  11   2.0000      -0.732743       -19.9389 
  12   2.0000      -0.672793       -18.3076 
  13   2.0000      -0.618634       -16.8339 
  14   2.0000      -0.558881       -15.2079 
  15   2.0000      -0.516079       -14.0432 
  16   2.0000      -0.474429       -12.9099 
  17   2.0000      -0.460252       -12.5241 
  18   2.0000      -0.444455       -12.0942 
  19   2.0000      -0.421443       -11.4681 
  20   2.0000      -0.404308       -11.0018 
  21   2.0000      -0.384749       -10.4696 
  22   2.0000      -0.373100       -10.1526 
  23   2.0000      -0.359096        -9.7715 
  24   2.0000      -0.348395        -9.4803 
  25   2.0000      -0.339378        -9.2349 
  26   2.0000      -0.309362        -8.4182 
  27   2.0000      -0.305615        -8.3162 
  28   2.0000      -0.302069        -8.2197 
  29   2.0000      -0.301354        -8.2002 
  30   2.0000      -0.277884        -7.5616 
  31   2.0000      -0.252222        -6.8633 
  32   0.0000      -0.021923        -0.5965 
  33   0.0000       0.077505         2.1090 
  34   0.0000       0.097649         2.6572 
  35   0.0000       0.118551         3.2259 
  36   0.0000       0.128998         3.5102 
  37   0.0000       0.135021         3.6741 
  38   0.0000       0.140140         3.8134 
  39   0.0000       0.146339         3.9821 
  40   0.0000       0.154944         4.2162 
  41   0.0000       0.161994         4.4081 
  42   0.0000       0.178514         4.8576 
*Only the first 10 virtual orbitals were printed.
Total SCF time: 0 days 0 hours 0 min 14 sec 
Finished LeanSCF after  14.2 sec

Maximum memory used throughout the entire LEANSCF-calculation: 30.8 MB


-------------------------------------------------------------------------------
                          DFT DISPERSION CORRECTION                            
                                                                               
                                DFTD4 V3.4.0                                   
-------------------------------------------------------------------------------
-------------------------   ----------------
Dispersion correction           -0.005088540
-------------------------   ----------------

------------------   -----------------
gCP correction             0.011759926
------------------   -----------------

-------------------------   --------------------
FINAL SINGLE POINT ENERGY      -386.241829274693
-------------------------   --------------------

------------------------------------------------------------------------------
                         ORCA SCF GRADIENT CALCULATION
------------------------------------------------------------------------------

Nuc. rep. gradient        (SHARK) ... done (  0.0 sec)
HCore & Overlap gradient  (SHARK) ... done (  0.4 sec)
Split-RIJ-J gradient      (SHARK) ... done (  1.9 sec)
XC gradient                       ... done (  7.5 sec)
CPCM gradient                     ... done (  1.1 sec)
SMD gradient                      ... done (  0.0 sec)
Dispersion correction             ... done (  0.0 sec)

-------------------
DISPERSION GRADIENT
-------------------

   1   C   :   -0.000074617   -0.000043141   -0.000005611
   2   C   :   -0.000066270    0.000018303   -0.000003380
   3   C   :   -0.000053963    0.000036207    0.000033656
   4   C   :    0.000007546    0.000009867   -0.000002865
   5   O   :    0.000010565    0.000007552   -0.000068770
   6   O   :    0.000052713   -0.000009464    0.000029539
   7   C   :    0.000074961   -0.000026212    0.000000279
   8   C   :    0.000079886    0.000013851   -0.000005811
   9   H   :   -0.000032318   -0.000022115    0.000006458
  10   H   :   -0.000029427   -0.000017809   -0.000007330
  11   H   :   -0.000032620   -0.000022679   -0.000010241
  12   H   :   -0.000026727    0.000009418    0.000003819
  13   H   :   -0.000022394    0.000007871   -0.000010609
  14   H   :   -0.000016537    0.000009090    0.000026543
  15   H   :   -0.000016792    0.000031683    0.000014282
  16   H   :    0.000026075   -0.000014744    0.000010845
  17   H   :    0.000026957   -0.000011796   -0.000004579
  18   H   :    0.000028370    0.000003906   -0.000003264
  19   H   :    0.000031620    0.000009793   -0.000008820
  20   H   :    0.000032971    0.000010420    0.000005859

Difference to translation invariance:
           :   -0.0000000000   -0.0000000000   -0.0000000000

Difference to rotation invariance:
           :    0.0000000000   -0.0000000000    0.0000000000

Norm of the Dispersion gradient    ...    0.0002300962
RMS gradient                       ...    0.0000297053
MAX gradient                       ...    0.0000798864
gCP correction                   ... done

------------------
CARTESIAN GRADIENT
------------------

   1   C   :   -0.000888877   -0.005743657    0.000984289
   2   C   :   -0.003685968    0.003926581   -0.001851593
   3   C   :    0.002122328    0.001961642    0.005961201
   4   C   :    0.009655180   -0.003609421   -0.005418779
   5   O   :   -0.000108744   -0.000426863    0.013301927
   6   O   :   -0.001327971   -0.000189013   -0.015394507
   7   C   :   -0.011013776    0.000360893    0.009071543
   8   C   :    0.009482476    0.004606973   -0.002470444
   9   H   :    0.000657423    0.002673105   -0.004178759
  10   H   :    0.004114910    0.002380847    0.002280035
  11   H   :   -0.002694838    0.004132784    0.001857142
  12   H   :    0.001494086   -0.002696248   -0.000563483
  13   H   :    0.001865732   -0.002935228    0.001623117
  14   H   :    0.000899255   -0.000697597   -0.002962721
  15   H   :   -0.001921444   -0.003122005   -0.001620489
  16   H   :   -0.000445758    0.001283423    0.000217018
  17   H   :   -0.001348055    0.002232617   -0.001790221
  18   H   :   -0.005099814    0.001620958    0.001545124
  19   H   :    0.000285633   -0.002910801    0.002888418
  20   H   :   -0.002041779   -0.002848990   -0.003478818

Difference to translation invariance:
           :    0.0000000000   -0.0000000000   -0.0000000000

Difference to rotation invariance:
           :    0.0000098721   -0.0003057676   -0.0003174311

Norm of the Cartesian gradient     ...    0.0346281106
RMS gradient                       ...    0.0044704699
MAX gradient                       ...    0.0153945074

-------
TIMINGS
-------

Total SCF gradient time     ....       11.770 sec

Densities                   ....       0.001 sec  (  0.0%)
One electron gradient       ....       0.368 sec  (  3.1%)
RI-J Coulomb gradient       ....       1.889 sec  ( 16.1%)
XC gradient                 ....       7.471 sec  ( 63.5%)
CPCM gradient               ....       1.067 sec  (  9.1%)
   A-Matrix (El+Nuc)        ....       0.084 sec  (  0.7%)
   Potential                ....       0.983 sec  (  8.4%)
SMD gradient                ....       0.012 sec  (  0.1%)

Maximum memory used throughout the entire SCFGRAD-calculation: 35.4 MB

------------------------------------------------------------------------------
                              ORCA PROPERTY CALCULATIONS
------------------------------------------------------------------------------

GBWName                                 ... xtb_opt.gbw
Number of atoms                         ...     20
Number of basis functions               ...    222
Max core memory                         ...   1024 MB

Electric properties:
Dipole moment                           ... YES
Quadrupole moment                       ...  NO
Static polarizability (Dipole/Dipole)   ...  NO
Static polarizability (Dipole/Quad.)    ...  NO
Static polarizability (Quad./Quad.)     ...  NO
Static polarizability (Velocity)        ...  NO

Atomic electric properties:
Dipole moment                           ...  NO
Quadrupole moment                       ...  NO
Static polarizability                   ...  NO

Choice of electric origin               ... Center of mass
Position of electric origin             ...    -0.000010    -0.000001     0.000005

General magnetic properties:
Magnetizability                         ...  NO

EPR properties:
g-Tensor (aka g-matrix)                 ...  NO
Zero-Field splitting spin-orbit         ...  NO
Zero-field splitting spin-spin          ...  NO
Hyperfine couplings                     ...  NO (   0 nuclei)
Quadrupole couplings                    ...  NO (   0 nuclei)
Contact density                         ...  NO (   0 nuclei)

NMR properties:
Chemical shifts                         ...  NO (   0 nuclei)
Spin-rotation constants                 ...  NO (   0 nuclei)
Spin-spin couplings                     ...  NO (   0 nuclei,    0 pairs)

Choice of magnetic origin               ... GIAO
Position of magnetic origin             ...     0.000000     0.000000     0.000000

Properties with geometric perturbations:
SCF Hessian                             ...  NO
IR spectrum                             ...  NO
VCD spectrum                            ...  NO
X-ray spectroscopy properties:
SCF XES/XAS/RIXS spectra                ...  NO


-------------
DIPOLE MOMENT
-------------

Method             : SCF
Type of density    : Electron Density
Multiplicity       :   1
Irrep              :   0
Energy             :  -386.2485006605004401 Eh
Relativity type    : 
Basis              : AO
                                X                 Y                 Z
Electronic contribution:      2.267450825       0.594709276      -0.095963665
Nuclear contribution   :     -1.958648062      -0.573018291       1.117802903
                        -----------------------------------------
Total Dipole Moment    :      0.308802763       0.021690985       1.021839239
                        -----------------------------------------
Magnitude (a.u.)       :      1.067700836
Magnitude (Debye)      :      2.713879849



--------------------
Rotational spectrum 
--------------------
 
Rotational constants in cm-1:             0.171769             0.032263             0.031959 
Rotational constants in MHz :          5149.498813           967.228992           958.093255 

Dipole components along the rotational axes: 
x,y,z [a.u.] :     0.325398     1.013059    -0.088384 
x,y,z [Debye]:     0.827096     2.574993    -0.224654 

 

Dipole moment calculation done in   0.0 sec 

Maximum memory used throughout the entire PROP-calculation: 13.9 MB

--------------------------------
SUGGESTED CITATIONS FOR THIS RUN
--------------------------------

Below you find a list of papers that are relevant to this ORCA run
We neither can nor want to force you to cite these papers, but we appreciate if you do
You receive ORCA, which is the product of decades of hard work by many enthusiastic individuals, for free
The only thing we kindly ask in return is that you cite our papers,
We deeply appreciate it, if you show your appreciation for ORCA by not just citing the generic ORCA reference.

Please note that relegating all ORCA citations to the supporting information does *not* help us.
SI sections are not indexed - citations you put there will not count into any citation statistics
But we need these citations in order to attract the funding resources that allow us to do what we are doing

Therefore, if you are a happy ORCA user, please consider citing a few of the papers listed below in the main body of your paper

In addition to the list printed below, the program has created the file xtb_opt.bibtex that contains the list in bibtex format
You can import this file easily into all common literature databanks and citation aid programs


List of essential papers. We consider these as the minimum necessary citations

  1. Neese,F.
     Software update: the ORCA program system, version 5.0
     WIRES Comput. Molec. Sci., 2022 12(1)e1606
     doi.org/10.1002/wcms.1606
  2. Grimme,S.; Hansen,A.; Ehlert,S.; Mewes,J.
     r2SCAN-3c: A 'Swiss army knife' composite electronic-structure method
     J. Chem. Phys., 2021 154 064103
     doi.org/10.1063/5.0040021

List of papers to cite with high priority. The work reported in these papers was absolutely
necessary for this run to complete.
Our perspective: the developers of density functionals and basis sets usually get cited in chemistry papers
Good! But without the algorithms to do something with them, the functionals or basis sets would not do anything.
Hence, in our opinion, the algorithm design and method developments papers are equally worthy of getting cited

  1. Neese,F.
     An improvement of the resolution of the identity approximation for the formation of the Coulomb matrix
     J. Comp. Chem., 2003 24(14)1740-1747
     doi.org/10.1002/jcc.10318
  2. Garcia-Rates,M.; Neese,F.
     Effect of the Solute Cavity on the Solvation Energy and its Derivatives within the Framework of the Gaussian Charge Scheme
     J. Comput. Chem., 2020 41 922-939
     doi.org/10.1002/jcc.26139
  3. Neese,F.
     The SHARK Integral Generation and Digestion System
     J. Comp. Chem., 2022  1-16
     doi.org/10.1002/jcc.26942
  4. Lehtola,S.; Steigemann,C.; Oliveira,M.; Marques,M.
     Recent developments in Libxc - A comprehensive library of functionals for density functional theory
     Software X, 2018 7 
     doi.org/10.1016/j.softx.2017.11.002
  5. Caldeweyher,E.; Bannwarth,C.; Grimme,S.
     Extension of the D3 dispersion coefficient model
     J. Chem. Phys., 2017 147 034112-XXXX
     doi.org/10.1063/1.4993215
  6. Caldeweyher,E.; Ehlert,S.; Hansen,A.; Neugebauer,H.; Spicher,S.; Bannwarth,C.; Grimme,S.
     A generally applicable atomic-charge dependent London dispersion correction
     J. Chem. Phys., 2019 150 154122-XXXX
     doi.org/10.1063/1.5090222
  7. Caldeweyher,E.; Mewes,J.; Ehlert,S.; Grimme,S.
     Extension and evaluation of the D4 London-dispersion model for periodic systems
     Phys. Chem. Chem. Phys., 2020 22(16)8499-8512
     doi.org/10.1039/D0CP00502A

List of suggested additional citations. These are papers that are important in the 'surrounding' of 
of this run, or papers that preceded the highly important papers. If you like your results we are grateful for a citation.

  1. Neese,F.
     The ORCA program system
     WIRES Comput. Molec. Sci., 2012 2(1)73-78
     doi.org/10.1002/wcms.81
  2. Neese,F.
     Software update: the ORCA program system, version 4.0
     WIRES Comput. Molec. Sci., 2018 8(1)1-6
     doi.org/10.1002/wcms.1327
  3. Neese,F.; Wennmohs,F.; Becker,U.; Riplinger,C.
     The ORCA quantum chemistry program package
     J. Chem. Phys., 2020 152 Art. No. L224108
     doi.org/10.1063/5.0004608

List of optional additional citations

  1. Neese,F.
     Approximate second-order SCF convergence for spin unrestricted wavefunctions
     Chem. Phys. Lett., 2000 325(1-3)93-98
     doi.org/10.1016/s0009-2614(00)00662-x

Timings for individual modules:

Sum of individual times          ...       28.046 sec (=   0.467 min)
Startup calculation              ...        1.427 sec (=   0.024 min)   5.1 %
SCF iterations                   ...       14.574 sec (=   0.243 min)  52.0 %
Property calculations            ...        0.129 sec (=   0.002 min)   0.5 %
SCF Gradient evaluation          ...       11.916 sec (=   0.199 min)  42.5 %
                             ****ORCA TERMINATED NORMALLY****
TOTAL RUN TIME: 0 days 0 hours 0 minutes 28 seconds 948 msec
  ------------------------------------------------------------------------
          * successful ORCA run, taking over control again...

         :::::::::::::::::::::::::::::::::::::::::::::::::::::
         ::                  ORCA SUMMARY                   ::
         :::::::::::::::::::::::::::::::::::::::::::::::::::::
         :: total energy            -386.241829274693 Eh    ::
         :: gradient norm              0.034628110569 Eh/a0 ::
         :: HOMO-LUMO gap              0.000000000000 eV    ::
         :::::::::::::::::::::::::::::::::::::::::::::::::::::

      ----------------------------------------------------------- 
     |                       L-ANC optimizer                     |
      ----------------------------------------------------------- 
          low memory version by Sebastian Ehlert

          ...................................................
          :                      SETUP                      :
          :.................................................:
          :   energy convergence        0.5000000E-05 Eh    :
          :   grad. convergence         0.1000000E-02 Eh/a0 :
          :   optimization log               true           :
          :   writing optlog all                1     steps :
          :   Hessian reset                     8     steps :
          :   maximium step len.        1.0000000     a0    :
          :   LBFGS images                      8           :
          ...................................................
 * calculating model hessian...
Using Lindh-Hessian (1995)
 Shifting diagonal of input Hessian by   1.000000000000000E-002
 Lowest  eigenvalues of input Hessian
    0.000000    0.000000    0.000000    0.000000    0.000000    0.000000
    0.011365    0.011901    0.014671    0.015216    0.018503    0.020489
    0.025959    0.027384    0.039463    0.042377    0.052708    0.055929
 Highest eigenvalues
    1.221047    1.239596    1.260977    1.320151    1.803057    2.333752
 

........................................................................
.............................. CYCLE    1 ..............................
........................................................................
                         * ORCA takes the control...
  ------------------------------------------------------------------------

                                 *****************
                                 * O   R   C   A *
                                 *****************

                                            #,                                       
                                            ###                                      
                                            ####                                     
                                            #####                                    
                                            ######                                   
                                           ########,                                 
                                     ,,################,,,,,                         
                               ,,#################################,,                 
                          ,,##########################################,,             
                       ,#########################################, ''#####,          
                    ,#############################################,,   '####,        
                  ,##################################################,,,,####,       
                ,###########''''           ''''###############################       
              ,#####''   ,,,,##########,,,,          '''####'''          '####       
            ,##' ,,,,###########################,,,                        '##       
           ' ,,###''''                  '''############,,,                           
         ,,##''                                '''############,,,,        ,,,,,,###''
      ,#''                                            '''#######################'''  
     '                                                          ''''####''''         
             ,#######,   #######,   ,#######,      ##                                
            ,#'     '#,  ##    ##  ,#'     '#,    #''#        ,####,   ,####,        
            ##       ##  ##   ,#'  ##            #'  '#       #'       #'  '#        
            ##       ##  #######   ##           ,######,      #####,   #    #        
            '#,     ,#'  ##    ##  '#,     ,#' ,#      #,     #,   #   #,  ,#        
             '#######'   ##     ##  '#######'  #'      '#     '####' # '####'        



                #########################################################
                #                        -***-                          #
                #          Department of theory and spectroscopy        #
                #                                                       #
                #                      Frank Neese                      #
                #                                                       #
                #     Directorship, Architecture, Infrastructure        #
                #                    SHARK, DRIVERS                     #
                #        Core code/Algorithms in most modules           #
                #                                                       #
                #        Max Planck Institute fuer Kohlenforschung      #
                #                Kaiser Wilhelm Platz 1                 #
                #                 D-45470 Muelheim/Ruhr                 #
                #                      Germany                          #
                #                                                       #
                #                  All rights reserved                  #
                #                        -***-                          #
                #########################################################


                         Program Version 6.0.0  -   RELEASE  -


 With contributions from (in alphabetic order):
   Daniel Aravena         : Magnetic Suceptibility
   Michael Atanasov       : Ab Initio Ligand Field Theory (pilot matlab implementation)
   Alexander A. Auer      : GIAO ZORA, VPT2 properties, NMR spectrum
   Ute Becker             : All parallelization in ORCA, NUMFREQ, NUMCALC
   Giovanni Bistoni       : ED, misc. LED, open-shell LED, HFLD
   Martin Brehm           : Molecular dynamics
   Dmytro Bykov           : pre 5.0 version of the SCF Hessian
   Marcos Casanova-Páez   : Triplet and SCS-CIS(D). UHF-(DLPNO)-IP/EA/STEOM-CCSD. UHF-CVS-IP/STEOM-CCSD
   Vijay G. Chilkuri      : MRCI spin determinant printing, contributions to CSF-ICE
   Pauline Colinet        : FMM embedding
   Dipayan Datta          : RHF DLPNO-CCSD density
   Achintya Kumar Dutta   : EOM-CC, STEOM-CC
   Nicolas Foglia         : Exact transition moments, OPA infrastructure, MCD improvements
   Dmitry Ganyushin       : Spin-Orbit,Spin-Spin,Magnetic field MRCI
   Miquel Garcia          : C-PCM and meta-GGA Hessian, CCSD/C-PCM, Gaussian charge scheme
   Tiago L. C. Gouveia    : GS-ROHF, GS-ROCIS
   Yang Guo               : DLPNO-NEVPT2, F12-NEVPT2, CIM, IAO-localization
   Andreas Hansen         : Spin unrestricted coupled pair/coupled cluster methods
   Ingolf Harden          : AUTO-CI MPn and infrastructure 
   Benjamin Helmich-Paris : MC-RPA, TRAH-(SCF,CASSCF), AVAS, COSX integrals, SCF dyn. polar.
   Lee Huntington         : MR-EOM, pCC
   Robert Izsak           : Overlap fitted RIJCOSX, COSX-SCS-MP3, EOM
   Riya Kayal             : Wick's Theorem for AUTO-CI, AUTO-CI UHF-CCSDT
   Emily Kempfer          : AUTO-CI, RHF CISDT and CCSDT
   Christian Kollmar      : KDIIS, OOCD, Brueckner-CCSD(T), CCSD density, CASPT2, CASPT2-K, improved NEVPT2
   Axel Koslowski         : Symmetry handling
   Simone Kossmann        : Meta GGA functionals, TD-DFT gradient, OOMP2, (MP2 Hessian; deprecated post 5.0)
   Lucas Lang             : DCDCAS
   Marvin Lechner         : AUTO-CI (C++ implementation), FIC-MRCC
   Spencer Leger          : CASSCF response
   Dagmar Lenk            : GEPOL surface, SMD, ORCA-2-JSON
   Dimitrios Liakos       : Extrapolation schemes; Compound Job, initial MDCI parallelization
   Dimitrios Manganas     : Further ROCIS development; embedding schemes. LFT, Crystal Embedding
   Dimitrios Pantazis     : SARC Basis sets
   Anastasios Papadopoulos: AUTO-CI, single reference methods and gradients
   Taras Petrenko         : pre 6.0 DFT Hessian and TD-DFT gradient, (ASA, deprecated), ECA, 1-Electron XAS/XES, NRVS
   Peter Pinski           : DLPNO-MP2, DLPNO-MP2 Gradient
   Christoph Reimann      : Effective Core Potentials
   Marius Retegan         : Local ZFS, SOC
   Christoph Riplinger    : Optimizer, TS searches, QM/MM, DLPNO-CCSD(T), (RO)-DLPNO pert. Triples
   Michael Roemelt        : Original ROCIS implementation
   Masaaki Saitow         : Open-shell DLPNO-CCSD energy and density
   Barbara Sandhoefer     : DKH picture change effects
   Kantharuban Sivalingam : CASSCF convergence/infrastructure, NEVPT2 and variants, FIC-MRCI
   Bernardo de Souza      : ESD, SOC TD-DFT
   Georgi Stoychev        : AutoAux, RI-MP2 NMR, DLPNO-MP2 response, X2C
   Van Anh Tran           : RI-MP2 g-tensors
   Willem Van den Heuvel  : Paramagnetic NMR
   Zikuan Wang            : NOTCH, Electric field optimization 
   Frank Wennmohs         : Technical directorship and infrastructure
   Hang Xu                : AUTO-CI-Response properties 


 We gratefully acknowledge several colleagues who have allowed us to
 interface, adapt or use parts of their codes:
   Stefan Grimme, W. Hujo, H. Kruse, P. Pracht,  : VdW corrections, initial TS optimization,
                  C. Bannwarth, S. Ehlert,         DFT functionals, gCP, sTDA/sTD-DF
                  L. Wittmann, M. Mueller
   Ed Valeev, F. Pavosevic, A. Kumar             : LibInt (2-el integral package), F12 methods
   Garnet Chan, S. Sharma, J. Yang, R. Olivares  : DMRG
   Ulf Ekstrom                                   : XCFun DFT Library
   Mihaly Kallay                                 : mrcc  (arbitrary order and MRCC methods)
   Frank Weinhold                                : gennbo (NPA and NBO analysis)
   Simon Mueller                                 : openCOSMO-RS
   Christopher J. Cramer and Donald G. Truhlar   : smd solvation model
   Lars Goerigk                                  : TD-DFT with DH, B97 family of functionals
   V. Asgeirsson, H. Jonsson                     : NEB implementation
   FAccTs GmbH                                   : IRC, NEB, NEB-TS, DLPNO-Multilevel, CI-OPT
                                                   MM, QMMM, 2- and 3-layer-ONIOM, Crystal-QMMM,
                                                   LR-CPCM, SF, NACMEs, symmetry and pop. for TD-DFT,
                                                   nearIR, NL-DFT gradient (VV10), updates on ESD,
                                                   ML-optimized integration grids, MBIS, APM,
                                                   GOAT, DOCKER, SOLVATOR, interface openCOSMO-RS
   S Lehtola, MJT Oliveira, MAL Marques          : LibXC Library
   Liviu Ungur et al                             : ANISO software


 Your calculation uses the libint2 library for the computation of 2-el integrals
 For citations please refer to: http://libint.valeyev.net

 Your ORCA version has been built with support for libXC version: 6.2.2
 For citations please refer to: https://libxc.gitlab.io

 This ORCA versions uses:
   CBLAS   interface :  Fast vector & matrix operations
   LAPACKE interface :  Fast linear algebra routines
   SCALAPACK package :  Parallel linear algebra routines
   Shared memory     :  Shared parallel matrices
   BLAS/LAPACK       :  OpenBLAS 0.3.27  USE64BITINT DYNAMIC_ARCH NO_AFFINITY SkylakeX SINGLE_THREADED
        Core in use  :  SkylakeX
   Copyright (c) 2011-2014, The OpenBLAS Project




***************************************
The coordinates will be read from file: xtb_opt.xyz
***************************************


Your calculation utilizes the geometrical counterpoise correction gCP
Please cite in your paper:
H.Kruse, S. Grimme J.Chem.Phys., 136, (2012), 154101 
   

Your calculation utilizes the atom-pairwise dispersion correction
based on EEQ partial charges (D4)


Your calculation utilizes the SMD solvation module
Please cite in your paper:
A.V. Marenich, C.J. Cramer, D.G. Truhlar J. Phys. Chem. B, 113, (2009), 6378 

================================================================================

----- Orbital basis set information -----
Your calculation utilizes the basis: def2-mTZVPP
   Stefan Grimme, Andreas Hansen, Sebastian Ehlert, and Jan-Michael Mewes 
   J. Chem. Phys. 154, 064103 (2021). DOI: 10.1063/5.0040021

----- AuxJ basis set information -----
Your calculation utilizes the auxiliary basis: def2/J
   F. Weigend, Phys. Chem. Chem. Phys. 8, 1057 (2006).

================================================================================
                                        WARNINGS
                       Please study these warnings very carefully!
================================================================================

WARNING: Old DensityContainer found on disk!
         Will remove this file - 
         If you want to keep old densities, please start your calculation with a different basename. 

Using LibXC functional ID 497 : Re-regularized SCAN exchange by Furness et al
[ 1]  J. W. Furness, A. D. Kaplan, J. Ning, J. P. Perdew, and J. Sun.,  J. Phys. Chem. Lett. 11, 8208-8215 (2020)
[ 2]  J. W. Furness, A. D. Kaplan, J. Ning, J. P. Perdew, and J. Sun.,  J. Phys. Chem. Lett. 11, 9248-9248 (2020)
Using LibXC functional ID 498 : Re-regularized SCAN correlation by Furness et al
[ 1]  J. W. Furness, A. D. Kaplan, J. Ning, J. P. Perdew, and J. Sun.,  J. Phys. Chem. Lett. 11, 8208-8215 (2020)
[ 2]  J. W. Furness, A. D. Kaplan, J. Ning, J. P. Perdew, and J. Sun.,  J. Phys. Chem. Lett. 11, 9248-9248 (2020)
Using LibXC functional ID 497 : Re-regularized SCAN exchange by Furness et al
[ 1]  J. W. Furness, A. D. Kaplan, J. Ning, J. P. Perdew, and J. Sun.,  J. Phys. Chem. Lett. 11, 8208-8215 (2020)
[ 2]  J. W. Furness, A. D. Kaplan, J. Ning, J. P. Perdew, and J. Sun.,  J. Phys. Chem. Lett. 11, 9248-9248 (2020)
Using LibXC functional ID 498 : Re-regularized SCAN correlation by Furness et al
[ 1]  J. W. Furness, A. D. Kaplan, J. Ning, J. P. Perdew, and J. Sun.,  J. Phys. Chem. Lett. 11, 8208-8215 (2020)
[ 2]  J. W. Furness, A. D. Kaplan, J. Ning, J. P. Perdew, and J. Sun.,  J. Phys. Chem. Lett. 11, 9248-9248 (2020)

================================================================================
                                       INPUT FILE
================================================================================
NAME = xtb_opt.inp
|  1> ! r2scan-3c def2/J RI DEFGRID2 scfconv7 ENGRAD tightSCF miniprint
|  2> %cpcm
|  3>     smd true
|  4>     smdsolvent "water"
|  5> end
|  6> * xyzfile 0 1 xtb_opt.xyz
|  7> 
|  8>                          ****END OF INPUT****
================================================================================

                     *******************************
                     * Energy+Gradient Calculation *
                     *******************************

---------------------------------
CARTESIAN COORDINATES (ANGSTROEM)
---------------------------------
  C     -2.835916   -1.108688   -0.121846
  C     -2.520989    0.384417   -0.064725
  C     -1.223077    0.667501    0.690004
  C     -0.007987    0.181388   -0.056727
  O      0.093874    0.132463   -1.271211
  O      0.972688   -0.174852    0.783523
  C      2.232880   -0.604778    0.212768
  C      3.112887    0.589367   -0.107003
  H     -2.927605   -1.523000    0.885966
  H     -3.773349   -1.291510   -0.652148
  H     -2.043474   -1.655288   -0.641806
  H     -3.334816    0.919506    0.432067
  H     -2.436835    0.786617   -1.079024
  H     -1.232736    0.209054    1.682057
  H     -1.084426    1.746453    0.829823
  H      2.678749   -1.233036    0.985091
  H      2.036658   -1.208286   -0.677722
  H      4.082364    0.231277   -0.459170
  H      2.663220    1.204525   -0.889721
  H      3.267882    1.202872    0.783400

----------------------------
CARTESIAN COORDINATES (A.U.)
----------------------------
  NO LB      ZA    FRAG     MASS         X           Y           Z
   0 C     6.0000    0    12.011   -5.359104   -2.095116   -0.230255
   1 C     6.0000    0    12.011   -4.763979    0.726443   -0.122312
   2 C     6.0000    0    12.011   -2.311281    1.261395    1.303918
   3 C     6.0000    0    12.011   -0.015094    0.342774   -0.107199
   4 O     8.0000    0    15.999    0.177397    0.250318   -2.402241
   5 O     8.0000    0    15.999    1.838114   -0.330422    1.480644
   6 C     6.0000    0    12.011    4.219532   -1.142864    0.402074
   7 C     6.0000    0    12.011    5.882504    1.113742   -0.202206
   8 H     1.0000    0     1.008   -5.532373   -2.878053    1.674233
   9 H     1.0000    0     1.008   -7.130597   -2.440600   -1.232381
  10 H     1.0000    0     1.008   -3.861606   -3.128040   -1.212838
  11 H     1.0000    0     1.008   -6.301889    1.737614    0.816488
  12 H     1.0000    0     1.008   -4.604951    1.486490   -2.039060
  13 H     1.0000    0     1.008   -2.329533    0.395055    3.178626
  14 H     1.0000    0     1.008   -2.049268    3.300318    1.568138
  15 H     1.0000    0     1.008    5.062102   -2.330100    1.861552
  16 H     1.0000    0     1.008    3.848725   -2.283329   -1.280710
  17 H     1.0000    0     1.008    7.714549    0.437051   -0.867706
  18 H     1.0000    0     1.008    5.032757    2.276223   -1.681330
  19 H     1.0000    0     1.008    6.175403    2.273098    1.480412

------------------------------------------------------------------------------
                   ___                                                        
                  /   \      - P O W E R E D   B Y -                         
                 /     \                                                     
                 |  |  |   _    _      __       _____    __    __             
                 |  |  |  | |  | |    /  \     |  _  \  |  |  /  |          
                  \  \/   | |  | |   /    \    | | | |  |  | /  /          
                 / \  \   | |__| |  /  /\  \   | |_| |  |  |/  /          
                |  |  |   |  __  | /  /__\  \  |    /   |      \           
                |  |  |   | |  | | |   __   |  |    \   |  |\   \          
                \     /   | |  | | |  |  |  |  | |\  \  |  | \   \       
                 \___/    |_|  |_| |__|  |__|  |_| \__\ |__|  \__/        
                                                                              
                      - O R C A' S   B I G   F R I E N D -                    
                                      &                                       
                       - I N T E G R A L  F E E D E R -                       
                                                                              
 v1 FN, 2020, v2 2021, v3 2022-2024                                           
------------------------------------------------------------------------------


----------------------
SHARK INTEGRAL PACKAGE
----------------------

Number of atoms                             ...     20
Number of basis functions                   ...    222
Number of shells                            ...    110
Maximum angular momentum                    ...      2
Integral batch strategy                     ... SHARK/LIBINT Hybrid
RI-J (if used) integral strategy            ... SPLIT-RIJ (Revised 2003 algorithm where possible)
Printlevel                                  ...      1
Contraction scheme used                     ... SEGMENTED contraction
Prescreening option                         ... SCHWARTZ
   Thresh                                   ... 3.000e-11
   Tcut                                     ... 1.000e-12
   Tpresel                                  ... 1.000e-12 
Coulomb Range Separation                    ... NOT USED
Exchange Range Separation                   ... NOT USED
Multipole approximations                    ... NOT USED
Finite Nucleus Model                        ... NOT USED
CABS basis                                  ... NOT available
Auxiliary Coulomb fitting basis             ... AVAILABLE
   # of basis functions in Aux-J            ...    524
   # of shells in Aux-J                     ...    180
   Maximum angular momentum in Aux-J        ...      4
Auxiliary J/K fitting basis                 ... NOT available
Auxiliary Correlation fitting basis         ... NOT available
Auxiliary 'external' fitting basis          ... NOT available

Checking pre-screening integrals            ... done (  0.0 sec) Dimension = 110
Check shell pair data                       ... done (  0.0 sec)
Shell pair information
Shell pair cut-off parameter TPreSel        ...   1.0e-12
Total number of shell pairs                 ...      6105
Shell pairs after pre-screening             ...      5360
Total number of primitive shell pairs       ...     21533
Primitive shell pairs kept                  ...     13461
          la=0 lb=0:   1797 shell pairs
          la=1 lb=0:   2017 shell pairs
          la=1 lb=1:    588 shell pairs
          la=2 lb=0:    579 shell pairs
          la=2 lb=1:    327 shell pairs
          la=2 lb=2:     52 shell pairs

Calculating one electron integrals          ... done (  0.0 sec)
Calculating RI/J V-Matrix + Cholesky decomp.... done (  0.1 sec)
Calculating Nuclear repulsion               ... done (  0.0 sec) ENN=    393.273988607936 Eh

Diagonalization of the overlap matrix:
Smallest eigenvalue                        ... 1.573e-04
Time for diagonalization                   ...    0.006 sec
Threshold for overlap eigenvalues          ... 1.000e-07
Number of eigenvalues below threshold      ... 0
Time for construction of square roots      ...    0.027 sec
Total time needed                          ...    0.043 sec

-------------------
DFT GRID GENERATION
-------------------

General Integration Accuracy     IntAcc      ... 4.388
Radial Grid Type                 RadialGrid  ... OptM3 with GC (2021)
Angular Grid (max. ang.)         AngularGrid ... 4 (Lebedev-302)
Angular grid pruning method      GridPruning ... 4 (adaptive)
Weight generation scheme         WeightScheme... mBecke (2022)
Basis function cutoff            BFCut       ... 1.0000e-11
Integration weight cutoff        WCut        ... 1.0000e-14
Partially contracted basis set               ... off
Rotationally invariant grid construction     ... off
Angular grids for H and He will be reduced by one unit
Diffuse basis detected: some atoms will have their outermost
                        angular grid increased by 1.

Total number of grid points                  ...    87393
Total number of batches                      ...     1377
Average number of points per batch           ...       63
Average number of grid points per atom       ...     4370
Initializing property integral containers    ... done (  0.0 sec)

SHARK setup successfully completed in   1.3 seconds

Maximum memory used throughout the entire STARTUP-calculation: 39.4 MB
Occupation numbers will be reassigned to an Aufbau configuration
             **** ENERGY FILE WAS UPDATED (xtb_opt.en.tmp) ****
Finished Guess after   0.4 sec
Maximum memory used throughout the entire GUESS-calculation: 15.2 MB
--------------------
CPCM SOLVATION MODEL
--------------------
CPCM parameters:
  Epsilon                                         ...      78.3550
  Refrac                                          ...       1.3328
  Rsolv                                           ...       1.3000
  Surface type                                    ... GAUSSIAN VDW
  Discretization scheme                           ... Constant charge density
    Threshold for H atoms                         ...       5.0000 (charges/Ang^2)
    Threshold for non-H atoms                     ...       5.0000 (charges/Ang^2)
  Epsilon function type                           ...         CPCM
Solvent:                                          ... WATER
SMD-CDS solvent descriptors:
  Soln                                            ...       1.3328
  Soln25                                          ...       1.3323
  Sola                                            ...       0.0000
  Solb                                            ...       0.0000
  Solg                                            ...       0.0000
  Solc                                            ...       0.0000
  Solh                                            ...       0.0000
Radii:
  Scheme                                          ... Element-dependent radii
  Radius for C  used is    3.4960 Bohr (=   1.8500 Ang.)
  Radius for O  used is    2.8724 Bohr (=   1.5200 Ang.)
  Radius for H  used is    2.2677 Bohr (=   1.2000 Ang.)
Calculating surface                               ...        done! (  0.0s)
Cavity surface points                             ...         1510
Cavity Volume                                     ...     882.8734
Cavity Surface-area                               ...     590.2220
Calculating surface distance matrix               ...        done! (  0.0s)
Performing Cholesky decomposition & store         ...        done! (  0.1s)
Overall time for CPCM initialization              ...                 0.1s

----------------------------------------D-I-I-S--------------------------------------------
Iteration    Energy (Eh)           Delta-E    RMSDP     MaxDP     DIISErr   Damp  Time(sec)
-------------------------------------------------------------------------------------------
               ***  Starting incremental Fock matrix formation  ***
    1    -386.2569706982188222     0.00e+00  6.54e-05  1.09e-03  5.19e-03  0.700   3.7
    2    -386.2570653449293445    -9.46e-05  5.78e-05  1.07e-03  3.35e-03  0.700   3.2
                               ***Turning on AO-DIIS***
                              *** Initializing SOSCF ***
---------------------------------------S-O-S-C-F--------------------------------------
Iteration    Energy (Eh)           Delta-E    RMSDP     MaxDP     MaxGrad    Time(sec)
--------------------------------------------------------------------------------------
    3    -386.2571330347053049    -6.77e-05  1.47e-04  2.67e-03  2.10e-03     3.2
               *** Restarting incremental Fock matrix formation ***
    4    -386.2572878464837345    -1.55e-04  3.11e-05  1.06e-03  2.10e-04     3.7
    5    -386.2572835553781374     4.29e-06  1.97e-05  7.48e-04  5.74e-04     3.3
    6    -386.2572900640853391    -6.51e-06  1.12e-05  3.91e-04  1.13e-04     3.1
    7    -386.2572896591943277     4.05e-07  7.18e-06  2.55e-04  1.58e-04     3.0
    8    -386.2572902568686573    -5.98e-07  2.22e-06  5.93e-05  2.45e-05     2.9
                  *** Gradient check signals convergence ***

               *****************************************************
               *                     SUCCESS                       *
               *           SCF CONVERGED AFTER   8 CYCLES          *
               *****************************************************


SMD CDS free energy correction energy :                 4.86604     Kcal/mol
Total Energy after SMD CDS correction =              -386.249535727 Eh
             **** ENERGY FILE WAS UPDATED (xtb_opt.en.tmp) ****

----------------
TOTAL SCF ENERGY
----------------

Total Energy       :       -386.24953572688406 Eh          -10510.38420 eV

Components:
Nuclear Repulsion  :        393.27398860793579 Eh           10701.52929 eV
Electronic Energy  :       -779.51574566421039 Eh          -21211.70182 eV
One Electron Energy:      -1304.06515026595821 Eh          -35485.41678 eV
Two Electron Energy:        524.54940460174782 Eh           14273.71496 eV
CPCM Dielectric    :         -0.01553320059404 Eh              -0.42268 eV
SMD CDS (Gcds)     :          0.00775452998459 Eh               0.21101 eV

Virial components:
Potential Energy   :       -770.74850294230555 Eh          -20973.13302 eV
Kinetic Energy     :        384.49896721542149 Eh           10462.74881 eV
Virial Ratio       :          2.00455285621218

DFT components:
N(Alpha)           :       32.000017234850 electrons
N(Beta)            :       32.000017234850 electrons
N(Total)           :       64.000034469699 electrons
E(X)               :      -52.050346702814 Eh       
E(C)               :       -2.036650036439 Eh       
E(XC)              :      -54.086996739254 Eh       

CPCM Solvation Model Properties:
Surface-charge          :         -0.04731144103592
Corrected charge        :          0.00000000000000
Outlying charge corr.   :          0.00016846295262 Eh               0.00458 eV
Free-energy (cav+disp)  :          0.00775452998459 Eh               0.21101 eV

---------------
SCF CONVERGENCE
---------------

  Last Energy change         ...    5.9767e-07  Tolerance :   1.0000e-07
  Last MAX-Density change    ...    5.9333e-05  Tolerance :   1.0000e-07
  Last RMS-Density change    ...    2.2153e-06  Tolerance :   5.0000e-09
  Last DIIS Error            ...    2.0974e-03  Tolerance :   1.0000e-07
  Last Orbital Gradient      ...    2.4483e-05  Tolerance :   1.0000e-04
  Last Orbital Rotation      ...    5.4920e-05  Tolerance :   1.0000e-04


----------------
ORBITAL ENERGIES
----------------

  NO   OCC          E(Eh)            E(eV) 
   0   2.0000     -19.001298      -517.0516 
   1   2.0000     -18.944618      -515.5093 
   2   2.0000     -10.164110      -276.5795 
   3   2.0000     -10.083775      -274.3935 
   4   2.0000     -10.037100      -273.1234 
   5   2.0000     -10.027056      -272.8501 
   6   2.0000     -10.019750      -272.6513 
   7   2.0000     -10.012871      -272.4641 
   8   2.0000      -1.072105       -29.1735 
   9   2.0000      -0.985592       -26.8193 
  10   2.0000      -0.766626       -20.8609 
  11   2.0000      -0.731684       -19.9101 
  12   2.0000      -0.672059       -18.2876 
  13   2.0000      -0.616366       -16.7722 
  14   2.0000      -0.559608       -15.2277 
  15   2.0000      -0.515644       -14.0314 
  16   2.0000      -0.473570       -12.8865 
  17   2.0000      -0.458392       -12.4735 
  18   2.0000      -0.442957       -12.0535 
  19   2.0000      -0.419904       -11.4262 
  20   2.0000      -0.403511       -10.9801 
  21   2.0000      -0.383467       -10.4347 
  22   2.0000      -0.371842       -10.1183 
  23   2.0000      -0.357935        -9.7399 
  24   2.0000      -0.348979        -9.4962 
  25   2.0000      -0.338288        -9.2053 
  26   2.0000      -0.309461        -8.4209 
  27   2.0000      -0.306772        -8.3477 
  28   2.0000      -0.302533        -8.2323 
  29   2.0000      -0.300769        -8.1844 
  30   2.0000      -0.278268        -7.5721 
  31   2.0000      -0.252347        -6.8667 
  32   0.0000      -0.024931        -0.6784 
  33   0.0000       0.076986         2.0949 
  34   0.0000       0.093250         2.5375 
  35   0.0000       0.118151         3.2150 
  36   0.0000       0.128001         3.4831 
  37   0.0000       0.134834         3.6690 
  38   0.0000       0.138775         3.7763 
  39   0.0000       0.144884         3.9425 
  40   0.0000       0.154234         4.1969 
  41   0.0000       0.160873         4.3776 
  42   0.0000       0.176961         4.8154 
*Only the first 10 virtual orbitals were printed.
Total SCF time: 0 days 0 hours 0 min 26 sec 
Finished LeanSCF after  27.0 sec

Maximum memory used throughout the entire LEANSCF-calculation: 30.8 MB


-------------------------------------------------------------------------------
                          DFT DISPERSION CORRECTION                            
                                                                               
                                DFTD4 V3.4.0                                   
-------------------------------------------------------------------------------
-------------------------   ----------------
[...]
  Last RMS-Density change    ...    6.6399e-07  Tolerance :   5.0000e-09
  Last DIIS Error            ...    3.1792e-05  Tolerance :   1.0000e-07
  Last Orbital Gradient      ...    4.0540e-06  Tolerance :   1.0000e-04
  Last Orbital Rotation      ...    9.6083e-06  Tolerance :   1.0000e-04


----------------
ORBITAL ENERGIES
----------------

  NO   OCC          E(Eh)            E(eV) 
   0   2.0000     -19.000524      -517.0305 
   1   2.0000     -18.944997      -515.5196 
   2   2.0000     -10.164597      -276.5927 
   3   2.0000     -10.084297      -274.4077 
   4   2.0000     -10.037906      -273.1453 
   5   2.0000     -10.028003      -272.8758 
   6   2.0000     -10.020474      -272.6710 
   7   2.0000     -10.013682      -272.4861 
   8   2.0000      -1.067586       -29.0505 
   9   2.0000      -0.983679       -26.7673 
  10   2.0000      -0.766087       -20.8463 
  11   2.0000      -0.731312       -19.9000 
  12   2.0000      -0.672434       -18.2979 
  13   2.0000      -0.614437       -16.7197 
  14   2.0000      -0.560204       -15.2439 
  15   2.0000      -0.513968       -13.9858 
  16   2.0000      -0.473043       -12.8722 
  17   2.0000      -0.457014       -12.4360 
  18   2.0000      -0.441368       -12.0102 
  19   2.0000      -0.419679       -11.4201 
  20   2.0000      -0.403189       -10.9713 
  21   2.0000      -0.384019       -10.4497 
  22   2.0000      -0.371566       -10.1108 
  23   2.0000      -0.357601        -9.7308 
  24   2.0000      -0.349900        -9.5213 
  25   2.0000      -0.337470        -9.1830 
  26   2.0000      -0.309573        -8.4239 
  27   2.0000      -0.307225        -8.3600 
  28   2.0000      -0.302902        -8.2424 
  29   2.0000      -0.300509        -8.1773 
  30   2.0000      -0.279005        -7.5921 
  31   2.0000      -0.252184        -6.8623 
  32   0.0000      -0.025989        -0.7072 
  33   0.0000       0.076759         2.0887 
  34   0.0000       0.088079         2.3967 
  35   0.0000       0.118110         3.2139 
  36   0.0000       0.127660         3.4738 
  37   0.0000       0.135683         3.6921 
  38   0.0000       0.138887         3.7793 
  39   0.0000       0.143242         3.8978 
  40   0.0000       0.152824         4.1586 
  41   0.0000       0.161105         4.3839 
  42   0.0000       0.175929         4.7873 
*Only the first 10 virtual orbitals were printed.
Total SCF time: 0 days 0 hours 0 min 8 sec 
Finished LeanSCF after   8.4 sec

Maximum memory used throughout the entire LEANSCF-calculation: 31.0 MB


-------------------------------------------------------------------------------
                          DFT DISPERSION CORRECTION                            
                                                                               
                                DFTD4 V3.4.0                                   
-------------------------------------------------------------------------------
-------------------------   ----------------
Dispersion correction           -0.005070386
-------------------------   ----------------

------------------   -----------------
gCP correction             0.011531711
------------------   -----------------

-------------------------   --------------------
FINAL SINGLE POINT ENERGY      -386.243356306383
-------------------------   --------------------

------------------------------------------------------------------------------
                         ORCA SCF GRADIENT CALCULATION
------------------------------------------------------------------------------

Nuc. rep. gradient        (SHARK) ... done (  0.0 sec)
HCore & Overlap gradient  (SHARK) ... done (  0.3 sec)
Split-RIJ-J gradient      (SHARK) ... done (  1.9 sec)
XC gradient                       ... done (  7.5 sec)
CPCM gradient                     ... done (  1.1 sec)
SMD gradient                      ... done (  0.0 sec)
Dispersion correction             ... done (  0.0 sec)

-------------------
DISPERSION GRADIENT
-------------------

   1   C   :   -0.000074771   -0.000043484   -0.000006342
   2   C   :   -0.000066351    0.000018849   -0.000003106
   3   C   :   -0.000053903    0.000037374    0.000033602
   4   C   :    0.000007286    0.000009266   -0.000002198
   5   O   :    0.000011625    0.000006943   -0.000068338
   6   O   :    0.000054834   -0.000011639    0.000029575
   7   C   :    0.000072558   -0.000026617    0.000001899
   8   C   :    0.000080114    0.000014677   -0.000006256
   9   H   :   -0.000032187   -0.000022153    0.000005850
  10   H   :   -0.000028903   -0.000017676   -0.000007449
  11   H   :   -0.000032571   -0.000022899   -0.000010537
  12   H   :   -0.000026419    0.000009501    0.000004012
  13   H   :   -0.000022499    0.000008341   -0.000010620
  14   H   :   -0.000016275    0.000009765    0.000026822
  15   H   :   -0.000016944    0.000031515    0.000013696
  16   H   :    0.000025302   -0.000014351    0.000010499
  17   H   :    0.000026449   -0.000012325   -0.000004157
  18   H   :    0.000028125    0.000004370   -0.000003537
  19   H   :    0.000031685    0.000009983   -0.000009054
  20   H   :    0.000032845    0.000010560    0.000005639

Difference to translation invariance:
           :    0.0000000000   -0.0000000000   -0.0000000000

Difference to rotation invariance:
           :    0.0000000000   -0.0000000000   -0.0000000000

Norm of the Dispersion gradient    ...    0.0002300885
RMS gradient                       ...    0.0000297043
MAX gradient                       ...    0.0000801144
gCP correction                   ... done

------------------
CARTESIAN GRADIENT
------------------

   1   C   :   -0.000007334    0.000014091    0.000003749
   2   C   :    0.000005154   -0.000019503    0.000010540
   3   C   :   -0.000044728   -0.000016971    0.000015594
   4   C   :    0.000128536    0.000023472    0.000042548
   5   O   :   -0.000020473   -0.000004585   -0.000065202
   6   O   :   -0.000017691    0.000023907   -0.000021925
   7   C   :   -0.000063958   -0.000016656    0.000020762
   8   C   :    0.000003973   -0.000005288    0.000010509
   9   H   :   -0.000020426   -0.000007041    0.000015195
  10   H   :   -0.000018594   -0.000012481   -0.000027148
  11   H   :    0.000019724   -0.000019668   -0.000000487
  12   H   :   -0.000006410    0.000006490    0.000006151
  13   H   :   -0.000004211    0.000006730   -0.000013558
  14   H   :   -0.000000215    0.000014184    0.000015815
  15   H   :    0.000007908    0.000012528   -0.000031336
  16   H   :   -0.000002666   -0.000018553    0.000003625
  17   H   :    0.000009973    0.000002692   -0.000003352
  18   H   :    0.000028190   -0.000010149    0.000006136
  19   H   :    0.000003908    0.000012809   -0.000013847
  20   H   :   -0.000000661    0.000013992    0.000026232

Difference to translation invariance:
           :    0.0000000000   -0.0000000000   -0.0000000000

Difference to rotation invariance:
           :   -0.0001091792   -0.0004422950   -0.0000793041

Norm of the Cartesian gradient     ...    0.0002015319
RMS gradient                       ...    0.0000260177
MAX gradient                       ...    0.0001285361

-------
TIMINGS
-------

Total SCF gradient time     ....       11.812 sec

Densities                   ....       0.001 sec  (  0.0%)
One electron gradient       ....       0.346 sec  (  2.9%)
RI-J Coulomb gradient       ....       1.874 sec  ( 15.9%)
XC gradient                 ....       7.532 sec  ( 63.8%)
CPCM gradient               ....       1.067 sec  (  9.0%)
   A-Matrix (El+Nuc)        ....       0.084 sec  (  0.7%)
   Potential                ....       0.982 sec  (  8.3%)
SMD gradient                ....       0.015 sec  (  0.1%)

Maximum memory used throughout the entire SCFGRAD-calculation: 35.4 MB

------------------------------------------------------------------------------
                              ORCA PROPERTY CALCULATIONS
------------------------------------------------------------------------------

GBWName                                 ... xtb_opt.gbw
Number of atoms                         ...     20
Number of basis functions               ...    222
Max core memory                         ...   1024 MB

Electric properties:
Dipole moment                           ... YES
Quadrupole moment                       ...  NO
Static polarizability (Dipole/Dipole)   ...  NO
Static polarizability (Dipole/Quad.)    ...  NO
Static polarizability (Quad./Quad.)     ...  NO
Static polarizability (Velocity)        ...  NO

Atomic electric properties:
Dipole moment                           ...  NO
Quadrupole moment                       ...  NO
Static polarizability                   ...  NO

Choice of electric origin               ... Center of mass
Position of electric origin             ...     0.005423    -0.017455     0.007616

General magnetic properties:
Magnetizability                         ...  NO

EPR properties:
g-Tensor (aka g-matrix)                 ...  NO
Zero-Field splitting spin-orbit         ...  NO
Zero-field splitting spin-spin          ...  NO
Hyperfine couplings                     ...  NO (   0 nuclei)
Quadrupole couplings                    ...  NO (   0 nuclei)
Contact density                         ...  NO (   0 nuclei)

NMR properties:
Chemical shifts                         ...  NO (   0 nuclei)
Spin-rotation constants                 ...  NO (   0 nuclei)
Spin-spin couplings                     ...  NO (   0 nuclei,    0 pairs)

Choice of magnetic origin               ... GIAO
Position of magnetic origin             ...     0.000000     0.000000     0.000000

Properties with geometric perturbations:
SCF Hessian                             ...  NO
IR spectrum                             ...  NO
VCD spectrum                            ...  NO
X-ray spectroscopy properties:
SCF XES/XAS/RIXS spectra                ...  NO


-------------
DIPOLE MOMENT
-------------

Method             : SCF
Type of density    : Electron Density
Multiplicity       :   1
Irrep              :   0
Energy             :  -386.2498176308302504 Eh
Relativity type    : 
Basis              : AO
                                X                 Y                 Z
Electronic contribution:      2.314643628       0.451533019      -0.051515403
Nuclear contribution   :     -2.012166017      -0.397010600       1.046845109
                        -----------------------------------------
Total Dipole Moment    :      0.302477611       0.054522419       0.995329705
                        -----------------------------------------
Magnitude (a.u.)       :      1.041703711
Magnitude (Debye)      :      2.647800409



--------------------
Rotational spectrum 
--------------------
 
Rotational constants in cm-1:             0.169498             0.032072             0.031805 
Rotational constants in MHz :          5081.433785           961.501658           953.499158 

Dipole components along the rotational axes: 
x,y,z [a.u.] :     0.323380     0.988514    -0.058412 
x,y,z [Debye]:     0.821966     2.512603    -0.148472 

 

Dipole moment calculation done in   0.0 sec 

Maximum memory used throughout the entire PROP-calculation: 13.9 MB

--------------------------------
SUGGESTED CITATIONS FOR THIS RUN
--------------------------------

Below you find a list of papers that are relevant to this ORCA run
We neither can nor want to force you to cite these papers, but we appreciate if you do
You receive ORCA, which is the product of decades of hard work by many enthusiastic individuals, for free
The only thing we kindly ask in return is that you cite our papers,
We deeply appreciate it, if you show your appreciation for ORCA by not just citing the generic ORCA reference.

Please note that relegating all ORCA citations to the supporting information does *not* help us.
SI sections are not indexed - citations you put there will not count into any citation statistics
But we need these citations in order to attract the funding resources that allow us to do what we are doing

Therefore, if you are a happy ORCA user, please consider citing a few of the papers listed below in the main body of your paper

In addition to the list printed below, the program has created the file xtb_opt.bibtex that contains the list in bibtex format
You can import this file easily into all common literature databanks and citation aid programs


List of essential papers. We consider these as the minimum necessary citations

  1. Neese,F.
     Software update: the ORCA program system, version 5.0
     WIRES Comput. Molec. Sci., 2022 12(1)e1606
     doi.org/10.1002/wcms.1606
  2. Grimme,S.; Hansen,A.; Ehlert,S.; Mewes,J.
     r2SCAN-3c: A 'Swiss army knife' composite electronic-structure method
     J. Chem. Phys., 2021 154 064103
     doi.org/10.1063/5.0040021

List of papers to cite with high priority. The work reported in these papers was absolutely
necessary for this run to complete.
Our perspective: the developers of density functionals and basis sets usually get cited in chemistry papers
Good! But without the algorithms to do something with them, the functionals or basis sets would not do anything.
Hence, in our opinion, the algorithm design and method developments papers are equally worthy of getting cited

  1. Neese,F.
     An improvement of the resolution of the identity approximation for the formation of the Coulomb matrix
     J. Comp. Chem., 2003 24(14)1740-1747
     doi.org/10.1002/jcc.10318
  2. Garcia-Rates,M.; Neese,F.
     Effect of the Solute Cavity on the Solvation Energy and its Derivatives within the Framework of the Gaussian Charge Scheme
     J. Comput. Chem., 2020 41 922-939
     doi.org/10.1002/jcc.26139
  3. Neese,F.
     The SHARK Integral Generation and Digestion System
     J. Comp. Chem., 2022  1-16
     doi.org/10.1002/jcc.26942
  4. Lehtola,S.; Steigemann,C.; Oliveira,M.; Marques,M.
     Recent developments in Libxc - A comprehensive library of functionals for density functional theory
     Software X, 2018 7 
     doi.org/10.1016/j.softx.2017.11.002
  5. Caldeweyher,E.; Bannwarth,C.; Grimme,S.
     Extension of the D3 dispersion coefficient model
     J. Chem. Phys., 2017 147 034112-XXXX
     doi.org/10.1063/1.4993215
  6. Caldeweyher,E.; Ehlert,S.; Hansen,A.; Neugebauer,H.; Spicher,S.; Bannwarth,C.; Grimme,S.
     A generally applicable atomic-charge dependent London dispersion correction
     J. Chem. Phys., 2019 150 154122-XXXX
     doi.org/10.1063/1.5090222
  7. Caldeweyher,E.; Mewes,J.; Ehlert,S.; Grimme,S.
     Extension and evaluation of the D4 London-dispersion model for periodic systems
     Phys. Chem. Chem. Phys., 2020 22(16)8499-8512
     doi.org/10.1039/D0CP00502A

List of suggested additional citations. These are papers that are important in the 'surrounding' of 
of this run, or papers that preceded the highly important papers. If you like your results we are grateful for a citation.

  1. Neese,F.
     The ORCA program system
     WIRES Comput. Molec. Sci., 2012 2(1)73-78
     doi.org/10.1002/wcms.81
  2. Neese,F.
     Software update: the ORCA program system, version 4.0
     WIRES Comput. Molec. Sci., 2018 8(1)1-6
     doi.org/10.1002/wcms.1327
  3. Neese,F.; Wennmohs,F.; Becker,U.; Riplinger,C.
     The ORCA quantum chemistry program package
     J. Chem. Phys., 2020 152 Art. No. L224108
     doi.org/10.1063/5.0004608

List of optional additional citations

  1. Neese,F.
     Approximate second-order SCF convergence for spin unrestricted wavefunctions
     Chem. Phys. Lett., 2000 325(1-3)93-98
     doi.org/10.1016/s0009-2614(00)00662-x

Timings for individual modules:

Sum of individual times          ...       22.760 sec (=   0.379 min)
Startup calculation              ...        1.819 sec (=   0.030 min)   8.0 %
SCF iterations                   ...        8.848 sec (=   0.147 min)  38.9 %
Property calculations            ...        0.142 sec (=   0.002 min)   0.6 %
SCF Gradient evaluation          ...       11.952 sec (=   0.199 min)  52.5 %
                             ****ORCA TERMINATED NORMALLY****
TOTAL RUN TIME: 0 days 0 hours 0 minutes 24 seconds 221 msec
  ------------------------------------------------------------------------
          * successful ORCA run, taking over control again...

         :::::::::::::::::::::::::::::::::::::::::::::::::::::
         ::                  ORCA SUMMARY                   ::
         :::::::::::::::::::::::::::::::::::::::::::::::::::::
         :: total energy            -386.243356306383 Eh    ::
         :: gradient norm              0.000201531893 Eh/a0 ::
         :: HOMO-LUMO gap              0.000000000000 eV    ::
         :::::::::::::::::::::::::::::::::::::::::::::::::::::

           -------------------------------------------------
          |                Property Printout                |
           -------------------------------------------------
           -------------------------------------------------
          |                Geometry Summary                 |
           -------------------------------------------------

      molecular mass/u    :      116.1585142
   center of mass at/Å    :        0.0028777      -0.0092373       0.0040269
  moments of inertia/u·Å² :        0.9945468E+02   0.5256001E+03   0.5300131E+03
rotational constants/cm⁻¹ :        0.1695006E+00   0.3207312E-01   0.3180607E-01

 * 17 selected distances

     #   Z          #   Z                                           value/Å
     1   6 C        2   6 C                                       1.5261029
     2   6 C        3   6 C                                       1.5276115 (max)
     4   6 C        5   8 O                                       1.2202185
     4   6 C        6   8 O                                       1.3481632
     7   6 C        8   6 C                                       1.5113670
     1   6 C        9   1 H                                       1.0954741
     1   6 C       10   1 H                                       1.0943505
     1   6 C       11   1 H                                       1.0958638
     2   6 C       12   1 H                                       1.0951105
     2   6 C       13   1 H                                       1.0953700
     3   6 C       14   1 H                                       1.0939295
     3   6 C       15   1 H                                       1.0989062
     7   6 C       16   1 H                                       1.0915514 (min)
     7   6 C       17   1 H                                       1.0927174
     8   6 C       18   1 H                                       1.0946415
     8   6 C       19   1 H                                       1.0933079
     8   6 C       20   1 H                                       1.0938368

 * 3 distinct bonds (by element types)

   Z      Z             #   av. dist./Å        max./Å        min./Å
   1 H    6 C          12     1.0945883     1.0989062     1.0915514
   6 C    6 C           3     1.5216938     1.5276115     1.5113670
   6 C    8 O           2     1.2841909     1.3481632     1.2202185


optimized geometry written to: xtbopt.coord


           -------------------------------------------------
          | TOTAL ENERGY             -386.243356306383 Eh   |
          | GRADIENT NORM               0.000201531893 Eh/α |
           -------------------------------------------------

------------------------------------------------------------------------
 * finished run on 2025/04/11 at 16:12:46.282     
------------------------------------------------------------------------
 total:
 * wall-time:     0 d,  0 h,  5 min, 42.629 sec
 *  cpu-time:     0 d,  0 h,  0 min,  2.391 sec
 * ratio c/w:     0.007 speedup
 SCF:
 * wall-time:     0 d,  0 h,  0 min, 29.048 sec
 *  cpu-time:     0 d,  0 h,  0 min,  1.001 sec
 * ratio c/w:     0.034 speedup
 ANC optimizer:
 * wall-time:     0 d,  0 h,  5 min, 13.512 sec
 *  cpu-time:     0 d,  0 h,  0 min,  1.199 sec
 * ratio c/w:     0.004 speedup

