20
 energy: -386.241829274693 gnorm: 0.034628110569 xtb: 6.7.1 (edcfbbe)
C           -2.83032478555419       -1.10622651589020       -0.11686166045178
C           -2.51780848791571        0.38450378527038       -0.06379932022827
C           -1.21950359234039        0.66263049669363        0.69302267750710
C           -0.00632672590280        0.18158613528047       -0.06169776802734
O            0.09314300674127        0.12664187135612       -1.26894730026230
O            0.96722372282860       -0.17147212647598        0.77232502224224
C            2.22209370148467       -0.59943970596563        0.21701899359617
C            3.11599391008078        0.58785691776049       -0.10679218274732
H           -2.92050172219415       -1.51532192777148        0.88671915659293
H           -3.76317661536756       -1.27919706606685       -0.64658318038652
H           -2.03757185600290       -1.63872497522616       -0.63853717988295
H           -3.33477617367773        0.91246404980434        0.42858958708992
H           -2.41957452747218        0.77076010104154       -1.07989976297853
H           -1.22096883254104        0.19407040968600        1.67704763494314
H           -1.09292872898431        1.73928816777072        0.82946424766756
H            2.66231083477974       -1.22905282094463        0.99062886943897
H            2.02227931249613       -1.18730621862613       -0.68411983770315
H            4.07835303970723        0.22860142670130       -0.45634124550222
H            2.66124970727927        1.19437349782926       -0.88693332009302
H            3.26080605334495        1.19996876583174        0.77929016444532
20
 energy: -386.243010131533 gnorm: 0.013635416792 xtb: 6.7.1 (edcfbbe)
C           -2.83591557601253       -1.10868759497283       -0.12184551536709
C           -2.52098893565747        0.38441722109899       -0.06472486432970
C           -1.22307700394415        0.66750136963730        0.69000389029119
C           -0.00798735962871        0.18138808216250       -0.05672730077835
O            0.09387419323857        0.13246256614059       -1.27121095511627
O            0.97268827760908       -0.17485154263435        0.78352304734655
C            2.23288018874875       -0.60477779155852        0.21276813736259
C            3.11288691353444        0.58936701732168       -0.10700302688196
H           -2.92760546314332       -1.52299992484352        0.88596577545364
H           -3.77334930616076       -1.29150966149254       -0.65214769736539
H           -2.04347378923934       -1.65528769863507       -0.64180629916185
H           -3.33481582028294        0.91950595084681        0.43206687805380
H           -2.43683525603412        0.78661676875475       -1.07902415119791
H           -1.23273599919915        0.20905412404398        1.68205665773226
H           -1.08442593305604        1.74645301069066        0.82982310676079
H            2.67874876696748       -1.23303580218263        0.98509068432437
H            2.03665772715922       -1.20828580289763       -0.67772228197875
H            4.08236356394750        0.23127732279614       -0.45917041504457
H            2.66322030856720        1.20452522742076       -0.88972140753888
H            3.26788233823200        1.20287183210233        0.78340005649414
20
 energy: -386.243277238327 gnorm: 0.005087912402 xtb: 6.7.1 (edcfbbe)
C           -2.84091146008414       -1.10796841771640       -0.12536616101579
C           -2.52529942223758        0.38496166551284       -0.06618871985642
C           -1.22594537992989        0.66686814498275        0.68551336250805
C           -0.00768092954305        0.17744162012352       -0.05112880296036
O            0.09912033301379        0.13047863951882       -1.26713454216553
O            0.97482440658041       -0.18410875244172        0.79545060844368
C            2.24368850761190       -0.60569105858720        0.21162293976313
C            3.11399673010550        0.58967000565885       -0.10891415891663
H           -2.93485953601449       -1.52639329260964        0.88355639124028
H           -3.78013085176401       -1.29447592244111       -0.65642832893892
H           -2.04944916634517       -1.66213542280574       -0.64437338902373
H           -3.33747220878043        0.91922320975473        0.43821359732990
H           -2.45538336741579        0.79866076504962       -1.07879368210329
H           -1.24226912993311        0.22183956659322        1.68553530090245
H           -1.08064239039409        1.74763138513395        0.82192518576377
H            2.69510530646707       -1.23269594901396        0.98292893055615
H            2.04470357625128       -1.21688300518228       -0.67247439462758
H            4.08769038017403        0.23766696198521       -0.46607738104454
H            2.66477956769532        1.21139764366639       -0.88906441282784
H            3.27612761352745        1.20051746150036        0.78479310441237
20
 energy: -386.243318971247 gnorm: 0.002486704294 xtb: 6.7.1 (edcfbbe)
C           -2.84318705510134       -1.10729789046474       -0.12771291196023
C           -2.52547292446486        0.38432942624686       -0.06558782956408
C           -1.22499250180420        0.66628933904211        0.68394925292417
C           -0.00700424592429        0.17320993047349       -0.04940684285931
O            0.10245727981548        0.12665728143398       -1.26447350681458
O            0.97520805960619       -0.19001468753874        0.79977265461881
C            2.24840097769012       -0.60681637824952        0.21200334423598
C            3.11245363997271        0.59089254426131       -0.10934733876466
H           -2.93888704542003       -1.52664994940714        0.88050424730307
H           -3.78219024386471       -1.29169800843024       -0.65960418948828
H           -2.05234051466152       -1.66202542975089       -0.64657647717128
H           -3.33615371546999        0.91635879037510        0.44396379572968
H           -2.46109918938941        0.80152334658557       -1.07697122500884
H           -1.24354855387886        0.22849454155005        1.68707508570611
H           -1.07781075192221        1.74772459081006        0.81444587245509
H            2.70217638764384       -1.23108927805769        0.98431349256419
H            2.04691717738225       -1.21968151231027       -0.67013763223892
H            4.08591701092271        0.24171823956658       -0.47002872390803
H            2.66119694422727        1.21368778500116       -0.88703040179120
H            3.27795207788368        1.20039299732499        0.78444595168121
20
 energy: -386.243338875111 gnorm: 0.001146113827 xtb: 6.7.1 (edcfbbe)
C           -2.84394245870548       -1.10661944599367       -0.12973845509233
C           -2.52525289609216        0.38419506711147       -0.06428928053749
C           -1.22324452504691        0.66560752225634        0.68307435958253
C           -0.00603480841727        0.16939280566143       -0.04857119593921
O            0.10494390068361        0.12138195204707       -1.26265447636742
O            0.97485995018021       -0.19554645938228        0.80241759532577
C            2.25152732501460       -0.60840054916650        0.21338592378750
C            3.10987670186273        0.59212656013299       -0.10959641583373
H           -2.94182357406991       -1.52758463180030        0.87699937098267
H           -3.78236642969129       -1.28708544545435       -0.66299156258309
H           -2.05381953370860       -1.66069898396543       -0.64915027759576
H           -3.33423325653338        0.91381194896173        0.45010650356457
H           -2.46413055399964        0.80410785214605       -1.07425000259523
H           -1.24219481856935        0.23416710982698        1.68846610196899
H           -1.07506971868699        1.74757184789237        0.80605387858441
H            2.70718918972342       -1.22928039417729        0.98712083125437
H            2.04950029634855       -1.22219238604908       -0.66774966650785
H            4.08243308704241        0.24612791862124       -0.47446558501549
H            2.65426837569047        1.21439810458486       -0.88448940577391
H            3.27750657262501        1.20052572594166        0.78391986477544
20
 energy: -386.243348080830 gnorm: 0.002106013216 xtb: 6.7.1 (edcfbbe)
C           -2.84409416200123       -1.10545705634180       -0.13268792230667
C           -2.52401108945035        0.38475720348526       -0.06195523176993
C           -1.21980703289877        0.66561978462579        0.68242384274537
C           -0.00499326901199        0.16197254406054       -0.04791615243892
O            0.10796424861735        0.11364790401920       -1.26133062513149
O            0.97375130185899       -0.20433192766591        0.80501189094938
C            2.25406882290482       -0.61123505777262        0.21629544377751
C            3.10449941337455        0.59408075092205       -0.10984082554821
H           -2.94453359024411       -1.52963313545818        0.87192944865441
H           -3.78186267403783       -1.28105483783596       -0.66802363506019
H           -2.05458001953010       -1.65821138617447       -0.65338226129940
H           -3.33080426817532        0.91164262447242        0.45813939950758
H           -2.46604596320008        0.80833102894793       -1.07014027335233
H           -1.23863216959781        0.24191796756167        1.69058761466607
H           -1.06914406768226        1.74820735668057        0.79524449845550
H            2.71298153141177       -1.22689730577142        0.99194434376411
H            2.05433892163311       -1.22726214471757       -0.66361679412970
H            4.07594982334610        0.25361035649435       -0.48176023185655
H            2.64044863431489        1.21469925969836       -0.88062392189061
H            3.27449824367874        1.20160283520620        0.78330195719914
20
 energy: -386.243352524812 gnorm: 0.001360679899 xtb: 6.7.1 (edcfbbe)
C           -2.84335635462556       -1.10513062959030       -0.13320008117442
C           -2.52354831771017        0.38525477081677       -0.06146469818326
C           -1.21898980830876        0.66591012506141        0.68248908137673
C           -0.00423786386101        0.16190200946039       -0.04791636461157
O            0.10789288044424        0.11196287686295       -1.26154776314251
O            0.97370997536510       -0.20567159324796        0.80481750334990
C            2.25363167043292       -0.61228595507665        0.21713967322032
C            3.10263936296545        0.59423893985740       -0.10982398814199
H           -2.94370942835395       -1.53035081062204        0.87109894825376
H           -3.78116552975398       -1.28053619756446       -0.66877459918829
H           -2.05371920674405       -1.65741153354733       -0.65449140302235
H           -3.33030125590249        0.91188813994485        0.45890820241409
H           -2.46566253657029        0.80950104277478       -1.06946407826229
H           -1.23728721591083        0.24296934988034        1.69098255617457
H           -1.06771404123042        1.74847815954350        0.79417662225317
H            2.71324279892866       -1.22693057667463        0.99315252286772
H            2.05550032537741       -1.22933434432302       -0.66248263993752
H            4.07394554098004        0.25521139329554       -0.48352650535889
H            2.63623184145322        1.21437522919703       -0.87974833086849
H            3.27288959280829        1.20196645505207        0.78327648446196
20
 energy: -386.243355105948 gnorm: 0.001049244513 xtb: 6.7.1 (edcfbbe)
C           -2.84122699792947       -1.10388982709914       -0.13430819589419
C           -2.52222276680411        0.38692281165184       -0.06105318497075
C           -1.21746415123614        0.66649483640932        0.68283499290784
C           -0.00394146851889        0.15886645917519       -0.04749494949492
O            0.10741927309594        0.10899307219486       -1.26185275250308
O            0.97331953015294       -0.20947827526723        0.80438700862852
C            2.25225665250535       -0.61410072086242        0.21907617859681
C            3.09829230150652        0.59463686440813       -0.11019477415381
H           -2.94041246503274       -1.53116941148099        0.86962668878033
H           -3.77942538306661       -1.27997929618034       -0.66968840412828
H           -2.05134012006804       -1.65528400049221       -0.65705594094931
H           -3.32911432282921        0.91362299230341        0.45920424164578
H           -2.46417335921439        0.81233572675718       -1.06885588508210
H           -1.23552404833487        0.24425984308772        1.69178735458372
H           -1.06373844655152        1.74884360344904        0.79394415832369
H            2.71400398488500       -1.22639495063004        0.99581637625550
H            2.05823681358147       -1.23434998013686       -0.65947989285509
H            4.06948191717422        0.25904621934204       -0.48773412914446
H            2.62666671766250        1.21372020915945       -0.87824813700991
H            3.26889827647444        1.20291086818189        0.78289176636078
20
 energy: -386.243356306424 gnorm: 0.000202683260 xtb: 6.7.1 (edcfbbe)
C           -2.84159630415921       -1.10391768220323       -0.13445807648543
C           -2.52230565340942        0.38661686944986       -0.06131568349838
C           -1.21775255146873        0.66626980543261        0.68268147407865
C           -0.00378031639128        0.15951691672528       -0.04720185776134
O            0.10784680579140        0.10891195914305       -1.26124941563262
O            0.97342541271215       -0.20936865520099        0.80516905359327
C            2.25279807307576       -0.61388275226541        0.21885306483078
C            3.09863438605757        0.59458416565999       -0.11038590110927
H           -2.94052541158075       -1.53068581514836        0.86960626665982
H           -3.77987610299646       -1.27997901106373       -0.66946863634177
H           -2.05189279959399       -1.65538271351752       -0.65711655536770
H           -3.32918294911689        0.91315263412758        0.45923777665652
H           -2.46457405292596        0.81205745086515       -1.06903716547293
H           -1.23658817823101        0.24415027654474        1.69171160245674
H           -1.06421190565115        1.74868029902978        0.79406962558066
H            2.71466552836335       -1.22621128665394        0.99552317650073
H            2.05762784737662       -1.23380554984347       -0.65957467613343
H            4.06975299192899        0.25861826430229       -0.48760640441619
H            2.62784106324013        1.21403862511318       -0.87846900708490
H            3.26968610182641        1.20264324680193        0.78263382135205
20
 energy: -386.243356306424 gnorm: 0.000202683260 xtb: 6.7.1 (edcfbbe)
C           -2.84159630415921       -1.10391768220323       -0.13445807648543
C           -2.52230565340942        0.38661686944986       -0.06131568349838
C           -1.21775255146873        0.66626980543261        0.68268147407865
C           -0.00378031639128        0.15951691672528       -0.04720185776134
O            0.10784680579140        0.10891195914305       -1.26124941563262
O            0.97342541271215       -0.20936865520099        0.80516905359327
C            2.25279807307576       -0.61388275226541        0.21885306483078
C            3.09863438605757        0.59458416565999       -0.11038590110927
H           -2.94052541158075       -1.53068581514836        0.86960626665982
H           -3.77987610299646       -1.27997901106373       -0.66946863634177
H           -2.05189279959399       -1.65538271351752       -0.65711655536770
H           -3.32918294911689        0.91315263412758        0.45923777665652
H           -2.46457405292596        0.81205745086515       -1.06903716547293
H           -1.23658817823101        0.24415027654474        1.69171160245674
H           -1.06421190565115        1.74868029902978        0.79406962558066
H            2.71466552836335       -1.22621128665394        0.99552317650073
H            2.05762784737662       -1.23380554984347       -0.65957467613343
H            4.06975299192899        0.25861826430229       -0.48760640441619
H            2.62784106324013        1.21403862511318       -0.87846900708490
H            3.26968610182641        1.20264324680193        0.78263382135205
