      -----------------------------------------------------------      
     |                   =====================                   |     
     |                           x T B                           |     
     |                   =====================                   |     
     |                         S. Grimme                         |     
     |          Mulliken Center for Theoretical Chemistry        |     
     |                    University of Bonn                     |     
      -----------------------------------------------------------      

   * xtb version 6.7.1 (edcfbbe) compiled by 'albert@albert-system' on 2024-07-22

   xtb is free software: you can redistribute it and/or modify it under
   the terms of the GNU Lesser General Public License as published by
   the Free Software Foundation, either version 3 of the License, or
   (at your option) any later version.
   
   xtb is distributed in the hope that it will be useful,
   but WITHOUT ANY WARRANTY; without even the implied warranty of
   MERCHANTABILITY or FITNESS FOR A PARTICULAR PURPOSE.  See the
   GNU Lesser General Public License for more details.
   
   Cite this work as:
   * C. Bannwarth, E. Caldeweyher, S. Ehlert, A. Hansen, P. Pracht,
     J. Seibert, S. Spicher, S. Grimme, WIREs Comput. Mol. Sci., 2020, 11,
     e01493. DOI: 10.1002/wcms.1493
   
   for GFN2-xTB:
   * C. Bannwarth, S. Ehlert and S. Grimme., J. Chem. Theory Comput., 2019,
     15, 1652-1671. DOI: 10.1021/acs.jctc.8b01176
   for GFN1-xTB:
   * S. Grimme, C. Bannwarth, P. Shushkov, J. Chem. Theory Comput., 2017,
     13, 1989-2009. DOI: 10.1021/acs.jctc.7b00118
   for GFN0-xTB:
   * P. Pracht, E. Caldeweyher, S. Ehlert, S. Grimme, ChemRxiv, 2019, preprint.
     DOI: 10.26434/chemrxiv.8326202.v1
   for GFN-FF:
   * S. Spicher and S. Grimme, Angew. Chem. Int. Ed., 2020, 59, 15665-15673.
     DOI: 10.1002/anie.202004239
   
   for ALPB and GBSA implicit solvation:
   * S. Ehlert, M. Stahn, S. Spicher, S. Grimme, J. Chem. Theory Comput.,
     2021, 17, 4250-4261. DOI: 10.1021/acs.jctc.1c00471
   
   for ddCOSMO and CPCM-X implicit solvation:
   * M. Stahn, S. Ehlert, S. Grimme, J. Phys. Chem. A,
     2023, XX, XXXX-XXXX. DOI: 10.1021/acs.jpca.3c04382
   
   for DFT-D4:
   * E. Caldeweyher, C. Bannwarth and S. Grimme, J. Chem. Phys., 2017,
     147, 034112. DOI: 10.1063/1.4993215
   * E. Caldeweyher, S. Ehlert, A. Hansen, H. Neugebauer, S. Spicher,
     C. Bannwarth and S. Grimme, J. Chem. Phys., 2019, 150, 154122.
     DOI: 10.1063/1.5090222
   * E. Caldeweyher, J.-M. Mewes, S. Ehlert and S. Grimme, Phys. Chem. Chem. Phys.
     2020, 22, 8499-8512. DOI: 10.1039/D0CP00502A
   
   for sTDA-xTB:
   * S. Grimme and C. Bannwarth, J. Chem. Phys., 2016, 145, 054103.
     DOI: 10.1063/1.4959605
   
   in the mass-spec context:
   * V. Asgeirsson, C. Bauer and S. Grimme, Chem. Sci., 2017, 8, 4879.
     DOI: 10.1039/c7sc00601b
   * J. Koopman and S. Grimme, ACS Omega 2019, 4, 12, 15120-15133.
     DOI: 10.1021/acsomega.9b02011
   
   for metadynamics refer to:
   * S. Grimme, J. Chem. Theory Comput., 2019, 155, 2847-2862
     DOI: 10.1021/acs.jctc.9b00143
   
   for SPH calculations refer to:
   * S. Spicher and S. Grimme, J. Chem. Theory Comput., 2021, 17, 1701-1714
     DOI: 10.1021/acs.jctc.0c01306
   
   for ONIOM refer to:
   * C. Plett, A. Katbashev, S. Ehlert, S. Grimme, M. Bursch,
     Phys. Chem. Chem. Phys., 2023, 25, 17860-17868. DOI: 10.1039/D3CP02178E
   
   for DIPRO refer to:
   * J. Kohn, N. Gildemeister, S. Grimme, D. Fazzi, A. Hansen,
     J. Chem. Phys., 2023, just accepted.
   
   for PTB refer to:
   * S. Grimme, M. Mueller, A. Hansen, J. Chem. Phys., 2023, 158, 124111.
     DOI: 10.1063/5.0137838
   
   with help from (in alphabetical order)
   P. Atkinson, C. Bannwarth, F. Bohle, G. Brandenburg, E. Caldeweyher
   M. Checinski, S. Dohm, S. Ehlert, S. Ehrlich, I. Gerasimov, C. Hölzer
   A. Katbashev, J. Kohn, J. Koopman, C. Lavigne, S. Lehtola, F. März, M. Müller,
   F. Musil, H. Neugebauer, J. Pisarek, C. Plett, P. Pracht, F. Pultar,
   J. Seibert, P. Shushkov, S. Spicher, M. Stahn, M. Steiner, T. Strunk,
   J. Stückrath, T. Rose, and J. Unsleber
   
 * started run on 2025/04/11 at 18:21:53.773     
   ID    Z sym.   atoms
    1    6 C      1-7, 9-15, 18, 19
    2    8 O      8, 16, 20
    3    7 N      17
    4    1 H      21-33

           -------------------------------------------------
          |                Calculation Setup                |
           -------------------------------------------------

          program call               : /srv/scratch/z5358697/.xtb/bin/xtb xtb_rrho.coord --gfn2 --ohess vtight --chrg 0 --enso --norestart -I rrho-xcontrol-inp --parallel 1 --alpb water
          hostname                   : k030
          coordinate file            : xtb_rrho.coord
          omp threads                :                     1


           -------------------------------------------------
          |                 G F N 2 - x T B                 |
           -------------------------------------------------

        Reference                      10.1021/acs.jctc.8b01176
      * Hamiltonian:
        H0-scaling (s, p, d)           1.850000    2.230000    2.230000
        zeta-weighting                 0.500000
      * Dispersion:
        s8                             2.700000
        a1                             0.520000
        a2                             5.000000
        s9                             5.000000
      * Repulsion:
        kExp                           1.500000    1.000000
        rExp                           1.000000
      * Coulomb:
        alpha                          2.000000
        third order                    shell-resolved
        anisotropic                    true
        a3                             3.000000
        a5                             4.000000
        cn-shift                       1.200000
        cn-exp                         4.000000
        max-rad                        5.000000

      * Solvation model:               ALPB
        Solvent                        water
        Parameter file                 internal GFN2-xTB/ALPB
        Dielectric constant                8.0200E+01
        Reference state                gsolv [1 M gas/solution]
        Free energy shift                  1.0808E-03 Eh       6.7819E-01 kcal/mol
        Temperature                        2.9815E+02 K
        Density                            1.0000E+00 kg/L
        Solvent mass                       1.8000E+01 g/mol
        Interaction kernel             P16
        Born radius scaling (c1)           1.4744E+00
        Born radii integrator          GBOBC
        Born offset                        0.0000E+00 a0       0.0000E+00 AA
        H-bond correction              true
        Ion screening                  false
        Surface tension                    1.0000E-05 Eh       1.5569E+01 dyn/cm
        Grid points                               974 per atom

          ...................................................
          :                      SETUP                      :
          :.................................................:
          :  # basis functions                  93          :
          :  # atomic orbitals                  93          :
          :  # shells                           53          :
          :  # electrons                       100          :
          :  max. iterations                   250          :
          :  Hamiltonian                  GFN2-xTB          :
          :  restarted?                      false          :
          :  GBSA solvation                   true          :
          :  PC potential                    false          :
          :  electronic temp.          300.0000000     K    :
          :  accuracy                    1.0000000          :
          :  -> integral cutoff          0.2500000E+02      :
          :  -> integral neglect         0.1000000E-07      :
          :  -> SCF convergence          0.1000000E-05 Eh   :
          :  -> wf. convergence          0.1000000E-03 e    :
          :  Broyden damping             0.4000000          :
          :  net charge                          0          :
          :  unpaired electrons                  0          :
          ...................................................

 iter      E             dE          RMSdq      gap      omega  full diag
   1    -56.6956123 -0.566956E+02  0.528E+00    1.01       0.0  T
   2    -56.7838699 -0.882576E-01  0.303E+00    1.57       1.0  T
   3    -56.7742349  0.963501E-02  0.160E+00    1.28       1.0  T
   4    -56.8000433 -0.258085E-01  0.506E-01    1.40       1.0  T
   5    -56.8066961 -0.665275E-02  0.126E-01    1.33       1.0  T
   6    -56.8068834 -0.187321E-03  0.589E-02    1.35       1.0  T
   7    -56.8069034 -0.199886E-04  0.247E-02    1.34       1.0  T
   8    -56.8069058 -0.237423E-05  0.948E-03    1.34       1.8  T
   9    -56.8069066 -0.801713E-06  0.445E-03    1.34       3.9  T
  10    -56.8069067 -0.160533E-06  0.167E-03    1.34      10.4  T
  11    -56.8069068 -0.103539E-07  0.881E-04    1.34      19.8  T
  12    -56.8069068 -0.421164E-08  0.349E-04    1.34      49.9  T

   *** convergence criteria satisfied after 12 iterations ***

         #    Occupation            Energy/Eh            Energy/eV
      -------------------------------------------------------------
         1        2.0000           -0.7117183             -19.3668
       ...           ...                  ...                  ...
        44        2.0000           -0.4262597             -11.5991
        45        2.0000           -0.4218743             -11.4798
        46        2.0000           -0.4213996             -11.4669
        47        2.0000           -0.4187099             -11.3937
        48        2.0000           -0.4074258             -11.0866
        49        2.0000           -0.3884265             -10.5696
        50        2.0000           -0.3725102             -10.1365 (HOMO)
        51                         -0.3231178              -8.7925 (LUMO)
        52                         -0.2722002              -7.4069
        53                         -0.2430050              -6.6125
        54                         -0.2317184              -6.3054
        55                         -0.1865602              -5.0766
       ...                                ...                  ...
        93                          0.6921315              18.8339
      -------------------------------------------------------------
                  HL-Gap            0.0493924 Eh            1.3440 eV
             Fermi-level           -0.3478140 Eh           -9.4645 eV

 SCC (total)                   0 d,  0 h,  0 min,  0.065 sec
 SCC setup                      ...        0 min,  0.003 sec (  4.059%)
 Dispersion                     ...        0 min,  0.000 sec (  0.645%)
 classical contributions        ...        0 min,  0.000 sec (  0.104%)
 integral evaluation            ...        0 min,  0.006 sec (  9.508%)
 iterations                     ...        0 min,  0.036 sec ( 54.911%)
 molecular gradient             ...        0 min,  0.020 sec ( 30.316%)
 printout                       ...        0 min,  0.000 sec (  0.417%)

         :::::::::::::::::::::::::::::::::::::::::::::::::::::
         ::                     SUMMARY                     ::
         :::::::::::::::::::::::::::::::::::::::::::::::::::::
         :: total energy             -56.018286850490 Eh    ::
         :: total w/o Gsasa/hb       -56.012379522757 Eh    ::
         :: gradient norm              0.035382421728 Eh/a0 ::
         :: HOMO-LUMO gap              1.344035351824 eV    ::
         ::.................................................::
         :: SCC energy               -56.806896864531 Eh    ::
         :: -> isotropic ES            0.114845484956 Eh    ::
         :: -> anisotropic ES         -0.002958608140 Eh    ::
         :: -> anisotropic XC          0.020287482972 Eh    ::
         :: -> dispersion             -0.036485019686 Eh    ::
         :: -> Gsolv                  -0.026408783598 Eh    ::
         ::    -> Gelec               -0.020501455864 Eh    ::
         ::    -> Gsasa                0.001306125534 Eh    ::
         ::    -> Ghb                 -0.008294212965 Eh    ::
         ::    -> Gshift               0.001080759698 Eh    ::
         :: repulsion energy           0.788610014041 Eh    ::
         :: add. restraining           0.000000000000 Eh    ::
         :: total charge              -0.000000000000 e     ::
         :::::::::::::::::::::::::::::::::::::::::::::::::::::

      ----------------------------------------------------------- 
     |                   =====================                   |
     |                        A N C O P T                        |
     |                   =====================                   |
     |               Approximate Normal Coordinate               |
     |                Rational Function Optimizer                |
      ----------------------------------------------------------- 
      ----------------------------------------------------------- 
     |                   =====================                   |
     |                        A N C O P T                        |
     |                   =====================                   |
     |               Approximate Normal Coordinate               |
     |                Rational Function Optimizer                |
      ----------------------------------------------------------- 

          ...................................................
          :                      SETUP                      :
          :.................................................:
          :   optimization level         verytight          :
          :   max. optcycles                   660          :
          :   ANC micro-cycles                  20          :
          :   degrees of freedom                93          :
          :.................................................:
          :   RF solver                   davidson          :
          :   write xtbopt.log                true          :
          :   linear?                        false          :
          :   energy convergence         0.1000000E-06 Eh   :
          :   grad. convergence          0.2000000E-03 Eh/α :
          :   maxmium RF displ.          1.0000000          :
          :   Hlow (freq-cutoff)         0.1000000E-01      :
          :   Hmax (freq-cutoff)         5.0000000          :
          :   S6 in model hess.         20.0000000          :
          ...................................................

generating ANC from exact Hessian ...
Using Lindh-Hessian (1995)
 Shifting diagonal of input Hessian by   9.340931746268186E-003
 Lowest  eigenvalues of input Hessian
    0.000000    0.000000    0.000000    0.000000    0.000000    0.000000
    0.010000    0.010471    0.011461    0.011800    0.012763    0.016049
    0.017169    0.018881    0.020744    0.023141    0.026288    0.026506
 Highest eigenvalues
    1.923203    1.943051    2.019580    2.057363    2.085299    2.195568
 

........................................................................
.............................. CYCLE    1 ..............................
........................................................................

 iter      E             dE          RMSdq      gap      omega  full diag
   1    -56.8069068 -0.568069E+02  0.129E-04    1.34       0.0  T
   2    -56.8069068 -0.574403E-10  0.847E-05    1.34     205.6  T
   3    -56.8069068 -0.135003E-10  0.595E-05    1.34     292.7  T
     SCC iter.                  ...        0 min,  0.006 sec
     gradient                   ...        0 min,  0.019 sec
 * total energy  :   -56.0182869 Eh     change       -0.1566129E-08 Eh
   gradient norm :     0.0353860 Eh/α   predicted     0.0000000E+00 (-100.00%)
   displ. norm   :     0.1681533 α      lambda       -0.2622287E-02
   maximum displ.:     0.0725695 α      in ANC's #18, #16, #7, ...

........................................................................
.............................. CYCLE    2 ..............................
........................................................................

 iter      E             dE          RMSdq      gap      omega  full diag
   1    -56.8298101 -0.568298E+02  0.974E-02    1.34       0.0  T
   2    -56.8298295 -0.193270E-04  0.569E-02    1.34       1.0  T
   3    -56.8298265  0.297882E-05  0.216E-02    1.35       1.0  T
   4    -56.8298323 -0.582726E-05  0.454E-03    1.34       3.8  T
   5    -56.8298326 -0.316582E-06  0.212E-03    1.35       8.2  T
   6    -56.8298327 -0.454411E-07  0.110E-03    1.35      15.8  T
   7    -56.8298327 -0.124819E-07  0.506E-04    1.35      34.4  T
   8    -56.8298327 -0.151341E-08  0.217E-04    1.35      80.1  T
     SCC iter.                  ...        0 min,  0.013 sec
     gradient                   ...        0 min,  0.019 sec
 * total energy  :   -56.0200364 Eh     change       -0.1749552E-02 Eh
   gradient norm :     0.0154099 Eh/α   predicted    -0.1348278E-02 ( -22.94%)
   displ. norm   :     0.1234276 α      lambda       -0.6508088E-03
   maximum displ.:     0.0559241 α      in ANC's #7, #16, #18, ...

........................................................................
.............................. CYCLE    3 ..............................
........................................................................

 iter      E             dE          RMSdq      gap      omega  full diag
   1    -56.8394055 -0.568394E+02  0.572E-02    1.33       0.0  T
   2    -56.8394142 -0.864348E-05  0.325E-02    1.34       1.0  T
   3    -56.8394136  0.584258E-06  0.137E-02    1.34       1.3  T
   4    -56.8394151 -0.147608E-05  0.323E-03    1.34       5.4  T
   5    -56.8394153 -0.264908E-06  0.123E-03    1.34      14.1  T
   6    -56.8394154 -0.164625E-07  0.758E-04    1.34      23.0  T
   7    -56.8394154 -0.566305E-08  0.330E-04    1.34      52.7  T
     SCC iter.                  ...        0 min,  0.012 sec
     gradient                   ...        0 min,  0.019 sec
 * total energy  :   -56.0204097 Eh     change       -0.3733141E-03 Eh
   gradient norm :     0.0046354 Eh/α   predicted    -0.3303964E-03 ( -11.50%)
   displ. norm   :     0.0445841 α      lambda       -0.6676279E-04
   maximum displ.:     0.0276538 α      in ANC's #7, #6, #12, ...

........................................................................
.............................. CYCLE    4 ..............................
........................................................................

 iter      E             dE          RMSdq      gap      omega  full diag
   1    -56.8388935 -0.568389E+02  0.203E-02    1.33       0.0  T
   2    -56.8388941 -0.582152E-06  0.115E-02    1.33       1.5  T
   3    -56.8388937  0.431235E-06  0.573E-03    1.33       3.0  T
   4    -56.8388942 -0.565909E-06  0.144E-03    1.33      12.0  T
   5    -56.8388943 -0.594061E-07  0.414E-04    1.33      42.1  T
   6    -56.8388943 -0.707765E-09  0.243E-04    1.33      71.5  T
     SCC iter.                  ...        0 min,  0.010 sec
     gradient                   ...        0 min,  0.019 sec
 * total energy  :   -56.0204540 Eh     change       -0.4428373E-04 Eh
   gradient norm :     0.0020972 Eh/α   predicted    -0.3344847E-04 ( -24.47%)
   displ. norm   :     0.0319308 α      lambda       -0.2111453E-04
   maximum displ.:     0.0202603 α      in ANC's #7, #6, #5, ...

........................................................................
.............................. CYCLE    5 ..............................
........................................................................

 iter      E             dE          RMSdq      gap      omega  full diag
   1    -56.8375866 -0.568376E+02  0.133E-02    1.33       0.0  T
   2    -56.8375868 -0.222601E-06  0.757E-03    1.33       2.3  T
   3    -56.8375866  0.269162E-06  0.421E-03    1.33       4.1  T
   4    -56.8375870 -0.369344E-06  0.811E-04    1.33      21.5  T
   5    -56.8375870 -0.153914E-07  0.274E-04    1.33      63.4  T
     SCC iter.                  ...        0 min,  0.008 sec
     gradient                   ...        0 min,  0.019 sec
 * total energy  :   -56.0204663 Eh     change       -0.1228039E-04 Eh
   gradient norm :     0.0008470 Eh/α   predicted    -0.1058810E-04 ( -13.78%)
   displ. norm   :     0.0235511 α      lambda       -0.3676808E-05
   maximum displ.:     0.0159555 α      in ANC's #6, #7, #5, ...

........................................................................
.............................. CYCLE    6 ..............................
........................................................................

 iter      E             dE          RMSdq      gap      omega  full diag
   1    -56.8370358 -0.568370E+02  0.754E-03    1.33       0.0  T
   2    -56.8370359 -0.808671E-07  0.425E-03    1.33       4.1  T
   3    -56.8370358  0.845819E-07  0.231E-03    1.33       7.5  T
   4    -56.8370359 -0.117118E-06  0.443E-04    1.33      39.3  T
   5    -56.8370359 -0.406622E-08  0.172E-04    1.33     100.9  T
     SCC iter.                  ...        0 min,  0.008 sec
     gradient                   ...        0 min,  0.019 sec
 * total energy  :   -56.0204692 Eh     change       -0.2935664E-05 Eh
   gradient norm :     0.0006183 Eh/α   predicted    -0.1839530E-05 ( -37.34%)
   displ. norm   :     0.0144688 α      lambda       -0.1701103E-05
   maximum displ.:     0.0101027 α      in ANC's #6, #7, #4, ...

........................................................................
.............................. CYCLE    7 ..............................
........................................................................

 iter      E             dE          RMSdq      gap      omega  full diag
   1    -56.8372615 -0.568373E+02  0.495E-03    1.33       0.0  T
   2    -56.8372615 -0.207960E-07  0.285E-03    1.33       6.1  T
   3    -56.8372615  0.253640E-07  0.113E-03    1.33      15.4  T
   4    -56.8372615 -0.311893E-07  0.233E-04    1.33      74.9  T
   5    -56.8372615 -0.118475E-08  0.926E-05    1.33     188.0  T
     SCC iter.                  ...        0 min,  0.008 sec
     gradient                   ...        0 min,  0.019 sec
 * total energy  :   -56.0204706 Eh     change       -0.1353379E-05 Eh
   gradient norm :     0.0003987 Eh/α   predicted    -0.8551492E-06 ( -36.81%)
   displ. norm   :     0.0072587 α      lambda       -0.5013862E-06
   maximum displ.:     0.0042038 α      in ANC's #6, #4, #2, ...

........................................................................
.............................. CYCLE    8 ..............................
........................................................................

 iter      E             dE          RMSdq      gap      omega  full diag
   1    -56.8375189 -0.568375E+02  0.328E-03    1.33       0.0  T
   2    -56.8375189 -0.454386E-08  0.193E-03    1.33       9.0  T
   3    -56.8375189  0.169337E-08  0.347E-04    1.33      50.2  T
   4    -56.8375189 -0.264058E-08  0.802E-05    1.33     217.0  T
     SCC iter.                  ...        0 min,  0.007 sec
     gradient                   ...        0 min,  0.019 sec
 * total energy  :   -56.0204709 Eh     change       -0.3628759E-06 Eh
   gradient norm :     0.0001694 Eh/α   predicted    -0.2530527E-06 ( -30.26%)
   displ. norm   :     0.0044227 α      lambda       -0.1277444E-06
   maximum displ.:     0.0028374 α      in ANC's #4, #2, #6, ...

........................................................................
.............................. CYCLE    9 ..............................
........................................................................

 iter      E             dE          RMSdq      gap      omega  full diag
   1    -56.8374522 -0.568375E+02  0.158E-03    1.33       0.0  T
   2    -56.8374522 -0.565947E-09  0.933E-04    1.33      18.7  T
   3    -56.8374522  0.988166E-09  0.200E-04    1.33      86.9  T
     SCC iter.                  ...        0 min,  0.005 sec
     gradient                   ...        0 min,  0.019 sec
 * total energy  :   -56.0204711 Eh     change       -0.1451069E-06 Eh
   gradient norm :     0.0000885 Eh/α   predicted    -0.6523036E-07 ( -55.05%)
   displ. norm   :     0.0077596 α      lambda       -0.1363290E-06
   maximum displ.:     0.0051831 α      in ANC's #4, #2, #5, ...

........................................................................
.............................. CYCLE   10 ..............................
........................................................................

 iter      E             dE          RMSdq      gap      omega  full diag
   1    -56.8373887 -0.568374E+02  0.247E-03    1.33       0.0  T
   2    -56.8373887 -0.103044E-08  0.146E-03    1.33      11.9  T
   3    -56.8373887  0.127088E-09  0.137E-04    1.33     126.6  T
   4    -56.8373887 -0.433211E-09  0.485E-05    1.33     358.6  T
     SCC iter.                  ...        0 min,  0.007 sec
     gradient                   ...        0 min,  0.019 sec
 * total energy  :   -56.0204712 Eh     change       -0.1402683E-06 Eh
   gradient norm :     0.0001218 Eh/α   predicted    -0.6905542E-07 ( -50.77%)
   displ. norm   :     0.0069759 α      lambda        0.2384852E-07
   maximum displ.:     0.0046510 α      in ANC's #4, #2, #5, ...

........................................................................
.............................. CYCLE   11 ..............................
........................................................................

 iter      E             dE          RMSdq      gap      omega  full diag
   1    -56.8373259 -0.568373E+02  0.223E-03    1.33       0.0  T
   2    -56.8373259 -0.843315E-09  0.132E-03    1.33      13.2  T
   3    -56.8373259  0.724583E-09  0.183E-04    1.33      95.0  T
   4    -56.8373259 -0.999897E-09  0.579E-05    1.33     300.8  T
     SCC iter.                  ...        0 min,  0.007 sec
     gradient                   ...        0 min,  0.019 sec
 * total energy  :   -56.0204712 Eh     change        0.1111857E-08 Eh
   gradient norm :     0.0002372 Eh/α   predicted     0.1151353E-07 ( 935.52%)
   displ. norm   :     0.0028394 α      lambda       -0.1096814E-06
   maximum displ.:     0.0017816 α      in ANC's #4, #2, #3, ...

........................................................................
.............................. CYCLE   12 ..............................
........................................................................

 iter      E             dE          RMSdq      gap      omega  full diag
   1    -56.8373824 -0.568374E+02  0.119E-03    1.33       0.0  T
   2    -56.8373824 -0.155801E-09  0.715E-04    1.33      24.4  T
   3    -56.8373824  0.113616E-09  0.760E-05    1.33     229.1  T
     SCC iter.                  ...        0 min,  0.005 sec
     gradient                   ...        0 min,  0.019 sec
 * total energy  :   -56.0204713 Eh     change       -0.9867021E-07 Eh
   gradient norm :     0.0001336 Eh/α   predicted    -0.5556267E-07 ( -43.69%)
   displ. norm   :     0.0037517 α      lambda       -0.5975398E-07
   maximum displ.:     0.0023135 α      in ANC's #2, #4, #5, ...

   *** GEOMETRY OPTIMIZATION CONVERGED AFTER 12 ITERATIONS ***

------------------------------------------------------------------------
 total energy gain   :        -0.0021845 Eh       -1.3708 kcal/mol
 total RMSD          :         0.0603545 a0        0.0319 Å
 total power (kW/mol):        -0.4779431 (step)  -12.3741 (real)
------------------------------------------------------------------------

 ANCopt (total)                0 d,  0 h,  0 min,  0.464 sec
 optimizer setup                ...        0 min,  0.012 sec (  2.578%)
 model hessian                  ...        0 min,  0.008 sec (  1.828%)
 ANC generation                 ...        0 min,  0.001 sec (  0.210%)
 coordinate transformation      ...        0 min,  0.000 sec (  0.038%)
 single point calculation       ...        0 min,  0.432 sec ( 93.291%)
 optimization log               ...        0 min,  0.008 sec (  1.691%)
 hessian update                 ...        0 min,  0.000 sec (  0.040%)
 rational function              ...        0 min,  0.001 sec (  0.174%)

================
 final structure:
================
$coord
       -8.53039004020750       -2.10019433765120       -0.85215204551193      C
       -7.14251434731489       -4.29707743610221       -0.49448358254993      C
       -4.57258438834376       -4.16246731162789       -0.04386927735583      C
       -3.34206314822560       -1.83658314746863        0.05032261519024      C
       -4.74372821760677        0.37568719344228       -0.31485448246934      C
       -7.33510842658512        0.21991544994192       -0.76034329016366      C
       -3.51535397982542        2.86162358477579       -0.23459879452882      C
       -4.72852044694713        4.82476540464027       -0.50709671454764      O
       -0.76067324253228        2.88970482809748        0.16904470862229      C
        0.41284669866182        5.22715859889484        0.13266421683609      C
        3.01441062004321        5.41482205899337        0.47693204494651      C
        4.43250851343347        3.28572643857443        0.86078608509132      C
        3.31583175878259        0.85351755928635        0.93476156904100      C
        0.64659046438372        0.65124472089862        0.56779486002600      C
       -0.59808779401411       -1.78411045873037        0.55573326630485      C
        0.52033065186923       -3.81518881842492        0.93827236288205      O
        4.70764890359327       -1.20939160476815        1.40172115895983      N
        7.42540122323597       -1.33465046682400        1.48992769120762      C
        8.63013742617382       -1.25525376761411       -1.15938708585013      C
        7.93823895086603       -3.32758953842733       -2.67879418303766      O
      -10.53611416371558       -2.19941697677138       -1.20107733940768      H
       -8.06600500496649       -6.11299462219557       -0.56557008862734      H
       -3.46090828859673       -5.84952256043104        0.24419320887746      H
       -8.36659972939936        1.96015847723121       -1.03077602718841      H
       -0.73698318768745        6.88310704100470       -0.17459711194186      H
        3.90866465311892        7.24611290672512        0.43590780758603      H
        6.44316472168877        3.46263374333015        1.11850563418988      H
        3.74769346510926       -2.87094808921057        1.26074677890917      H
        7.92123129194939       -3.11006372046219        2.41420119188840      H
        8.18476639059888        0.21664712992147        2.61751541474358      H
       10.69089999259461       -1.14540659081791       -0.96171849502709      H
        7.96826155469092        0.41062195152419       -2.18300262944384      H
        8.59262013789616       -4.86762290827234       -1.94251198754353      H
$end
 
 Bond Distances (Angstroems)
 ---------------------------
C1-C2=1.3881         C1-C6=1.3820         C1-H21=1.0786        C2-C1=1.3881         C2-C3=1.3825         C2-H22=1.0787        
C3-C2=1.3825         C3-C4=1.3933         C3-H23=1.0800        C4-C3=1.3933         C4-C5=1.3993         C4-C15=1.4767        
C5-C4=1.3993         C5-C6=1.3939         C5-C7=1.4680         C6-C1=1.3820         C6-C5=1.3939         C6-H24=1.0800        
C7-C5=1.4680         C7-O8=1.2297         C7-C9=1.4734         O8-C7=1.2297         C9-C7=1.4734         C9-C10=1.3842        
C9-C14=1.4150        C10-C9=1.3842        C10-C11=1.3922       C10-H25=1.0791       C11-C10=1.3922       C11-C12=1.3689       
C11-H26=1.0787       C12-C11=1.3689       C12-C13=1.4168       C12-H27=1.0768       C13-C12=1.4168       C13-C14=1.4298       
C13-N17=1.3399       C14-C9=1.4150        C14-C13=1.4298       C14-C15=1.4473       C15-C4=1.4767        C15-C14=1.4473       
C15-O16=1.2436       O16-C15=1.2436       N17-C13=1.3399       N17-C18=1.4405       N17-H28=1.0182       C18-N17=1.4405       
C18-C19=1.5407       C18-H29=1.0912       C18-H30=1.0915       C19-C18=1.5407       C19-O20=1.4082       C19-H31=1.0971       
C19-H32=1.0923       O20-C19=1.4082       O20-H33=0.9674       H21-C1=1.0786        H22-C2=1.0787        H23-C3=1.0800        
H24-C6=1.0800        H25-C10=1.0791       H26-C11=1.0787       H27-C12=1.0768       H28-N17=1.0182       H29-C18=1.0912       
H30-C18=1.0915       H31-C19=1.0971       H32-C19=1.0923       H33-O20=0.9674       
 C  H  Rav=1.0840 sigma=0.0070  Rmin=1.0768  Rmax=1.0971    11
 C  C  Rav=1.4207 sigma=0.0448  Rmin=1.3689  Rmax=1.5407    17
 N  H  Rav=1.0182 sigma=0.0000  Rmin=1.0182  Rmax=1.0182     1
 N  C  Rav=1.3902 sigma=0.0503  Rmin=1.3399  Rmax=1.4405     2
 O  H  Rav=0.9674 sigma=0.0000  Rmin=0.9674  Rmax=0.9674     1
 O  C  Rav=1.2938 sigma=0.0811  Rmin=1.2297  Rmax=1.4082     3
 
 selected bond angles (degree)
 --------------------
C6-C1-C2=119.81                H21-C1-C2=120.21               H21-C1-C6=119.98               C3-C2-C1=120.05                
H22-C2-C1=120.11               H22-C2-C3=119.84               C4-C3-C2=120.76                H23-C3-C2=121.17               
H23-C3-C4=118.07               C5-C4-C3=119.10                C15-C4-C3=118.86               C15-C4-C5=122.04               
C6-C5-C4=119.69                C7-C5-C4=120.73                C7-C5-C6=119.57                C5-C6-C1=120.58                
H24-C6-C1=121.44               H24-C6-C5=117.98               O8-C7-C5=121.50                C9-C7-C5=116.83                
C9-C7-O8=121.67                C10-C9-C7=116.80               C14-C9-C7=122.27               C14-C9-C10=120.93              
C11-C10-C9=120.37              H25-C10-C9=118.34              H25-C10-C11=121.29             
 
 selected dihedral angles (degree)
 ---------------------------------
C3-C2-C1-C6=  0.10            C3-C2-C1-H21=180.10           H22-C2-C1-C6=180.04           H22-C2-C1-H21=  0.04          
C4-C3-C2-C1=359.81            C4-C3-C2-H22=179.87           H23-C3-C2-C1=179.83           H23-C3-C2-H22=359.89          
C5-C4-C3-C2=  0.08            C5-C4-C3-H23=180.06           C15-C4-C3-C2=179.55           C15-C4-C3-H23=359.53          
C6-C5-C4-C3=  0.11            C6-C5-C4-C15=180.66           C7-C5-C4-C3=180.12            C7-C5-C4-C15=  0.67           
C5-C6-C1-C2=  0.09            C5-C6-C1-H21=180.10           H24-C6-C1-C2=180.03           H24-C6-C1-H21=  0.03          
C1-C6-C5-C4=359.80            C1-C6-C5-C7=179.79            H24-C6-C5-C4=179.86           H24-C6-C5-C7=359.85           
O8-C7-C5-C4=181.31            O8-C7-C5-C6=  1.32            C9-C7-C5-C4=  1.74            C9-C7-C5-C6=181.76            
C10-C9-C7-C5=177.22           C10-C9-C7-O8=357.65           C14-C9-C7-C5=357.45           C14-C9-C7-O8=177.88           
C11-C10-C9-C7=180.56          C11-C10-C9-C14=  0.33         H25-C10-C9-C7=  0.33          H25-C10-C9-C14=180.11         
           -------------------------------------------------
          |                Final Singlepoint                |
           -------------------------------------------------

          ...................................................
          :                      SETUP                      :
          :.................................................:
          :  # basis functions                  93          :
          :  # atomic orbitals                  93          :
          :  # shells                           53          :
          :  # electrons                       100          :
          :  max. iterations                   250          :
          :  Hamiltonian                  GFN2-xTB          :
          :  restarted?                      false          :
          :  GBSA solvation                   true          :
          :  PC potential                    false          :
          :  electronic temp.          300.0000000     K    :
          :  accuracy                    1.0000000          :
          :  -> integral cutoff          0.2500000E+02      :
          :  -> integral neglect         0.1000000E-07      :
          :  -> SCF convergence          0.1000000E-05 Eh   :
          :  -> wf. convergence          0.1000000E-03 e    :
          :  Broyden damping             0.4000000          :
          :  net charge                          0          :
          :  unpaired electrons                  0          :
          ...................................................

 iter      E             dE          RMSdq      gap      omega  full diag
   1    -56.8373824 -0.568374E+02  0.243E-05    1.33       0.0  T
   2    -56.8373824 -0.306244E-11  0.175E-05    1.33     993.4  T
   3    -56.8373824 -0.433431E-11  0.104E-05    1.33    1681.5  T

   *** convergence criteria satisfied after 3 iterations ***

         #    Occupation            Energy/Eh            Energy/eV
      -------------------------------------------------------------
         1        2.0000           -0.7128544             -19.3978
       ...           ...                  ...                  ...
        44        2.0000           -0.4273359             -11.6284
        45        2.0000           -0.4220717             -11.4852
        46        2.0000           -0.4203227             -11.4376
        47        2.0000           -0.4193995             -11.4124
        48        2.0000           -0.4072436             -11.0817
        49        2.0000           -0.3869164             -10.5285
        50        2.0000           -0.3713614             -10.1053 (HOMO)
        51                         -0.3226050              -8.7785 (LUMO)
        52                         -0.2705316              -7.3615
        53                         -0.2412119              -6.5637
        54                         -0.2297361              -6.2514
        55                         -0.1837927              -5.0013
       ...                                ...                  ...
        93                          0.7110978              19.3500
      -------------------------------------------------------------
                  HL-Gap            0.0487564 Eh            1.3267 eV
             Fermi-level           -0.3469832 Eh           -9.4419 eV

 SCC (total)                   0 d,  0 h,  0 min,  0.034 sec
 SCC setup                      ...        0 min,  0.003 sec (  7.620%)
 Dispersion                     ...        0 min,  0.000 sec (  0.778%)
 classical contributions        ...        0 min,  0.000 sec (  0.161%)
 integral evaluation            ...        0 min,  0.006 sec ( 17.135%)
 iterations                     ...        0 min,  0.005 sec ( 15.884%)
 molecular gradient             ...        0 min,  0.019 sec ( 57.736%)
 printout                       ...        0 min,  0.000 sec (  0.634%)

         :::::::::::::::::::::::::::::::::::::::::::::::::::::
         ::                     SUMMARY                     ::
         :::::::::::::::::::::::::::::::::::::::::::::::::::::
         :: total energy             -56.020471317699 Eh    ::
         :: total w/o Gsasa/hb       -56.014442088194 Eh    ::
         :: gradient norm              0.000133364876 Eh/a0 ::
         :: HOMO-LUMO gap              1.326729597720 eV    ::
         ::.................................................::
         :: SCC energy               -56.837368229196 Eh    ::
         :: -> isotropic ES            0.112800900066 Eh    ::
         :: -> anisotropic ES         -0.003179288869 Eh    ::
         :: -> anisotropic XC          0.019060913993 Eh    ::
         :: -> dispersion             -0.036714782093 Eh    ::
         :: -> Gsolv                  -0.025819419223 Eh    ::
         ::    -> Gelec               -0.019790189717 Eh    ::
         ::    -> Gsasa                0.001287199410 Eh    ::
         ::    -> Ghb                 -0.008397188614 Eh    ::
         ::    -> Gshift               0.001080759698 Eh    ::
         :: repulsion energy           0.816896911497 Eh    ::
         :: add. restraining           0.000000000000 Eh    ::
         :: total charge              -0.000000000000 e     ::
         :::::::::::::::::::::::::::::::::::::::::::::::::::::

           ------------------------------------------------- 
          |                Numerical Hessian                |
           ------------------------------------------------- 
step length          :   0.00500
SCC accuracy         :   0.30000
Hessian scale factor :   1.00000
frozen atoms in %    :   0.00000    0
RMS gradient         :   0.00013
estimated CPU  time      0.12 min
estimated wall time      0.12 min

writing file <hessian>.

 projected vibrational frequencies (cm⁻¹)
eigval :       -0.00    -0.00     0.00     0.00     0.00     0.00
eigval :       22.58    32.66    48.92    65.38   100.87   113.98
eigval :      149.22   169.66   185.06   221.53   261.09   283.60
eigval :      327.31   333.84   361.90   376.58   381.51   386.48
eigval :      412.39   448.25   458.99   466.27   501.07   522.62
eigval :      572.89   601.81   617.49   627.77   660.52   669.85
eigval :      677.64   693.81   761.76   764.80   780.60   803.55
eigval :      851.81   880.64   887.63   894.26   900.04   922.04
eigval :      926.26   928.25   930.33  1011.82  1023.79  1078.19
eigval :     1085.20  1092.29  1112.56  1138.05  1150.47  1170.05
eigval :     1172.25  1188.22  1212.45  1221.18  1233.82  1262.35
eigval :     1270.45  1283.23  1289.58  1313.55  1329.80  1338.32
eigval :     1355.77  1382.28  1417.60  1432.37  1453.35  1456.35
eigval :     1458.37  1494.82  1517.50  1557.01  1570.63  1574.02
eigval :     1587.63  1617.47  2896.15  2973.87  2980.79  2992.24
eigval :     3088.54  3090.11  3093.97  3097.44  3102.90  3106.65
eigval :     3124.70  3254.64  3493.85
           -------------------------------------------------
          |                Property Printout                |
           -------------------------------------------------

    * Orbital Energies and Occupations

         #    Occupation            Energy/Eh            Energy/eV
      -------------------------------------------------------------
         1        2.0000           -0.7128543             -19.3978
       ...           ...                  ...                  ...
        38        2.0000           -0.4595508             -12.5050
        39        2.0000           -0.4565355             -12.4230
        40        2.0000           -0.4519904             -12.2993
        41        2.0000           -0.4507397             -12.2653
        42        2.0000           -0.4430966             -12.0573
        43        2.0000           -0.4343129             -11.8183
        44        2.0000           -0.4273359             -11.6284
        45        2.0000           -0.4220717             -11.4852
        46        2.0000           -0.4203227             -11.4376
        47        2.0000           -0.4193995             -11.4124
        48        2.0000           -0.4072435             -11.0817
        49        2.0000           -0.3869164             -10.5285
        50        2.0000           -0.3713614             -10.1053 (HOMO)
        51                         -0.3226050              -8.7785 (LUMO)
        52                         -0.2705316              -7.3615
        53                         -0.2412119              -6.5637
        54                         -0.2297361              -6.2514
        55                         -0.1837928              -5.0013
        56                         -0.1819225              -4.9504
        57                         -0.1089299              -2.9641
        58                         -0.0600445              -1.6339
        59                          0.0111003               0.3021
        60                          0.0551637               1.5011
        61                          0.0767420               2.0883
       ...                                ...                  ...
        93                          0.7110979              19.3500
      -------------------------------------------------------------
                  HL-Gap            0.0487564 Eh            1.3267 eV
             Fermi-level           -0.3469832 Eh           -9.4419 eV

     #   Z          covCN         q      C6AA      α(0)
     1   6 C        2.917    -0.026    28.649     8.777
     2   6 C        2.918    -0.024    28.612     8.772
     3   6 C        2.924    -0.020    28.513     8.757
     4   6 C        2.976    -0.012    28.313     8.728
     5   6 C        2.976    -0.018    28.442     8.748
     6   6 C        2.923    -0.019    28.472     8.750
     7   6 C        2.835     0.224    23.285     7.908
     8   8 O        0.858    -0.451    22.731     6.392
     9   6 C        2.972    -0.018    28.447     8.749
    10   6 C        2.925    -0.030    28.745     8.792
    11   6 C        2.912    -0.025    28.637     8.775
    12   6 C        2.919    -0.051    29.256     8.870
    13   6 C        2.898     0.093    25.935     8.350
    14   6 C        2.971    -0.055    29.372     8.890
    15   6 C        2.831     0.212    23.520     7.947
    16   8 O        0.858    -0.480    23.350     6.479
    17   7 N        2.691    -0.137    23.977     7.272
    18   6 C        3.736    -0.023    21.077     6.552
    19   6 C        3.673     0.070    19.627     6.349
    20   8 O        1.655    -0.514    23.190     6.501
    21   1 H        0.926     0.067     2.119     2.276
    22   1 H        0.926     0.068     2.105     2.269
    23   1 H        0.926     0.068     2.108     2.271
    24   1 H        0.926     0.063     2.163     2.300
    25   1 H        0.926     0.059     2.213     2.327
    26   1 H        0.926     0.067     2.123     2.278
    27   1 H        0.926     0.071     2.078     2.254
    28   1 H        0.860     0.227     0.977     1.549
    29   1 H        0.924     0.080     1.983     2.202
    30   1 H        0.924     0.075     2.026     2.226
    31   1 H        0.924     0.044     2.398     2.421
    32   1 H        0.924     0.056     2.244     2.343
    33   1 H        0.805     0.359     0.568     1.184

 Mol. C6AA /au·bohr⁶  :      14302.978277
 Mol. C8AA /au·bohr⁸  :     352076.647064
 Mol. α(0) /au        :        188.256359


Wiberg/Mayer (AO) data.
largest (>0.10) Wiberg bond orders for each atom

 ---------------------------------------------------------------------------
     #   Z sym  total        # sym  WBO       # sym  WBO       # sym  WBO
 ---------------------------------------------------------------------------
     1   6 C    3.980 --     6 C    1.448     2 C    1.421    21 H    0.967
     2   6 C    3.982 --     3 C    1.444     1 C    1.421    22 H    0.967
     3   6 C    3.981 --     2 C    1.444     4 C    1.393    23 H    0.964
     4   6 C    3.988 --     3 C    1.393     5 C    1.327    15 C    1.039
     5   6 C    3.988 --     6 C    1.384     4 C    1.327     7 C    1.050
     6   6 C    3.983 --     1 C    1.448     5 C    1.384    24 H    0.965
     7   6 C    3.924 --     8 O    1.703     5 C    1.050     9 C    1.047
     8   8 O    1.980 --     7 C    1.703
     9   6 C    3.988 --    10 C    1.435    14 C    1.281     7 C    1.047
    10   6 C    3.981 --     9 C    1.435    11 C    1.353    25 H    0.965
    11   6 C    3.986 --    12 C    1.531    10 C    1.353    26 H    0.966
    12   6 C    3.982 --    11 C    1.531    13 C    1.251    27 H    0.960
    13   6 C    3.974 --    17 N    1.317    12 C    1.251    14 C    1.237
    14   6 C    3.979 --     9 C    1.281    13 C    1.237    15 C    1.145
    15   6 C    3.941 --    16 O    1.607    14 C    1.145     4 C    1.039
    16   8 O    1.982 --    15 C    1.607
    17   7 N    3.496 --    13 C    1.317    18 C    1.005    28 H    0.878
    18   6 C    3.966 --    17 N    1.005    19 C    0.975    29 H    0.968
                            30 H    0.960
    19   6 C    3.950 --    20 O    1.002    18 C    0.975    32 H    0.970
                            31 H    0.967
    20   8 O    1.918 --    19 C    1.002    33 H    0.857
    21   1 H    0.995 --     1 C    0.967
    22   1 H    0.994 --     2 C    0.967
    23   1 H    0.995 --     3 C    0.964
    24   1 H    0.996 --     6 C    0.965
    25   1 H    0.996 --    10 C    0.965
    26   1 H    0.994 --    11 C    0.966
    27   1 H    0.994 --    12 C    0.960
    28   1 H    0.948 --    17 N    0.878
    29   1 H    0.993 --    18 C    0.968
    30   1 H    0.994 --    18 C    0.960
    31   1 H    0.997 --    19 C    0.967
    32   1 H    0.997 --    19 C    0.970
    33   1 H    0.871 --    20 O    0.857
 ---------------------------------------------------------------------------

Topologies differ in total number of bonds
Writing topology from bond orders to xtbtopo.mol

molecular dipole:
                 x           y           z       tot (Debye)
 q only:        2.153      -0.839       0.702
   full:        2.127      -0.863       0.751       6.138
molecular quadrupole (traceless):
                xx          xy          yy          xz          yz          zz
 q only:       25.908      13.913     -12.268       9.835       0.900     -13.640
  q+dip:       29.318      13.742      -9.659      11.724      -0.563     -19.659
   full:       26.260      13.493     -12.906      10.204       0.413     -13.354

           -------------------------------------------------
          |                Geometry Summary                 |
           -------------------------------------------------

      molecular mass/u    :      267.2799221
   center of mass at/Å    :        0.0000542       0.0002217       0.0005131
  moments of inertia/u·Å² :        0.8246168E+03   0.2145246E+04   0.2818624E+04
rotational constants/cm⁻¹ :        0.2044299E-01   0.7858134E-02   0.5980802E-02

 * 30 selected distances

     #   Z          #   Z                                           value/Å
     1   6 C        2   6 C                                       1.3880614
     2   6 C        3   6 C                                       1.3825320
     3   6 C        4   6 C                                       1.3933341
     4   6 C        5   6 C                                       1.3992871
     1   6 C        6   6 C                                       1.3819570
     5   6 C        6   6 C                                       1.3938550
     7   6 C        8   8 O                                       1.2296916
     9   6 C       10   6 C                                       1.3841969
    10   6 C       11   6 C                                       1.3922364
    11   6 C       12   6 C                                       1.3688614
    12   6 C       13   6 C                                       1.4167805
     9   6 C       14   6 C                                       1.4150022
    13   6 C       14   6 C                                       1.4298001
    15   6 C       16   8 O                                       1.2435638
    13   6 C       17   7 N                                       1.3398535
    17   7 N       18   6 C                                       1.4404559 (max)
    19   6 C       20   8 O                                       1.4082377
     1   6 C       21   1 H                                       1.0786034
     2   6 C       22   1 H                                       1.0787228
     3   6 C       23   1 H                                       1.0799572
     6   6 C       24   1 H                                       1.0800343
    10   6 C       25   1 H                                       1.0791433
    11   6 C       26   1 H                                       1.0786652
    12   6 C       27   1 H                                       1.0767755
    17   7 N       28   1 H                                       1.0181896
    18   6 C       29   1 H                                       1.0912119
    18   6 C       30   1 H                                       1.0915189
    19   6 C       31   1 H                                       1.0970550
    19   6 C       32   1 H                                       1.0923391
    20   8 O       33   1 H                                       0.9674004 (min)

 * 6 distinct bonds (by element types)

   Z      Z             #   av. dist./Å        max./Å        min./Å
   1 H    6 C          11     1.0840024     1.0970550     1.0767755
   6 C    6 C          12     1.3954920     1.4298001     1.3688614
   1 H    7 N           1     1.0181896     1.0181896     1.0181896
   6 C    7 N           2     1.3901547     1.4404559     1.3398535
   1 H    8 O           1     0.9674004     0.9674004     0.9674004
   6 C    8 O           3     1.2938310     1.4082377     1.2296916

           -------------------------------------------------
          |               Frequency Printout                |
           -------------------------------------------------
 projected vibrational frequencies (cm⁻¹)
eigval :       -0.00    -0.00     0.00     0.00     0.00     0.00
eigval :       22.58    32.66    48.92    65.38   100.87   113.98
eigval :      149.22   169.66   185.06   221.53   261.09   283.60
eigval :      327.31   333.84   361.90   376.58   381.51   386.48
eigval :      412.39   448.25   458.99   466.27   501.07   522.62
eigval :      572.89   601.81   617.49   627.77   660.52   669.85
eigval :      677.64   693.81   761.76   764.80   780.60   803.55
eigval :      851.81   880.64   887.63   894.26   900.04   922.04
eigval :      926.26   928.25   930.33  1011.82  1023.79  1078.19
eigval :     1085.20  1092.29  1112.56  1138.05  1150.47  1170.05
eigval :     1172.25  1188.22  1212.45  1221.18  1233.82  1262.35
eigval :     1270.45  1283.23  1289.58  1313.55  1329.80  1338.32
eigval :     1355.77  1382.28  1417.60  1432.37  1453.35  1456.35
eigval :     1458.37  1494.82  1517.50  1557.01  1570.63  1574.02
eigval :     1587.63  1617.47  2896.15  2973.87  2980.79  2992.24
eigval :     3088.54  3090.11  3093.97  3097.44  3102.90  3106.65
eigval :     3124.70  3254.64  3493.85
 reduced masses (amu)
   1: 12.31   2: 11.96   3: 12.08   4: 11.82   5: 11.89   6: 12.84   7: 12.90   8: 13.54
   9: 13.31  10: 12.13  11: 10.44  12: 10.31  13: 12.03  14: 10.92  15: 10.09  16: 11.01
  17: 11.19  18: 11.74  19: 11.97  20:  5.50  21: 11.09  22:  9.35  23:  9.61  24: 10.72
  25: 14.90  26:  9.90  27: 11.69  28: 12.11  29: 10.52  30:  9.86  31: 11.41  32: 10.94
  33:  8.67  34:  5.89  35: 11.23  36: 10.45  37: 11.24  38: 10.36  39: 10.62  40: 11.48
  41:  4.78  42:  5.42  43: 10.18  44:  4.19  45:  9.41  46:  3.62  47: 10.00  48:  3.61
  49:  8.74  50:  4.13  51:  3.52  52:  5.51  53: 10.14  54: 11.65  55:  6.07  56:  9.12
  57:  6.48  58:  6.99  59:  4.99  60:  2.66  61:  4.96  62:  2.79  63:  7.16  64:  3.14
  65:  4.25  66:  8.27  67:  6.40  68:  8.03  69:  3.34  70:  4.34  71:  3.05  72: 12.01
  73: 10.83  74: 10.11  75:  9.67  76:  9.67  77:  2.63  78:  2.03  79:  9.17  80: 11.01
  81: 11.23  82: 12.46  83: 11.75  84: 11.87  85: 11.96  86: 13.00  87:  1.74  88:  1.85
  89:  1.60  90:  1.71  91:  1.78  92:  1.80  93:  1.78  94:  1.85  95:  1.87  96:  1.92
  97:  1.85  98:  1.87  99:  1.87
 IR intensities (km·mol⁻¹)
   1:  0.03   2:  0.18   3:  0.18   4:  0.47   5:  0.00   6:  0.80   7:  7.74   8:  1.08
   9:  3.85  10:  2.28  11:  1.73  12:  4.22  13:  4.76  14:  2.77  15:  0.47  16:  3.41
  17:  1.24  18:  1.97  19: 16.73  20:225.88  21: 27.72  22: 14.04  23:  0.75  24:  1.02
  25: 49.27  26:  0.67  27:  1.27  28:  7.21  29: 13.29  30:  4.82  31: 16.63  32: 11.15
  33: 29.20  34: 86.85  35:  6.10  36: 15.41  37:  6.50  38: 69.36  39:  0.10  40:  0.76
  41:  1.18  42: 20.12  43: 20.48  44:  0.51  45: 17.71  46:  0.04  47:  9.86  48:  0.09
  49:  8.87  50:  0.04  51:  0.02  52: 85.88  53: 48.95  54: 98.57  55:  0.25  56: 12.81
  57: 16.45  58: 60.65  59: 20.09  60:  1.45  61: 10.42  62: 23.85  63: 15.06  64: 30.84
  65:  2.16  66:174.61  67: 78.27  68:861.98  69: 68.54  70:118.56  71: 42.05  72: 26.04
  73:  5.48  74: 58.59  75: 35.99  76:235.76  77: 26.87  78:  8.63  79: 15.81  80:519.64
  81:182.01  82:431.89  83:404.96  84: 32.22  85:549.96  86:409.85  87:103.21  88: 32.27
  89: 23.04  90: 63.45  91:  8.33  92:  0.79  93: 15.11  94: 47.12  95: 49.86  96: 84.80
  97: 28.67  98:168.70  99: 78.63
 Raman intensities (Ä⁴*amu⁻¹)
   1:  0.00   2:  0.00   3:  0.00   4:  0.00   5:  0.00   6:  0.00   7:  0.00   8:  0.00
   9:  0.00  10:  0.00  11:  0.00  12:  0.00  13:  0.00  14:  0.00  15:  0.00  16:  0.00
  17:  0.00  18:  0.00  19:  0.00  20:  0.00  21:  0.00  22:  0.00  23:  0.00  24:  0.00
  25:  0.00  26:  0.00  27:  0.00  28:  0.00  29:  0.00  30:  0.00  31:  0.00  32:  0.00
  33:  0.00  34:  0.00  35:  0.00  36:  0.00  37:  0.00  38:  0.00  39:  0.00  40:  0.00
  41:  0.00  42:  0.00  43:  0.00  44:  0.00  45:  0.00  46:  0.00  47:  0.00  48:  0.00
  49:  0.00  50:  0.00  51:  0.00  52:  0.00  53:  0.00  54:  0.00  55:  0.00  56:  0.00
  57:  0.00  58:  0.00  59:  0.00  60:  0.00  61:  0.00  62:  0.00  63:  0.00  64:  0.00
  65:  0.00  66:  0.00  67:  0.00  68:  0.00  69:  0.00  70:  0.00  71:  0.00  72:  0.00
  73:  0.00  74:  0.00  75:  0.00  76:  0.00  77:  0.00  78:  0.00  79:  0.00  80:  0.00
  81:  0.00  82:  0.00  83:  0.00  84:  0.00  85:  0.00  86:  0.00  87:  0.00  88:  0.00
  89:  0.00  90:  0.00  91:  0.00  92:  0.00  93:  0.00  94:  0.00  95:  0.00  96:  0.00
  97:  0.00  98:  0.00  99:  0.00
 output can be read by thermo (or use thermo option).
 writing <g98.out> molden fake output.
 recommended (thermochemical) frequency scaling factor: 1.0
           -------------------------------------------------
          |             Thermodynamic Functions             |
           -------------------------------------------------

Molecule has no symmetry elements
It seems to be the C1 point group
c1  symmetry found (for desy threshold:  0.10E+00) used in thermo

          ...................................................
          :                      SETUP                      :
          :.................................................:
          :  # frequencies                          93      :
          :  # imaginary freq.                       0      :
          :  linear?                             false      :
          :  only rotor calc.                    false      :
          :  symmetry                               c1      :
          :  rotational number                       1      :
          :  scaling factor                  1.0000000      :
          :  rotor cutoff                    0.0000000 cm⁻¹ :
          :  imag. cutoff                 -100.0000000 cm⁻¹ :
          :.................................................:

    mode    ω/cm⁻¹     T·S(HO)/kcal·mol⁻¹    T·S(FR)/kcal·mol⁻¹   T·S(vib)
   ------------------------------------------------------------------------
       1     22.58    -1.90610 (100.00%)    -1.29190 (  0.00%)    -1.90610
       2     32.66    -1.68782 (100.00%)    -1.18264 (  0.00%)    -1.68782
       3     48.92    -1.44912 (100.00%)    -1.06294 (  0.00%)    -1.44912
       4     65.38    -1.27839 (100.00%)    -0.97705 (  0.00%)    -1.27839
       5    100.87    -1.02489 (100.00%)    -0.84863 (  0.00%)    -1.02489
       6    113.98    -0.95405 (100.00%)    -0.81241 (  0.00%)    -0.95405
       7    149.22    -0.79967 (100.00%)    -0.73262 (  0.00%)    -0.79967
       8    169.66    -0.72726 (100.00%)    -0.69459 (  0.00%)    -0.72726
       9    185.06    -0.67881 (100.00%)    -0.66886 (  0.00%)    -0.67881
      10    221.53    -0.58037 (100.00%)    -0.61558 (  0.00%)    -0.58037
      11    261.09    -0.49328 (100.00%)    -0.56690 (  0.00%)    -0.49328
      12    283.60    -0.45075 (100.00%)    -0.54240 (  0.00%)    -0.45075
   ------------------------------------------------------------------------

   temp. (K)  partition function   enthalpy   heat capacity  entropy
                                   cal/mol     cal/K/mol   cal/K/mol   J/K/mol
 298.15  VIB  0.149E+07             8873.920     60.518     58.012
         ROT  0.539E+07              888.752      2.981     33.785
         INT  0.804E+13             9762.672     63.499     91.797
         TR   0.423E+28             1481.254      4.968     42.629
         TOT                       11243.9263    68.4675   134.4265   562.4406

       T/K    H(0)-H(T)+PV         H(T)/Eh          T*S/Eh         G(T)/Eh
   ------------------------------------------------------------------------
    298.15    0.179183E-01    0.266544E+00    0.638704E-01    0.202674E+00
   ------------------------------------------------------------------------

         :::::::::::::::::::::::::::::::::::::::::::::::::::::
         ::                  THERMODYNAMIC                  ::
         :::::::::::::::::::::::::::::::::::::::::::::::::::::
         :: total free energy         -55.817797378786 Eh   ::
         ::.................................................::
         :: total energy              -56.020471317740 Eh   ::
         :: zero point energy           0.248625980287 Eh   ::
         :: G(RRHO) w/o ZPVE           -0.045952041333 Eh   ::
         :: G(RRHO) contrib.            0.202673938954 Eh   ::
         :::::::::::::::::::::::::::::::::::::::::::::::::::::

optimized geometry written to: xtbopt.coord


           -------------------------------------------------
          | TOTAL ENERGY              -56.020471317740 Eh   |
          | TOTAL ENTHALPY            -55.753927000418 Eh   |
          | TOTAL FREE ENERGY         -55.817797378786 Eh   |
          | GRADIENT NORM               0.000133381847 Eh/α |
          | HOMO-LUMO GAP               1.326730487349 eV   |
           -------------------------------------------------

------------------------------------------------------------------------
 * finished run on 2025/04/11 at 18:22:01.948     
------------------------------------------------------------------------
 total:
 * wall-time:     0 d,  0 h,  0 min,  8.174 sec
 *  cpu-time:     0 d,  0 h,  0 min,  8.038 sec
 * ratio c/w:     0.983 speedup
 SCF:
 * wall-time:     0 d,  0 h,  0 min,  0.065 sec
 *  cpu-time:     0 d,  0 h,  0 min,  0.052 sec
 * ratio c/w:     0.798 speedup
 ANC optimizer:
 * wall-time:     0 d,  0 h,  0 min,  0.509 sec
 *  cpu-time:     0 d,  0 h,  0 min,  0.480 sec
 * ratio c/w:     0.942 speedup
 analytical hessian:
 * wall-time:     0 d,  0 h,  0 min,  7.532 sec
 *  cpu-time:     0 d,  0 h,  0 min,  7.482 sec
 * ratio c/w:     0.993 speedup

