33
 energy: -56.018286852056 gnorm: 0.035385952300 xtb: 6.7.1 (edcfbbe)
C           -4.54493875833182       -1.11076699909172       -0.45464977309628
C           -3.80810823758114       -2.28074312281693       -0.26538540732611
C           -2.44163856817802       -2.21731612761073       -0.02694616287344
C           -1.79078668511528       -0.98190857230370        0.02260990710067
C           -2.53447514281253        0.19413089186278       -0.16885697354632
C           -3.91016196086125        0.12155059261397       -0.40524495023886
C           -1.86940140735873        1.50772459908871       -0.12051414464284
O           -2.51567640893473        2.55124951294624       -0.25641329203453
C           -0.40073928628956        1.53754215431033        0.08921542553103
C            0.22000969034490        2.77584167560408        0.07001771890995
C            1.60317068859404        2.85946054944228        0.25270080988818
C            2.35960587467522        1.72980526499798        0.46060155214283
C            1.76176694049478        0.44306695434925        0.50684656178973
C            0.34267397527495        0.34400492716409        0.30062436835617
C           -0.32936831764859       -0.94213613049455        0.28284139098520
O            0.27247827588810       -2.02230444884817        0.47098114075452
N            2.51076699378999       -0.65134541064638        0.76524877425292
C            3.96599182011087       -0.68703725297549        0.77465947636340
C            4.58576096839104       -0.64989246619096       -0.61709964013251
O            4.19320272824475       -1.77479645473020       -1.41788115372278
H           -5.61235877774008       -1.16412550209213       -0.64067277288653
H           -4.30377413694298       -3.24513119366894       -0.30422632189319
H           -1.86946708828782       -3.12567232324429        0.12095740196893
H           -4.47098827441264        1.03792935595592       -0.55057332790959
H           -0.37085126968959        3.66880638116638       -0.09184720312487
H            2.09183265957534        3.82807550254743        0.22969720160425
H            3.42902134467159        1.82809178411635        0.59682006070299
H            2.01121176205518       -1.53160659839475        0.69156579524902
H            4.26026243300374       -1.61757922505964        1.27105164353792
H            4.37259259694688        0.13382633130076        1.37537937869745
H            5.67866655438270       -0.60683556265473       -0.51303142353506
H            4.25612009844911        0.23891732242914       -1.16380089964238
H            4.53421846626157       -2.56949663538388       -0.98611471230720
33
 energy: -56.020036404493 gnorm: 0.015409897426 xtb: 6.7.1 (edcfbbe)
C           -4.52852106705560       -1.10833403997546       -0.45207471738181
C           -3.79577870931962       -2.27314048652961       -0.26382090472296
C           -2.43337787071132       -2.20818355308282       -0.02692977273014
C           -1.77991530180184       -0.97798788099368        0.02248160054833
C           -2.52100115909097        0.19526981880889       -0.16773313238376
C           -3.89356502065694        0.11953380192673       -0.40259986560156
C           -1.86264946607970        1.50797074736311       -0.12050274232951
O           -2.50450898294966        2.54935552713939       -0.25623700269341
C           -0.40061721154487        1.52852088080663        0.09030798957344
C            0.21919743282341        2.76530020793325        0.07015345830187
C            1.59740155567797        2.85657520878333        0.25165024513202
C            2.34938894275269        1.73017587959019        0.45670831110559
C            1.75804284669361        0.44353158541694        0.49691283902817
C            0.34322239097159        0.34045655321339        0.30008818592987
C           -0.32353974861046       -0.94528550390613        0.28566241791000
O            0.27272091329975       -2.02151551241868        0.47567446110601
N            2.50294044702212       -0.64559034876101        0.75703130494507
C            3.94963448265740       -0.69169135178594        0.78322944324941
C            4.57706506360774       -0.65130093860216       -0.61348683797755
O            4.19742353781417       -1.76119645019542       -1.41617911139789
H           -5.59163660028236       -1.16067917733276       -0.63673748700559
H           -4.28981585561068       -3.23322249219808       -0.30196963095540
H           -1.85785698572054       -3.11033057153161        0.12226631546272
H           -4.44726566841356        1.03662842496127       -0.54585551211729
H           -0.37742923689214        3.65060699581953       -0.09118757643213
H            2.07910940086133        3.82364838339079        0.22862207298402
H            3.41367502681657        1.82849533730684        0.59409325353977
H            2.00407765939539       -1.52765695546317        0.68075860229677
H            4.23000028321474       -1.62437018061927        1.27992193811142
H            4.34614874214732        0.13376441018492        1.37971281228509
H            5.66922407590415       -0.61190781074500       -0.51854299855056
H            4.24088194773704        0.22862015587760       -1.16667733947633
H            4.53394368631325       -2.56473089069346       -0.99618017083100
33
 energy: -56.020409718545 gnorm: 0.004635404650 xtb: 6.7.1 (edcfbbe)
C           -4.51754443846760       -1.10763542033613       -0.45049967081805
C           -3.78573994671638       -2.27071138493881       -0.26274661962009
C           -2.42506827698578       -2.20349476346280       -0.02627641962143
C           -1.77080936182668       -0.97517385199050        0.02293214022367
C           -2.51119222210103        0.19682243482171       -0.16701366256919
C           -3.88232338121471        0.11853180279868       -0.40118705336052
C           -1.85920028073638        1.51062879300649       -0.12045101836579
O           -2.49964322742630        2.55077583800482       -0.25773234771065
C           -0.40108304709159        1.52420733210396        0.08990610561093
C            0.21849032478154        2.76105838983148        0.06943488841018
C            1.59479754171854        2.85877349902406        0.25001380948724
C            2.34446129982969        1.73262908882763        0.45401939109899
C            1.75519529300993        0.44574789463413        0.49416583810887
C            0.34343505360636        0.33934324312187        0.29940157049099
C           -0.31722118929089       -0.94865529024998        0.28661932702847
O            0.27544032867758       -2.02311824474057        0.48175292797755
N            2.49624837696057       -0.64201201540728        0.74942583831144
C            3.93676020127122       -0.69687937134975        0.78860644885797
C            4.56991769643927       -0.65639480807425       -0.61191075331727
O            4.19670444016417       -1.75579353201215       -1.41466573002152
H           -5.57874694004597       -1.15853041043544       -0.63406987311195
H           -4.27757432739469       -3.22953846845915       -0.30003958401902
H           -1.84340608875378       -3.10030020656956        0.12386857786522
H           -4.42940286111218        1.03839513718594       -0.54266383440232
H           -0.38590732262021        3.63972877098135       -0.09175362423723
H            2.07052761432229        3.82624495052581        0.22827374775578
H            3.40735196163838        1.82901534723814        0.58966490690000
H            1.99658844081866       -1.52468826853068        0.66985395056193
H            4.20808621763161       -1.63198500070752        1.28195669038068
H            4.33108064380758        0.12949855492638        1.38257795551255
H            5.66117846189955       -0.60950455953225       -0.51470464890775
H            4.22472850927689        0.22273227251881       -1.15942994105654
H            4.53049005690035       -2.56838797906589       -1.00876888452040
33
 energy: -56.020454002278 gnorm: 0.002097155403 xtb: 6.7.1 (edcfbbe)
C           -4.51528915039270       -1.10870127830037       -0.45006481054622
C           -3.78253171936382       -2.27186811306821       -0.26253972464465
C           -2.42189625510436       -2.20318676418426       -0.02641620767012
C           -1.76837764372408       -0.97417713135861        0.02335453460057
C           -2.50928782229390        0.19746959319111       -0.16679945085599
C           -3.88054248399369        0.11779531513110       -0.40074059292745
C           -1.85896457895097        1.51221499106434       -0.12160696324546
O           -2.50036095244340        2.55191053280392       -0.25936202563539
C           -0.40141403032769        1.52518122079556        0.08977156137086
C            0.21862142286939        2.76231199411572        0.06979725039797
C            1.59508657103512        2.86175897081031        0.25014500305103
C            2.34482789472066        1.73506099670087        0.45351905964219
C            1.75498340506026        0.44792099458998        0.49361867419101
C            0.34330364964148        0.34071636135363        0.29933088489568
C           -0.31564956705909       -0.94836248238615        0.28905123945515
O            0.27682962291561       -2.02306775799191        0.48473755943657
N            2.49389874446465       -0.64117263554730        0.74597628528273
C            3.93292055780353       -0.70038246313588        0.79022291360560
C            4.56748417635569       -0.65968075703929       -0.61193664535343
O            4.19606052904383       -1.75643051375324       -1.41484396204094
H           -5.57658172574234       -1.15937886271199       -0.63357551299669
H           -4.27310989816793       -3.23145236984945       -0.29956374514669
H           -1.83680867688490       -3.09798821109892        0.12443651137169
H           -4.42560412586186        1.03910955535106       -0.54199069317978
H           -0.38913604203538        3.63881391054735       -0.09209515487087
H            2.06918389898092        3.82995259799847        0.22730397997374
H            3.40830467431012        1.83017727177251        0.58858978885675
H            1.99227591854423       -1.52310372783371        0.66589807953565
H            4.20082621833868       -1.63675534484723        1.28228581474466
H            4.32948257471719        0.12478010081724        1.38412564442460
H            5.65846008902259       -0.60731894127965       -0.51129368268512
H            4.21942449406207        0.22130268317120       -1.15528703581620
H            4.53019978143009       -2.57211996213969       -1.01548812829875
33
 energy: -56.020466282668 gnorm: 0.000846956597 xtb: 6.7.1 (edcfbbe)
C           -4.51450808289061       -1.11017747849207       -0.44997030788056
C           -3.78066895709486       -2.27331215768068       -0.26237715874077
C           -2.42018780598069       -2.20333653722005       -0.02578107955829
C           -1.76768350734078       -0.97332655637924        0.02420865108492
C           -2.50920076872589        0.19793386463373       -0.16652777886161
C           -3.88067699438694        0.11690075104550       -0.40090181693631
C           -1.85949997689392        1.51334927103717       -0.12173162866299
O           -2.50178813453953        2.55258612675875       -0.26135568092860
C           -0.40174487899155        1.52715089864520        0.08959327938385
C            0.21892219950643        2.76432812833689        0.06974014849470
C            1.59563858901899        2.86418281627546        0.25024680973218
C            2.34573528351375        1.73731104624016        0.45385605872607
C            1.75503584992199        0.45019549455790        0.49434934368701
C            0.34303252462458        0.34265108622906        0.29938706970748
C           -0.31505322396703       -0.94688461536063        0.28938032030242
O            0.27737284803432       -2.02181483557342        0.48730510496526
N            2.49236003220721       -0.64045161863509        0.74416524177806
C            3.93083292768103       -0.70321689326864        0.79061390938118
C            4.56661407265007       -0.66245182149733       -0.61217355643493
O            4.19628396977244       -1.75789902659025       -1.41552952510984
H           -5.57610719245039       -1.16129916612751       -0.63332907166297
H           -4.27017124351490       -3.23378555428096       -0.29969227301310
H           -1.83263627494727       -3.09689219449724        0.12490983520978
H           -4.42527413325015        1.03879610573182       -0.54213087829502
H           -0.39053236374297        3.63997897334906       -0.09231114577493
H            2.06899689876511        3.83302045949301        0.22713552866375
H            3.40978196300043        1.83148105522050        0.58890349450809
H            1.98821590984820       -1.52125593359675        0.66478554595249
H            4.19611975268376       -1.64078978288824        1.28174978194775
H            4.33033697579363        0.12017768433083        1.38518162116245
H            5.65750280448467       -0.60684518069839       -0.50926213637342
H            4.21750873416839        0.21998619556712       -1.15310113976891
H            4.53206175401249       -2.57496083097715       -1.02077611776250
33
 energy: -56.020469218333 gnorm: 0.000618256779 xtb: 6.7.1 (edcfbbe)
C           -4.51420714027810       -1.11135974173949       -0.44985356685791
C           -3.77953719985221       -2.27420607768248       -0.26237641269307
C           -2.41923912518407       -2.20335191558273       -0.02569816393879
C           -1.76780957755883       -0.97254900559271        0.02478486504020
C           -2.50983510850503        0.19831620816401       -0.16628391218245
C           -3.88149180883842        0.11624003146391       -0.40071956763545
C           -1.86001214740939        1.51394670696410       -0.12272616264199
O           -2.50281635150909        2.55288381932430       -0.26323567939566
C           -0.40215040303611        1.52889072697366        0.08969013629943
C            0.21883763152355        2.76596724007990        0.07002530382758
C            1.59565618578150        2.86544484561156        0.25071200961923
C            2.34614557574721        1.73876492924214        0.45444127522138
C            1.75515158222330        0.45174553399366        0.49448270659524
C            0.34267512255024        0.34429142713185        0.29980681354177
C           -0.31552612813539       -0.94490682280693        0.29129066317933
O            0.27725182055552       -2.02005048022887        0.48914171139895
N            2.49162111658853       -0.63975295833843        0.74322827411567
C            3.92994807013220       -0.70498872760081        0.79008906353891
C            4.56666459131759       -0.66427479215593       -0.61246021881955
O            4.19725331459889       -1.75941538256136       -1.41639702994764
H           -5.57585354784978       -1.16339847100233       -0.63359120246004
H           -4.26837425364736       -3.23517998003140       -0.29994788542347
H           -1.83069597750804       -3.09624551367668        0.12543290305943
H           -4.42670141537889        1.03777851703089       -0.54257541648787
H           -0.39057354163367        3.64172414561948       -0.09232053420533
H            2.06895976313994        3.83451337027943        0.22733568470391
H            3.41030475758023        1.83252913951489        0.59015323596517
H            1.98512653110159       -1.51953266711277        0.66569463932433
H            4.19329764606801       -1.64354341476223        1.28060412911580
H            4.33152087479094        0.11695343621558        1.38552134170245
H            5.65748840533260       -0.60806789283043       -0.50841893239930
H            4.21793076285016        0.21858670070237       -1.15313575072433
H            4.53560952541239       -2.57642316091766       -1.02413387151323
33
 energy: -56.020470571712 gnorm: 0.000398694837 xtb: 6.7.1 (edcfbbe)
C           -4.51383938425950       -1.11182342694490       -0.45004507085537
C           -3.77890952431261       -2.27436184074635       -0.26223252562903
C           -2.41886145434096       -2.20306067601243       -0.02489669888377
C           -1.76798634982150       -0.97199574807551        0.02536061054194
C           -2.51017471332581        0.19861420266180       -0.16618866842497
C           -3.88174188982741        0.11602507993361       -0.40105630179635
C           -1.86039644538988        1.51425972239476       -0.12258819717160
O           -2.50299200534557        2.55306161752254       -0.26471793485805
C           -0.40245757352738        1.52955423187486        0.08964305591167
C            0.21851583596207        2.76653548974669        0.06982309167839
C            1.59525465145517        2.86575550379629        0.25110815448020
C            2.34588766176553        1.73931461376055        0.45498712423419
C            1.75501935337889        0.45234601282244        0.49475152506410
C            0.34246761014297        0.34500121962674        0.30000363232733
C           -0.31567515083092       -0.94390126745456        0.29122466765366
O            0.27688659660639       -2.01893831528977        0.49090367516553
N            2.49132445816833       -0.63930896207040        0.74293109936586
C            3.92955290208562       -0.70578463675196        0.78940140943463
C            4.56683648075741       -0.66499486589720       -0.61268533861296
O            4.19814108369947       -1.76031307757146       -1.41698708103731
H           -5.57541286353108       -1.16455976737205       -0.63376852357570
H           -4.26745295053656       -3.23541191555373       -0.30017801767632
H           -1.83009809407972       -3.09573251050372        0.12606714250753
H           -4.42776969666870        1.03700745719099       -0.54296121454353
H           -0.39026873267382        3.64266538527533       -0.09253313963702
H            2.06857437410920        3.83483256729921        0.22827832769700
H            3.40990445042519        1.83302900554382        0.59116152626821
H            1.98344489559795       -1.51853211158143        0.66696908133501
H            4.19183604213296       -1.64494734290638        1.27937923972235
H            4.33183152157131        0.11542662376213        1.38542548892148
H            5.65758074102525       -0.60926521616592       -0.50820806758442
H            4.21861278251475        0.21760856798088       -1.15401540293265
H            4.53898493804295       -2.57677584660637       -1.02579622016734
33
 energy: -56.020470934588 gnorm: 0.000169360261 xtb: 6.7.1 (edcfbbe)
C           -4.51365409381170       -1.11179111640046       -0.45011582885601
C           -3.77873576197288       -2.27423677584431       -0.26220441553561
C           -2.41871421625145       -2.20282706007709       -0.02472738719109
C           -1.76798146647675       -0.97179458780771        0.02554434876377
C           -2.51015784048381        0.19876397927329       -0.16623404177519
C           -3.88164468623086        0.11611230820977       -0.40104667525461
C           -1.86038622041275        1.51435651647881       -0.12328676621821
O           -2.50278369833105        2.55318591905327       -0.26559184821717
C           -0.40259697129750        1.52949467417537        0.08962088729428
C            0.21824815929384        2.76647909587367        0.06992880568095
C            1.59495972342978        2.86574830224414        0.25145677262680
C            2.34557446843469        1.73932390052766        0.45510229402907
C            1.75487141564795        0.45228467958315        0.49453427924810
C            0.34236770513709        0.34503089643410        0.30017063988056
C           -0.31585572203381       -0.94374874146821        0.29224628987663
O            0.27658019629866       -2.01873547148082        0.49221712392735
N            2.49123910012700       -0.63924860198215        0.74257625969438
C            3.92938542198342       -0.70600063832193        0.78901975966693
C            4.56689242606321       -0.66504492960721       -0.61284551370727
O            4.19864724395681       -1.76066264879121       -1.41718874562735
H           -5.57509500653849       -1.16472431904259       -0.63413648966746
H           -4.26727708036981       -3.23520683529265       -0.30006935248507
H           -1.83008265104875       -3.09544768519820        0.12672201439632
H           -4.42792252906027        1.03684264634230       -0.54324874875458
H           -0.39017304684977        3.64276512722787       -0.09259238868410
H            2.06824167795773        3.83478312439930        0.22905967192815
H            3.40948363764359        1.83309485388079        0.59153062315318
H            1.98299207910959       -1.51836533879636        0.66735649502020
H            4.19137178575468       -1.64535850662728        1.27868040078512
H            4.33154795315876        0.11508916859771        1.38524514562454
H            5.65756237588543       -0.60936343672018       -0.50818634978524
H            4.21862178730036        0.21723736003970       -1.15456642003019
H            4.54109338495710       -2.57670608519404       -1.02641039088449
33
 energy: -56.020471079695 gnorm: 0.000088529505 xtb: 6.7.1 (edcfbbe)
C           -4.51370393338907       -1.11173133662395       -0.45029698996194
C           -3.77886438014921       -2.27420135803864       -0.26209974497854
C           -2.41883591627179       -2.20278086098146       -0.02440364155664
C           -1.76804262495635       -0.97178954237422        0.02574746536086
C           -2.51014942702392        0.19879494609784       -0.16633480743398
C           -3.88158207732566        0.11616838911200       -0.40133264690441
C           -1.86039279730575        1.51439469394155       -0.12339660399732
O           -2.50268463842023        2.55323227520512       -0.26619707243337
C           -0.40259849917602        1.52942778709855        0.08953888067663
C            0.21825130592985        2.76641978202281        0.06994850565253
C            1.59497265742393        2.86577395789273        0.25170389875528
C            2.34555640987688        1.73927300361782        0.45517538216774
C            1.75480932116635        0.45219153448729        0.49452996313746
C            0.34233297366072        0.34497385749534        0.30019713299538
C           -0.31593405687207       -0.94383942547198        0.29263019458414
O            0.27634382584965       -2.01878588527118        0.49325155298720
N            2.49119996609135       -0.63937352506434        0.74232595858688
C            3.92933779621281       -0.70610258941067        0.78889323113857
C            4.56687696102486       -0.66494801738003       -0.61298473273055
O            4.19897830676009       -1.76079700573643       -1.41726462891257
H           -5.57514237769418       -1.16459392068465       -0.63440373826028
H           -4.26741695651595       -3.23517777394590       -0.29993885577391
H           -1.83022748928415       -3.09541264270490        0.12723623242509
H           -4.42781904023143        1.03692787515743       -0.54361612513879
H           -0.39017822396620        3.64271011487031       -0.09259877648593
H            2.06821182510067        3.83482845606508        0.22950547286394
H            3.40950468434431        1.83301515785979        0.59157305069889
H            1.98293763118015       -1.51849420041610        0.66726745452378
H            4.19133404516289       -1.64551059944958        1.27840753190514
H            4.33144230169525        0.11493727684708        1.38522564120562
H            5.65750708502013       -0.60880786653917       -0.50825679706200
H            4.21826344064854        0.21721948294678       -1.15468085119439
H            4.54233145240358       -2.57661226693581       -1.02679108791777
33
 energy: -56.020471219963 gnorm: 0.000121759554 xtb: 6.7.1 (edcfbbe)
C           -4.51388603269267       -1.11158182972355       -0.45058102076596
C           -3.77922427984538       -2.27409186254480       -0.26192810870803
C           -2.41922288015245       -2.20273872077149       -0.02385185655193
C           -1.76825613960537       -0.97183690730028        0.02615643516712
C           -2.51020007599879        0.19880199662713       -0.16644851037071
C           -3.88157072202345        0.11625905666261       -0.40174361683313
C           -1.86031378706755        1.51436257467360       -0.12387908716797
O           -2.50248744532542        2.55321183514384       -0.26718848917667
C           -0.40256667411702        1.52930797451360        0.08948779357640
C            0.21834782541392        2.76627596249541        0.07009538082668
C            1.59507365481282        2.86565009274038        0.25202597036314
C            2.34557994225054        1.73905756531512        0.45531254216003
C            1.75473671867861        0.45196599768735        0.49460260648164
C            0.34226482777287        0.34481854501585        0.30029193944094
C           -0.31614397372579       -0.94400134897955        0.29316652574956
O            0.27588897149255       -2.01886662672830        0.49483889076482
N            2.49118575965294       -0.63964259636374        0.74202842437022
C            3.92933609769181       -0.70617093955152        0.78869494673658
C            4.56687893373574       -0.66465339909929       -0.61322756464623
O            4.19969766902575       -1.76087368361475       -1.41736681606407
H           -5.57531073865214       -1.16426318704893       -0.63490453998496
H           -4.26783330408794       -3.23506312202114       -0.29965333247523
H           -1.83073990354967       -3.09542627245437        0.12811088945326
H           -4.42762157277359        1.03709267699707       -0.54440779250366
H           -0.39011673274795        3.64255560167304       -0.09250411405396
H            2.06827358742577        3.83473106127971        0.23012956691221
H            3.40956558515659        1.83274343940246        0.59169566389474
H            1.98305104112676       -1.51882599451622        0.66715813772868
H            4.19149853298707       -1.64561737710617        1.27802788263644
H            4.33131797773658        0.11481798136567        1.38518268529447
H            5.65745393618602       -0.60762809377069       -0.50856166454088
H            4.21753453702059        0.21725081101710       -1.15489240355770
H            4.54442821516820       -2.57629143732666       -1.02730691523315
33
 energy: -56.020471218851 gnorm: 0.000237172014 xtb: 6.7.1 (edcfbbe)
C           -4.51405147196772       -1.11144874260472       -0.45083558353971
C           -3.77954893830475       -2.27399593369813       -0.26177627963252
C           -2.41957083379476       -2.20270140746043       -0.02335310690187
C           -1.76844730156932       -0.97188062370842        0.02652618963304
C           -2.51024536193085        0.19880840616398       -0.16655033812765
C           -3.88156006017776        0.11634029859798       -0.40210852879733
C           -1.86024191272487        1.51433443941701       -0.12432673328179
O           -2.50231191326963        2.55319466904288       -0.26808265460572
C           -0.40253755111872        1.52920011449346        0.08943856289670
C            0.21843492441912        2.76614715110694        0.07022910245803
C            1.59516685439911        2.86554422225600        0.25231818264652
C            2.34560285916968        1.73886747782719        0.45543553306856
C            1.75467097191366        0.45176481008956        0.49467028554992
C            0.34220479470156        0.34467914356700        0.30037382407074
C           -0.31632784350317       -0.94415176520341        0.29363355514393
O            0.27547887472200       -2.01894243579628        0.49627969688688
N            2.49117295682133       -0.63988384495133        0.74175605030896
C            3.92933444787814       -0.70623122412878        0.78851764032863
C            4.56688158465974       -0.66439065488739       -0.61344597683595
O            4.20033481331847       -1.76094716781842       -1.41745481935964
H           -5.57546533993544       -1.16396443432517       -0.63535034354691
H           -4.26820776712431       -3.23496402454121       -0.29939905982122
H           -1.83119765075110       -3.09543972884214        0.12889379670756
H           -4.42744335638760        1.03724207759058       -0.54511391901649
H           -0.39006342352619        3.64241634617872       -0.09241945143804
H            2.06832802293272        3.83465102165661        0.23070236758665
H            3.40962448785821        1.83250285025536        0.59180339728199
H            1.98315334868424       -1.51912377891049        0.66705434591410
H            4.19164583180865       -1.64571162822553        1.27768735910277
H            4.33120668146973        0.11471235842274        1.38514436755976
H            5.65740698030769       -0.60657102227920       -0.50883618490957
H            4.21688086572719        0.21727909325936       -1.15507997202565
H            4.54631097626497       -2.57600628885582       -1.02777085638200
33
 energy: -56.020471317521 gnorm: 0.000133568972 xtb: 6.7.1 (edcfbbe)
C           -4.51408800940446       -1.11137498195567       -0.45093944271056
C           -3.77965582115741       -2.27391545267719       -0.26166944305184
C           -2.41970745324917       -2.20268284244837       -0.02321462183556
C           -1.76854365544471       -0.97187794757164        0.02662958115179
C           -2.51027286748209        0.19880510119832       -0.16661381687390
C           -3.88157221886235        0.11637424443507       -0.40235634161875
C           -1.86024521438603        1.51430598725017       -0.12414433577032
O           -2.50222526182035        2.55315590009602       -0.26834402506315
C           -0.40253094489291        1.52916594126987        0.08945460742691
C            0.21846906452899        2.76609320831861        0.07020288025215