
                                 *****************
                                 * O   R   C   A *
                                 *****************

                                            #,                                       
                                            ###                                      
                                            ####                                     
                                            #####                                    
                                            ######                                   
                                           ########,                                 
                                     ,,################,,,,,                         
                               ,,#################################,,                 
                          ,,##########################################,,             
                       ,#########################################, ''#####,          
                    ,#############################################,,   '####,        
                  ,##################################################,,,,####,       
                ,###########''''           ''''###############################       
              ,#####''   ,,,,##########,,,,          '''####'''          '####       
            ,##' ,,,,###########################,,,                        '##       
           ' ,,###''''                  '''############,,,                           
         ,,##''                                '''############,,,,        ,,,,,,###''
      ,#''                                            '''#######################'''  
     '                                                          ''''####''''         
             ,#######,   #######,   ,#######,      ##                                
            ,#'     '#,  ##    ##  ,#'     '#,    #''#        ,####,   ,####,        
            ##       ##  ##   ,#'  ##            #'  '#       #'       #'  '#        
            ##       ##  #######   ##           ,######,      #####,   #    #        
            '#,     ,#'  ##    ##  '#,     ,#' ,#      #,     #,   #   #,  ,#        
             '#######'   ##     ##  '#######'  #'      '#     '####' # '####'        



                #########################################################
                #                        -***-                          #
                #          Department of theory and spectroscopy        #
                #                                                       #
                #                      Frank Neese                      #
                #                                                       #
                #     Directorship, Architecture, Infrastructure        #
                #                    SHARK, DRIVERS                     #
                #        Core code/Algorithms in most modules           #
                #                                                       #
                #        Max Planck Institute fuer Kohlenforschung      #
                #                Kaiser Wilhelm Platz 1                 #
                #                 D-45470 Muelheim/Ruhr                 #
                #                      Germany                          #
                #                                                       #
                #                  All rights reserved                  #
                #                        -***-                          #
                #########################################################


                         Program Version 6.0.0  -   RELEASE  -


 With contributions from (in alphabetic order):
   Daniel Aravena         : Magnetic Suceptibility
   Michael Atanasov       : Ab Initio Ligand Field Theory (pilot matlab implementation)
   Alexander A. Auer      : GIAO ZORA, VPT2 properties, NMR spectrum
   Ute Becker             : All parallelization in ORCA, NUMFREQ, NUMCALC
   Giovanni Bistoni       : ED, misc. LED, open-shell LED, HFLD
   Martin Brehm           : Molecular dynamics
   Dmytro Bykov           : pre 5.0 version of the SCF Hessian
   Marcos Casanova-Páez   : Triplet and SCS-CIS(D). UHF-(DLPNO)-IP/EA/STEOM-CCSD. UHF-CVS-IP/STEOM-CCSD
   Vijay G. Chilkuri      : MRCI spin determinant printing, contributions to CSF-ICE
   Pauline Colinet        : FMM embedding
   Dipayan Datta          : RHF DLPNO-CCSD density
   Achintya Kumar Dutta   : EOM-CC, STEOM-CC
   Nicolas Foglia         : Exact transition moments, OPA infrastructure, MCD improvements
   Dmitry Ganyushin       : Spin-Orbit,Spin-Spin,Magnetic field MRCI
   Miquel Garcia          : C-PCM and meta-GGA Hessian, CCSD/C-PCM, Gaussian charge scheme
   Tiago L. C. Gouveia    : GS-ROHF, GS-ROCIS
   Yang Guo               : DLPNO-NEVPT2, F12-NEVPT2, CIM, IAO-localization
   Andreas Hansen         : Spin unrestricted coupled pair/coupled cluster methods
   Ingolf Harden          : AUTO-CI MPn and infrastructure 
   Benjamin Helmich-Paris : MC-RPA, TRAH-(SCF,CASSCF), AVAS, COSX integrals, SCF dyn. polar.
   Lee Huntington         : MR-EOM, pCC
   Robert Izsak           : Overlap fitted RIJCOSX, COSX-SCS-MP3, EOM
   Riya Kayal             : Wick's Theorem for AUTO-CI, AUTO-CI UHF-CCSDT
   Emily Kempfer          : AUTO-CI, RHF CISDT and CCSDT
   Christian Kollmar      : KDIIS, OOCD, Brueckner-CCSD(T), CCSD density, CASPT2, CASPT2-K, improved NEVPT2
   Axel Koslowski         : Symmetry handling
   Simone Kossmann        : Meta GGA functionals, TD-DFT gradient, OOMP2, (MP2 Hessian; deprecated post 5.0)
   Lucas Lang             : DCDCAS
   Marvin Lechner         : AUTO-CI (C++ implementation), FIC-MRCC
   Spencer Leger          : CASSCF response
   Dagmar Lenk            : GEPOL surface, SMD, ORCA-2-JSON
   Dimitrios Liakos       : Extrapolation schemes; Compound Job, initial MDCI parallelization
   Dimitrios Manganas     : Further ROCIS development; embedding schemes. LFT, Crystal Embedding
   Dimitrios Pantazis     : SARC Basis sets
   Anastasios Papadopoulos: AUTO-CI, single reference methods and gradients
   Taras Petrenko         : pre 6.0 DFT Hessian and TD-DFT gradient, (ASA, deprecated), ECA, 1-Electron XAS/XES, NRVS
   Peter Pinski           : DLPNO-MP2, DLPNO-MP2 Gradient
   Christoph Reimann      : Effective Core Potentials
   Marius Retegan         : Local ZFS, SOC
   Christoph Riplinger    : Optimizer, TS searches, QM/MM, DLPNO-CCSD(T), (RO)-DLPNO pert. Triples
   Michael Roemelt        : Original ROCIS implementation
   Masaaki Saitow         : Open-shell DLPNO-CCSD energy and density
   Barbara Sandhoefer     : DKH picture change effects
   Kantharuban Sivalingam : CASSCF convergence/infrastructure, NEVPT2 and variants, FIC-MRCI
   Bernardo de Souza      : ESD, SOC TD-DFT
   Georgi Stoychev        : AutoAux, RI-MP2 NMR, DLPNO-MP2 response, X2C
   Van Anh Tran           : RI-MP2 g-tensors
   Willem Van den Heuvel  : Paramagnetic NMR
   Zikuan Wang            : NOTCH, Electric field optimization 
   Frank Wennmohs         : Technical directorship and infrastructure
   Hang Xu                : AUTO-CI-Response properties 


 We gratefully acknowledge several colleagues who have allowed us to
 interface, adapt or use parts of their codes:
   Stefan Grimme, W. Hujo, H. Kruse, P. Pracht,  : VdW corrections, initial TS optimization,
                  C. Bannwarth, S. Ehlert,         DFT functionals, gCP, sTDA/sTD-DF
                  L. Wittmann, M. Mueller
   Ed Valeev, F. Pavosevic, A. Kumar             : LibInt (2-el integral package), F12 methods
   Garnet Chan, S. Sharma, J. Yang, R. Olivares  : DMRG
   Ulf Ekstrom                                   : XCFun DFT Library
   Mihaly Kallay                                 : mrcc  (arbitrary order and MRCC methods)
   Frank Weinhold                                : gennbo (NPA and NBO analysis)
   Simon Mueller                                 : openCOSMO-RS
   Christopher J. Cramer and Donald G. Truhlar   : smd solvation model
   Lars Goerigk                                  : TD-DFT with DH, B97 family of functionals
   V. Asgeirsson, H. Jonsson                     : NEB implementation
   FAccTs GmbH                                   : IRC, NEB, NEB-TS, DLPNO-Multilevel, CI-OPT
                                                   MM, QMMM, 2- and 3-layer-ONIOM, Crystal-QMMM,
                                                   LR-CPCM, SF, NACMEs, symmetry and pop. for TD-DFT,
                                                   nearIR, NL-DFT gradient (VV10), updates on ESD,
                                                   ML-optimized integration grids, MBIS, APM,
                                                   GOAT, DOCKER, SOLVATOR, interface openCOSMO-RS
   S Lehtola, MJT Oliveira, MAL Marques          : LibXC Library
   Liviu Ungur et al                             : ANISO software


 Your calculation uses the libint2 library for the computation of 2-el integrals
 For citations please refer to: http://libint.valeyev.net

 Your ORCA version has been built with support for libXC version: 6.2.2
 For citations please refer to: https://libxc.gitlab.io

 This ORCA versions uses:
   CBLAS   interface :  Fast vector & matrix operations
   LAPACKE interface :  Fast linear algebra routines
   SCALAPACK package :  Parallel linear algebra routines
   Shared memory     :  Shared parallel matrices
   BLAS/LAPACK       :  OpenBLAS 0.3.27  USE64BITINT DYNAMIC_ARCH NO_AFFINITY SkylakeX SINGLE_THREADED
        Core in use  :  SkylakeX
   Copyright (c) 2011-2014, The OpenBLAS Project


Your calculation utilizes the geometrical counterpoise correction gCP
Please cite in your paper:
H.Kruse, S. Grimme J.Chem.Phys., 136, (2012), 154101 
   

Your calculation utilizes the atom-pairwise dispersion correction
based on EEQ partial charges (D4)


================================================================================

----- Orbital basis set information -----
Your calculation utilizes the basis: def2-mTZVPP
   Stefan Grimme, Andreas Hansen, Sebastian Ehlert, and Jan-Michael Mewes 
   J. Chem. Phys. 154, 064103 (2021). DOI: 10.1063/5.0040021

----- AuxJ basis set information -----
Your calculation utilizes the auxiliary basis: def2/J
   F. Weigend, Phys. Chem. Chem. Phys. 8, 1057 (2006).

================================================================================
                                        WARNINGS
                       Please study these warnings very carefully!
================================================================================

Using LibXC functional ID 497 : Re-regularized SCAN exchange by Furness et al
[ 1]  J. W. Furness, A. D. Kaplan, J. Ning, J. P. Perdew, and J. Sun.,  J. Phys. Chem. Lett. 11, 8208-8215 (2020)
[ 2]  J. W. Furness, A. D. Kaplan, J. Ning, J. P. Perdew, and J. Sun.,  J. Phys. Chem. Lett. 11, 9248-9248 (2020)
Using LibXC functional ID 498 : Re-regularized SCAN correlation by Furness et al
[ 1]  J. W. Furness, A. D. Kaplan, J. Ning, J. P. Perdew, and J. Sun.,  J. Phys. Chem. Lett. 11, 8208-8215 (2020)
[ 2]  J. W. Furness, A. D. Kaplan, J. Ning, J. P. Perdew, and J. Sun.,  J. Phys. Chem. Lett. 11, 9248-9248 (2020)
Using LibXC functional ID 497 : Re-regularized SCAN exchange by Furness et al
[ 1]  J. W. Furness, A. D. Kaplan, J. Ning, J. P. Perdew, and J. Sun.,  J. Phys. Chem. Lett. 11, 8208-8215 (2020)
[ 2]  J. W. Furness, A. D. Kaplan, J. Ning, J. P. Perdew, and J. Sun.,  J. Phys. Chem. Lett. 11, 9248-9248 (2020)
Using LibXC functional ID 498 : Re-regularized SCAN correlation by Furness et al
[ 1]  J. W. Furness, A. D. Kaplan, J. Ning, J. P. Perdew, and J. Sun.,  J. Phys. Chem. Lett. 11, 8208-8215 (2020)
[ 2]  J. W. Furness, A. D. Kaplan, J. Ning, J. P. Perdew, and J. Sun.,  J. Phys. Chem. Lett. 11, 9248-9248 (2020)

================================================================================
                                       INPUT FILE
================================================================================
NAME = sp_gas.inp
|  1> ! r2scan-3c def2/J RI DEFGRID2 scfconv6 printgap
|  2> %output
|  3>     printlevel normal
|  4> end
|  5> * xyz 0 1
|  6> C -2.5190021486 -1.2740729658 0.4760655125
|  7> C -2.5499570248 0.1165845971 -0.1465373228
|  8> C -1.2701063877 0.4134643595 -0.9285941631
|  9> C -0.076310298 0.5697173413 -0.0206197589
| 10> O -0.1011580854 1.0646001745 1.0872199829
| 11> O 1.0265827749 0.1124960322 -0.5992602594
| 12> C 2.2796267919 0.1967254995 0.1019474683
| 13> C 3.0271718337 -1.1155280326 -0.0584617823
| 14> H -3.4437207617 -1.4696783083 1.0121864885
| 15> H -2.3953874318 -2.0348754722 -0.291048921
| 16> H -1.6928347533 -1.3533658052 1.1799286312
| 17> H -2.6593847444 0.8651488674 0.6402659087
| 18> H -3.4030511961 0.1972495668 -0.8205663657
| 19> H -1.3777314362 1.3585269229 -1.46596543
| 20> H -1.0528577018 -0.370780004 -1.6533149117
| 21> H 2.8397961628 1.0246714227 -0.341757991
| 22> H 2.0747966449 0.4231394055 1.1530061172
| 23> H 2.4657875097 -1.9285142697 0.3937795283
| 24> H 3.1706743259 -1.3323215721 -1.1129125478
| 25> H 3.9944822645 -1.0379947169 0.4270225268
| 26> *
| 27> 
| 28>                          ****END OF INPUT****
================================================================================

                       ****************************
                       * Single Point Calculation *
                       ****************************

---------------------------------
CARTESIAN COORDINATES (ANGSTROEM)
---------------------------------
  C     -2.519002   -1.274073    0.476066
  C     -2.549957    0.116585   -0.146537
  C     -1.270106    0.413464   -0.928594
  C     -0.076310    0.569717   -0.020620
  O     -0.101158    1.064600    1.087220
  O      1.026583    0.112496   -0.599260
  C      2.279627    0.196725    0.101947
  C      3.027172   -1.115528   -0.058462
  H     -3.443721   -1.469678    1.012186
  H     -2.395387   -2.034875   -0.291049
  H     -1.692835   -1.353366    1.179929
  H     -2.659385    0.865149    0.640266
  H     -3.403051    0.197250   -0.820566
  H     -1.377731    1.358527   -1.465965
  H     -1.052858   -0.370780   -1.653315
  H      2.839796    1.024671   -0.341758
  H      2.074797    0.423139    1.153006
  H      2.465788   -1.928514    0.393780
  H      3.170674   -1.332322   -1.112913
  H      3.994482   -1.037995    0.427023

----------------------------
CARTESIAN COORDINATES (A.U.)
----------------------------
  NO LB      ZA    FRAG     MASS         X           Y           Z
   0 C     6.0000    0    12.011   -4.760224   -2.407649    0.899633
   1 C     6.0000    0    12.011   -4.818720    0.220313   -0.276915
   2 C     6.0000    0    12.011   -2.400153    0.781334   -1.754789
   3 C     6.0000    0    12.011   -0.144206    1.076610   -0.038966
   4 O     8.0000    0    15.999   -0.191161    2.011803    2.054548
   5 O     8.0000    0    15.999    1.939960    0.212587   -1.132438
   6 C     6.0000    0    12.011    4.307870    0.371757    0.192653
   7 C     6.0000    0    12.011    5.720526   -2.108042   -0.110477
   8 H     1.0000    0     1.008   -6.507689   -2.777290    1.912755
   9 H     1.0000    0     1.008   -4.526626   -3.845357   -0.550003
  10 H     1.0000    0     1.008   -3.198994   -2.557491    2.229742
  11 H     1.0000    0     1.008   -5.025509    1.634894    1.209927
  12 H     1.0000    0     1.008   -6.430835    0.372748   -1.550646
  13 H     1.0000    0     1.008   -2.603535    2.567244   -2.770273
  14 H     1.0000    0     1.008   -1.989613   -0.700673   -3.124312
  15 H     1.0000    0     1.008    5.366437    1.936348   -0.645829
  16 H     1.0000    0     1.008    3.920797    0.799618    2.178866
  17 H     1.0000    0     1.008    4.659663   -3.644364    0.744135
  18 H     1.0000    0     1.008    5.991706   -2.517723   -2.103100
  19 H     1.0000    0     1.008    7.548478   -1.961526    0.806956

--------------------------------
INTERNAL COORDINATES (ANGSTROEM)
--------------------------------
 C      0   0   0     0.000000000000     0.00000000     0.00000000
 C      1   0   0     1.523981939570     0.00000000     0.00000000
 C      2   1   0     1.528976176423   111.66275583     0.00000000
 C      3   2   1     1.507972684364   112.01254735   290.79313326
 O      4   3   2     1.213604270199   125.14773403   324.95763377
 O      4   3   2     1.326743865471   111.08628578   146.00175791
 C      6   4   3     1.438369281196   119.43101565   178.87645868
 C      7   6   4     1.518737650059   109.06910718   136.03338223
 H      1   2   3     1.086642381069   110.39787690   180.94155131
 H      1   2   3     1.087458323817   110.64207802   301.17880892
 H      1   2   3     1.088238581058   110.25185516    61.33241044
 H      2   1   3     1.091504566040   109.47268981   239.66643249
 H      2   1   3     1.090225505625   109.63257356   120.81643950
 H      3   2   1     1.092471637295   109.70034081   172.71115167
 H      3   2   1     1.089704719939   111.55000779    52.62983345
 H      7   6   4     1.093690408868   107.02230906   256.24781870
 H      7   6   4     1.094505792300   108.49563058    13.96147164
 H      8   7   6     1.086563934594   110.37869298   297.18502796
 H      8   7   6     1.086028922681   109.88103693    57.23518773
 H      8   7   6     1.085078752423   109.25644083   177.17102545

---------------------------
INTERNAL COORDINATES (A.U.)
---------------------------
 C      0   0   0     0.000000000000     0.00000000     0.00000000
 C      1   0   0     2.879908498829     0.00000000     0.00000000
 C      2   1   0     2.889346238729   111.66275583     0.00000000
 C      3   2   1     2.849655390881   112.01254735   290.79313326
 O      4   3   2     2.293379705634   125.14773403   324.95763377
 O      4   3   2     2.507182555600   111.08628578   146.00175791
 C      6   4   3     2.718124020905   119.43101565   178.87645868
 C      7   6   4     2.869998227887   109.06910718   136.03338223
 H      1   2   3     2.053456505733   110.39787690   180.94155131
 H      1   2   3     2.054998414067   110.64207802   301.17880892
 H      1   2   3     2.056472886567   110.25185516    61.33241044
 H      2   1   3     2.062644703740   109.47268981   239.66643249
 H      2   1   3     2.060227629847   109.63257356   120.81643950
 H      3   2   1     2.064472203565   109.70034081   172.71115167
 H      3   2   1     2.059243487527   111.55000779    52.62983345
 H      7   6   4     2.066775348058   107.02230906   256.24781870
 H      7   6   4     2.068316199437   108.49563058    13.96147164
 H      8   7   6     2.053308263378   110.37869298   297.18502796
 H      8   7   6     2.052297237385   109.88103693    57.23518773
 H      8   7   6     2.050501675817   109.25644083   177.17102545

---------------------
BASIS SET INFORMATION
---------------------
There are 3 groups of distinct atoms

 Group   1 Type C   : 11s6p1d contracted to 5s3p1d pattern {62111/411/1}
 Group   2 Type O   : 11s6p2d contracted to 5s3p2d pattern {62111/411/11}
 Group   3 Type H   : 4s1p contracted to 2s1p pattern {31/1}

Atom   0C    basis set group =>   1
Atom   1C    basis set group =>   1
Atom   2C    basis set group =>   1
Atom   3C    basis set group =>   1
Atom   4O    basis set group =>   2
Atom   5O    basis set group =>   2
Atom   6C    basis set group =>   1
Atom   7C    basis set group =>   1
Atom   8H    basis set group =>   3
Atom   9H    basis set group =>   3
Atom  10H    basis set group =>   3
Atom  11H    basis set group =>   3
Atom  12H    basis set group =>   3
Atom  13H    basis set group =>   3
Atom  14H    basis set group =>   3
Atom  15H    basis set group =>   3
Atom  16H    basis set group =>   3
Atom  17H    basis set group =>   3
Atom  18H    basis set group =>   3
Atom  19H    basis set group =>   3
---------------------------------
AUXILIARY/J BASIS SET INFORMATION
---------------------------------
There are 3 groups of distinct atoms

 Group   1 Type C   : 12s5p4d2f1g contracted to 6s4p3d1f1g pattern {711111/2111/211/2/1}
 Group   2 Type O   : 12s5p4d2f1g contracted to 6s4p3d1f1g pattern {711111/2111/211/2/1}
 Group   3 Type H   : 5s2p1d contracted to 3s1p1d pattern {311/2/1}

Atom   0C    basis set group =>   1
Atom   1C    basis set group =>   1
Atom   2C    basis set group =>   1
Atom   3C    basis set group =>   1
Atom   4O    basis set group =>   2
Atom   5O    basis set group =>   2
Atom   6C    basis set group =>   1
Atom   7C    basis set group =>   1
Atom   8H    basis set group =>   3
Atom   9H    basis set group =>   3
Atom  10H    basis set group =>   3
Atom  11H    basis set group =>   3
Atom  12H    basis set group =>   3
Atom  13H    basis set group =>   3
Atom  14H    basis set group =>   3
Atom  15H    basis set group =>   3
Atom  16H    basis set group =>   3
Atom  17H    basis set group =>   3
Atom  18H    basis set group =>   3
Atom  19H    basis set group =>   3

Checking for AutoStart:
The File: sp_gas.gbw exists
Trying to determine its content:
     ... Fine, the file contains calculation information
     ... Fine, the calculation information was read
     ... Fine, the file contains a basis set
     ... Fine, the basis set was read
     ... Fine, the file contains a geometry
     ... Fine, the geometry was read
     ... Fine, the file contains a set of orbitals
     ... Fine, the orbitals can be read
     => possible old guess file was deleted
     => GBW file was renamed to GES file
     => GES file is set as startup file
     => Guess is set to MORead
     ... now leaving AutoStart

------------------------------------------------------------------------------
                             ORCA STARTUP CALCULATIONS
                           -- RI-GTO INTEGRALS CHOSEN --
------------------------------------------------------------------------------
------------------------------------------------------------------------------
                   ___                                                        
                  /   \      - P O W E R E D   B Y -                         
                 /     \                                                     
                 |  |  |   _    _      __       _____    __    __             
                 |  |  |  | |  | |    /  \     |  _  \  |  |  /  |          
                  \  \/   | |  | |   /    \    | | | |  |  | /  /          
                 / \  \   | |__| |  /  /\  \   | |_| |  |  |/  /          
                |  |  |   |  __  | /  /__\  \  |    /   |      \           
                |  |  |   | |  | | |   __   |  |    \   |  |\   \          
                \     /   | |  | | |  |  |  |  | |\  \  |  | \   \       
                 \___/    |_|  |_| |__|  |__|  |_| \__\ |__|  \__/        
                                                                              
                      - O R C A' S   B I G   F R I E N D -                    
                                      &                                       
                       - I N T E G R A L  F E E D E R -                       
                                                                              
 v1 FN, 2020, v2 2021, v3 2022-2024                                           
------------------------------------------------------------------------------


----------------------
SHARK INTEGRAL PACKAGE
----------------------

Number of atoms                             ...     20
Number of basis functions                   ...    222
Number of shells                            ...    110
Maximum angular momentum                    ...      2
Integral batch strategy                     ... SHARK/LIBINT Hybrid
RI-J (if used) integral strategy            ... SPLIT-RIJ (Revised 2003 algorithm where possible)
Printlevel                                  ...      1
Contraction scheme used                     ... SEGMENTED contraction
Prescreening option                         ... SCHWARTZ
   Thresh                                   ... 1.000e-10
   Tcut                                     ... 1.000e-11
   Tpresel                                  ... 1.000e-11 
Coulomb Range Separation                    ... NOT USED
Exchange Range Separation                   ... NOT USED
Multipole approximations                    ... NOT USED
Finite Nucleus Model                        ... NOT USED
CABS basis                                  ... NOT available
Auxiliary Coulomb fitting basis             ... AVAILABLE
   # of basis functions in Aux-J            ...    524
   # of shells in Aux-J                     ...    180
   Maximum angular momentum in Aux-J        ...      4
Auxiliary J/K fitting basis                 ... NOT available
Auxiliary Correlation fitting basis         ... NOT available
Auxiliary 'external' fitting basis          ... NOT available

Checking pre-screening integrals            ... done (  0.0 sec) Dimension = 110
Check shell pair data                       ... done (  0.0 sec)
Shell pair information
Shell pair cut-off parameter TPreSel        ...   1.0e-11
Total number of shell pairs                 ...      6105
Shell pairs after pre-screening             ...      5281
Total number of primitive shell pairs       ...     21533
Primitive shell pairs kept                  ...     13131
          la=0 lb=0:   1776 shell pairs
          la=1 lb=0:   1995 shell pairs
          la=1 lb=1:    580 shell pairs
          la=2 lb=0:    564 shell pairs
          la=2 lb=1:    315 shell pairs
          la=2 lb=2:     51 shell pairs

Calculating one electron integrals          ... done (  0.0 sec)
Calculating RI/J V-Matrix + Cholesky decomp.... done (  0.1 sec)
Calculating Nuclear repulsion               ... done (  0.0 sec) ENN=    392.191528350375 Eh

Diagonalization of the overlap matrix:
Smallest eigenvalue                        ... 1.681e-04
Time for diagonalization                   ...    0.009 sec
Threshold for overlap eigenvalues          ... 1.000e-07
Number of eigenvalues below threshold      ... 0
Time for construction of square roots      ...    0.024 sec
Total time needed                          ...    0.048 sec

-------------------
DFT GRID GENERATION
-------------------

General Integration Accuracy     IntAcc      ... 4.388
Radial Grid Type                 RadialGrid  ... OptM3 with GC (2021)
Angular Grid (max. ang.)         AngularGrid ... 4 (Lebedev-302)
Angular grid pruning method      GridPruning ... 4 (adaptive)
Weight generation scheme         WeightScheme... mBecke (2022)
Basis function cutoff            BFCut       ... 1.0000e-10
Integration weight cutoff        WCut        ... 1.0000e-14
Partially contracted basis set               ... off
Rotationally invariant grid construction     ... off
Angular grids for H and He will be reduced by one unit
Diffuse basis detected: some atoms will have their outermost
                        angular grid increased by 1.

Total number of grid points                  ...    87415
Total number of batches                      ...     1377
Average number of points per batch           ...       63
Average number of grid points per atom       ...     4371
Initializing property integral containers    ... done (  0.0 sec)

SHARK setup successfully completed in   1.6 seconds

Maximum memory used throughout the entire STARTUP-calculation: 39.2 MB
-------------------------------------------------------------------------------
                                 ORCA GUESS
                   Start orbitals & Density for SCF / CASSCF
-------------------------------------------------------------------------------

------------
SCF SETTINGS
------------
Hamiltonian:
 Density Functional     Method          .... DFT(GTOs)
  Functional kind                       .... Exchange
  Functional name                       .... Re-regularized SCAN exchange by Furness et al
  Functional family                     .... MGGA
  Functional refs                              
    [ 0] J. W. Furness, A. D. Kaplan, J. Ning, J. P. Perdew, and J. Sun.,  J. Phys. Chem. Lett. 11, 8208-8215 (2020), doi: 10.1021/acs.jpclett.0c02405
    [ 1] J. W. Furness, A. D. Kaplan, J. Ning, J. P. Perdew, and J. Sun.,  J. Phys. Chem. Lett. 11, 9248-9248 (2020), doi: 10.1021/acs.jpclett.0c03077
  Functional external parameters        .... 6
    Parameter  0 _c1        =  6.670000e-01 : c1 parameter        
    Parameter  1 _c2        =  8.000000e-01 : c2 parameter        
    Parameter  2 _d         =  1.240000e+00 : d parameter         
    Parameter  3 _k1        =  6.500000e-02 : k1 parameter        
    Parameter  4 _eta       =  1.000000e-03 : eta parameter       
    Parameter  5 _dp2       =  3.610000e-01 : dp2 parameter       
  Functional kind                       .... Correlation
  Functional name                       .... Re-regularized SCAN correlation by Furness et al
  Functional family                     .... MGGA
  Functional refs                              
    [ 0] J. W. Furness, A. D. Kaplan, J. Ning, J. P. Perdew, and J. Sun.,  J. Phys. Chem. Lett. 11, 8208-8215 (2020), doi: 10.1021/acs.jpclett.0c02405
    [ 1] J. W. Furness, A. D. Kaplan, J. Ning, J. P. Perdew, and J. Sun.,  J. Phys. Chem. Lett. 11, 9248-9248 (2020), doi: 10.1021/acs.jpclett.0c03077
  Functional external parameters        .... 1
    Parameter  0 _eta       =  1.000000e-03 : Regularization parameter
 Gradients option       PostSCFGGA      .... off
 RI-approximation to the Coulomb term is turned on
   Number of AuxJ basis functions       .... 524


General Settings:
 Integral files         IntName         .... sp_gas
 Hartree-Fock type      HFTyp           .... RHF
 Total Charge           Charge          ....    0
 Multiplicity           Mult            ....    1
 Number of Electrons    NEL             ....   64
 Basis Dimension        Dim             ....  222
 Nuclear Repulsion      ENuc            ....    392.1915283504 Eh

Convergence Acceleration:
 AO-DIIS                CNVDIIS         .... on
   Start iteration      DIISMaxIt       ....    12
   Startup error        DIISStart       ....  0.200000
   # of expansion vecs  DIISMaxEq       ....     5
   Bias factor          DIISBfac        ....   1.050
   Max. coefficient     DIISMaxC        ....  10.000
 MO-DIIS                CNVKDIIS        .... off
 Trust-Rad. Augm. Hess. CNVTRAH         .... auto
   Auto Start mean grad. ratio tolernc. ....  1.125000
   Auto Start start iteration           ....     1
   Auto Start num. interpolation iter.  ....    10
   Max. Number of Micro iterations      ....    24
   Max. Number of Macro iterations      .... Maxiter - #DIIS iter
   Number of Davidson start vectors     ....     2
   Converg. threshold    (grad. norm)   ....   3.330e-04
   Grad. Scal. Fac. for Micro threshold ....   0.100
   Minimum threshold for Micro iter.    ....   1.000e-02
   NR start threshold (gradient norm)   ....   1.000e-04
   Initial trust radius                 ....   0.400
   Minimum AH scaling param. (alpha)    ....   1.000
   Maximum AH scaling param. (alpha)    .... 1000.000
   Quad. conv. algorithm                .... NR
   White noise on init. David. guess    .... on
   Maximum white noise                  ....   0.010
   Pseudo random numbers                .... off
   Inactive MOs                         .... canonical
   Orbital update algorithm             .... Taylor
   Preconditioner                       .... Diag
   Full preconditioner red. dimension   ....   250
   COSX micro iterations for RIJONX calc.... off
 SOSCF                  CNVSOSCF        .... on
   Start iteration      SOSCFMaxIt      ....   150
   Startup grad/error   SOSCFStart      ....  0.003300
   Hessian update       SOSCFHessUp     .... L-BFGS
 Level Shifting         CNVShift        .... on
   Level shift para.    LevelShift      ....    0.2500
   Turn off err/grad.   ShiftErr        ....    0.0010
 Zerner damping         CNVZerner       .... off
 Static damping         CNVDamp         .... on
   Fraction old density DampFac         ....    0.7000
   Max. Damping (<1)    DampMax         ....    0.9800
   Min. Damping (>=0)   DampMin         ....    0.0000
   Turn off err/grad.   DampErr         ....    0.1000

SCF Procedure:
 Maximum # iterations   MaxIter         ....   125
 SCF integral mode      SCFMode         .... Direct
   Integral package                     .... SHARK and LIBINT hybrid scheme
 Reset frequency        DirectResetFreq ....    20
 Integral Threshold     Thresh          ....  1.000e-10 Eh
 Primitive CutOff       TCut            ....  1.000e-11 Eh

Convergence Tolerance:
 Convergence Check Mode ConvCheckMode   .... Total+1el-Energy
 Convergence forced     ConvForced      .... 0
 Energy Change          TolE            ....  1.000e-06 Eh
 1-El. energy change                    ....  1.000e-03 Eh
 Orbital Gradient       TolG            ....  3.330e-04
 Orbital Rotation angle TolX            ....  3.330e-04
 DIIS Error             TolErr          ....  1.000e-06

---------------------
INITIAL GUESS: MOREAD
---------------------
Guess MOs are being read from file: sp_gas.ges
Input Geometry matches current geometry (good)
Atom 0: N(Shells)= 9 and 6 - projection required
Input basis set needs projection
NBasis(read)= 136
NBasis(calc)= 222
Basis set overlap was calculated
Using GuessMode=FMatrix for the initial guess
C*T matrix was formed
Effective Fockian was calculated
Effective Fockian was diagonalized
Initial density was built
                      ------------------
                      INITIAL GUESS DONE (   0.1 sec)
                      ------------------
             **** ENERGY FILE WAS UPDATED (sp_gas.en.tmp) ****
Finished Guess after   0.5 sec
Maximum memory used throughout the entire GUESS-calculation: 15.0 MB

-------------------------------------------------------------------------------------------
                                      ORCA LEAN-SCF
                              memory conserving SCF solver
-------------------------------------------------------------------------------------------

----------------------------------------D-I-I-S--------------------------------------------
Iteration    Energy (Eh)           Delta-E    RMSDP     MaxDP     DIISErr   Damp  Time(sec)
-------------------------------------------------------------------------------------------
               ***  Starting incremental Fock matrix formation  ***
    1    -386.0470194729521722     0.00e+00  3.70e-03  1.24e-01  6.26e-01  0.700   3.2
    2    -386.1051197341919874    -5.81e-02  3.01e-03  9.17e-02  4.40e-01  0.700   3.0
    3    -386.1461761247859954    -4.11e-02  2.21e-03  6.49e-02  3.09e-01  0.700   2.7
    4    -386.1749953737326564    -2.88e-02  1.58e-03  4.58e-02  2.16e-01  0.700   2.9
                               ***Turning on AO-DIIS***
    5    -386.1952073889738699    -2.02e-02  1.14e-03  3.29e-02  1.51e-01  0.700   2.8
    6    -386.2093739773858374    -1.42e-02  8.11e-04  2.32e-02  1.06e-01  0.700   2.7
    7    -386.2193040322745787    -9.93e-03  5.72e-04  1.63e-02  7.41e-02  0.700   2.8
    8    -386.2262608178112373    -6.96e-03  1.34e-03  3.79e-02  5.19e-02  0.000   2.8
                              *** Initializing SOSCF ***
---------------------------------------S-O-S-C-F--------------------------------------
Iteration    Energy (Eh)           Delta-E    RMSDP     MaxDP     MaxGrad    Time(sec)
--------------------------------------------------------------------------------------
    9    -386.2425132850184468    -1.63e-02  8.06e-06  3.35e-04  9.24e-05     2.7
               *** Restarting incremental Fock matrix formation ***
   10    -386.2425133686708136    -8.37e-08  4.89e-06  1.77e-04  3.67e-05     3.2
                  *** Gradient check signals convergence ***

               *****************************************************
               *                     SUCCESS                       *
               *           SCF CONVERGED AFTER  10 CYCLES          *
               *****************************************************

             **** ENERGY FILE WAS UPDATED (sp_gas.en.tmp) ****

----------------
TOTAL SCF ENERGY
----------------

Total Energy       :       -386.24251336867081 Eh          -10510.19312 eV

Components:
Nuclear Repulsion  :        392.19152835037534 Eh           10672.07404 eV
Electronic Energy  :       -778.43404171904615 Eh          -21182.26716 eV
One Electron Energy:      -1301.57813087960085 Eh          -35417.74154 eV
Two Electron Energy:        523.14408916055470 Eh           14235.47438 eV

Virial components:
Potential Energy   :       -770.88293475375792 Eh          -20976.79109 eV
Kinetic Energy     :        384.64042138508711 Eh           10466.59798 eV
Virial Ratio       :          2.00416516802320

DFT components:
N(Alpha)           :       31.999996951469 electrons
N(Beta)            :       31.999996951469 electrons
N(Total)           :       63.999993902938 electrons
E(X)               :      -52.078151297037 Eh       
E(C)               :       -2.037673848648 Eh       
E(XC)              :      -54.115825145685 Eh       

---------------
SCF CONVERGENCE
---------------

  Last Energy change         ...    8.3652e-08  Tolerance :   1.0000e-06
  Last MAX-Density change    ...    1.7728e-04  Tolerance :   1.0000e-05
  Last RMS-Density change    ...    4.8941e-06  Tolerance :   1.0000e-06
  Last DIIS Error            ...    9.2450e-05  Tolerance :   1.0000e-06
  Last Orbital Gradient      ...    3.6723e-05  Tolerance :   3.3300e-04
  Last Orbital Rotation      ...    1.4304e-04  Tolerance :   3.3300e-04


----------------
ORBITAL ENERGIES
----------------

  NO   OCC          E(Eh)            E(eV) 
   0   2.0000     -18.996295      -516.9155 
   1   2.0000     -18.927514      -515.0438 
   2   2.0000     -10.152049      -276.2513 
   3   2.0000     -10.089824      -274.5581 
   4   2.0000     -10.040829      -273.2248 
   5   2.0000     -10.031747      -272.9777 
   6   2.0000     -10.030274      -272.9376 
   7   2.0000     -10.016527      -272.5635 
   8   2.0000      -1.070492       -29.1296 
   9   2.0000      -0.975400       -26.5420 
  10   2.0000      -0.771605       -20.9964 
  11   2.0000      -0.742140       -20.1947 
  12   2.0000      -0.677363       -18.4320 
  13   2.0000      -0.619503       -16.8575 
  14   2.0000      -0.563699       -15.3390 
  15   2.0000      -0.525299       -14.2941 
  16   2.0000      -0.471339       -12.8258 
  17   2.0000      -0.460954       -12.5432 
  18   2.0000      -0.439968       -11.9721 
  19   2.0000      -0.422671       -11.5015 
  20   2.0000      -0.404481       -11.0065 
  21   2.0000      -0.386657       -10.5215 
  22   2.0000      -0.375371       -10.2144 
  23   2.0000      -0.368665       -10.0319 
  24   2.0000      -0.353834        -9.6283 
  25   2.0000      -0.341138        -9.2828 
  26   2.0000      -0.315187        -8.5767 
  27   2.0000      -0.309343        -8.4176 
  28   2.0000      -0.306629        -8.3438 
  29   2.0000      -0.303801        -8.2668 
  30   2.0000      -0.270243        -7.3537 
  31   2.0000      -0.236736        -6.4419 
  32   0.0000      -0.013440        -0.3657 
  33   0.0000       0.076055         2.0696 
  34   0.0000       0.092301         2.5116 
  35   0.0000       0.106283         2.8921 
  36   0.0000       0.125096         3.4040 
  37   0.0000       0.128740         3.5032 
  38   0.0000       0.135645         3.6911 
  39   0.0000       0.142107         3.8669 
  40   0.0000       0.150569         4.0972 
  41   0.0000       0.151836         4.1317 
  42   0.0000       0.166355         4.5267 
*Only the first 10 virtual orbitals were printed.

                    ********************************
                    * MULLIKEN POPULATION ANALYSIS *
                    ********************************

-----------------------
MULLIKEN ATOMIC CHARGES
-----------------------
   0 C :   -0.501354
   1 C :   -0.199268
   2 C :   -0.300328
   3 C :    0.348955
   4 O :   -0.435528
   5 O :   -0.165001
   6 C :   -0.164582
   7 C :   -0.443127
   8 H :    0.147555
   9 H :    0.141792
  10 H :    0.160351
  11 H :    0.157679
  12 H :    0.141191
  13 H :    0.168220
  14 H :    0.164452
  15 H :    0.142229
  16 H :    0.185156
  17 H :    0.151680
  18 H :    0.153261
  19 H :    0.146667
Sum of atomic charges:   -0.0000000

--------------------------------
MULLIKEN REDUCED ORBITAL CHARGES
--------------------------------
  0 C s       :     3.339207  s :     3.339207
      pz      :     1.065340  p :     3.135088
      px      :     1.111316
      py      :     0.958432
      dz2     :     0.001706  d :     0.027059
      dxz     :     0.007047
      dyz     :     0.008003
      dx2y2   :     0.007523
      dxy     :     0.002779

  1 C s       :     3.170274  s :     3.170274
      pz      :     1.039295  p :     2.992352
      px      :     0.977645
      py      :     0.975412
      dz2     :     0.003252  d :     0.036642
      dxz     :     0.009402
      dyz     :     0.009516
      dx2y2   :     0.009804
      dxy     :     0.004669

  2 C s       :     3.211248  s :     3.211248
      pz      :     0.986178  p :     3.053927
      px      :     0.952226
      py      :     1.115523
      dz2     :     0.003080  d :     0.035153
      dxz     :     0.010883
      dyz     :     0.008073
      dx2y2   :     0.009043
      dxy     :     0.004073

  3 C s       :     3.163304  s :     3.163304
      pz      :     0.761948  p :     2.362517
      px      :     0.843806
      py      :     0.756764
      dz2     :     0.026945  d :     0.125224
      dxz     :     0.045686
      dyz     :     0.019440
      dx2y2   :     0.014786
      dxy     :     0.018368

  4 O s       :     3.841955  s :     3.841955
      pz      :     1.329323  p :     4.573052
      px      :     1.805769
      py      :     1.437960
      dz2     :     0.007339  d :     0.020521
      dxz     :     0.000339
      dyz     :     0.009386
      dx2y2   :     0.001842
      dxy     :     0.001615

  5 O s       :     3.698992  s :     3.698992
      pz      :     1.644986  p :     4.440676
      px      :     1.087180
      py      :     1.708510
      dz2     :     0.003856  d :     0.025333
      dxz     :     0.002725
      dyz     :     0.005752
      dx2y2   :     0.000248
      dxy     :     0.012751

  6 C s       :     3.289800  s :     3.289800
      pz      :     1.042291  p :     2.821567
      px      :     0.787133
      py      :     0.992144
      dz2     :     0.010165  d :     0.053214
      dxz     :     0.011598
      dyz     :     0.006085
      dx2y2   :     0.011705
      dxy     :     0.013661

  7 C s       :     3.310842  s :     3.310842
      pz      :     1.094020  p :     3.106477
      px      :     1.047968
      py      :     0.964488
      dz2     :     0.006207  d :     0.025808
      dxz     :     0.003817
      dyz     :     0.004211
      dx2y2   :     0.005293
      dxy     :     0.006280

  8 H s       :     0.834112  s :     0.834112
      pz      :     0.005539  p :     0.018333
      px      :     0.008893
      py      :     0.003901

  9 H s       :     0.839971  s :     0.839971
      pz      :     0.007091  p :     0.018237
      px      :     0.003819
      py      :     0.007326

 10 H s       :     0.821428  s :     0.821428
      pz      :     0.006775  p :     0.018221
      px      :     0.007829
      py      :     0.003617

 11 H s       :     0.824332  s :     0.824332
      pz      :     0.007594  p :     0.017989
      px      :     0.003377
      py      :     0.007018

 12 H s       :     0.840864  s :     0.840864
      pz      :     0.006190  p :     0.017945
      px      :     0.008178
      py      :     0.003576

 13 H s       :     0.813540  s :     0.813540
      pz      :     0.005520  p :     0.018240
      px      :     0.003677
      py      :     0.009044

 14 H s       :     0.817678  s :     0.817678
      pz      :     0.006915  p :     0.017870
      px      :     0.003570
      py      :     0.007385

 15 H s       :     0.840360  s :     0.840360
      pz      :     0.004379  p :     0.017411
      px      :     0.004838
      py      :     0.008195

 16 H s       :     0.796557  s :     0.796557
      pz      :     0.011271  p :     0.018287
      px      :     0.003159
      py      :     0.003858

 17 H s       :     0.830095  s :     0.830095
      pz      :     0.004869  p :     0.018225
      px      :     0.005467
      py      :     0.007890

 18 H s       :     0.828481  s :     0.828481
      pz      :     0.010630  p :     0.018258
      px      :     0.003729
      py      :     0.003898

 19 H s       :     0.834886  s :     0.834886
      pz      :     0.005194  p :     0.018447
      px      :     0.009682
      py      :     0.003571


------------------------
MULLIKEN OVERLAP CHARGES
------------------------
B(  0-C ,  1-C ) :   0.4667 B(  0-C ,  2-C ) :  -0.2125 B(  0-C ,  8-H ) :   0.7874 
B(  0-C ,  9-H ) :   0.8535 B(  0-C , 10-H ) :   0.8503 B(  0-C , 12-H ) :  -0.0508 
B(  1-C ,  2-C ) :   0.3971 B(  1-C ,  3-C ) :  -0.1055 B(  1-C ,  8-H ) :  -0.0663 
B(  1-C ,  9-H ) :  -0.1013 B(  1-C , 10-H ) :  -0.0903 B(  1-C , 11-H ) :   0.8217 
B(  1-C , 12-H ) :   0.8209 B(  1-C , 13-H ) :  -0.0545 B(  1-C , 14-H ) :  -0.0972 
B(  2-C ,  3-C ) :   0.3377 B(  2-C ,  4-O ) :  -0.1903 B(  2-C ,  5-O ) :  -0.1231 
B(  2-C , 11-H ) :  -0.0504 B(  2-C , 12-H ) :  -0.1080 B(  2-C , 13-H ) :   0.7377 
B(  2-C , 14-H ) :   0.8949 B(  3-C ,  4-O ) :   0.9804 B(  3-C ,  5-O ) :   0.4102 
B(  3-C ,  6-C ) :  -0.2526 B(  3-C , 14-H ) :  -0.1387 B(  3-C , 16-H ) :  -0.0549 
B(  4-O ,  5-O ) :  -0.2134 B(  5-O ,  6-C ) :   0.2448 B(  5-O ,  7-C ) :  -0.0701 
B(  5-O , 15-H ) :  -0.0799 B(  5-O , 16-H ) :  -0.0686 B(  6-C ,  7-C ) :   0.4927 
B(  6-C , 15-H ) :   0.7573 B(  6-C , 16-H ) :   0.8729 B(  6-C , 17-H ) :  -0.0783 
B(  6-C , 19-H ) :  -0.0818 B(  7-C , 16-H ) :  -0.0647 B(  7-C , 17-H ) :   0.8314 
B(  7-C , 18-H ) :   0.8179 B(  7-C , 19-H ) :   0.8221 B(  9-H , 10-H ) :  -0.0517 
B( 15-H , 16-H ) :  -0.0513 


                     *******************************
                     * LOEWDIN POPULATION ANALYSIS *
                     *******************************

----------------------
LOEWDIN ATOMIC CHARGES
----------------------
   0 C :   -0.417512
   1 C :   -0.297816
   2 C :   -0.232686
   3 C :    0.360514
   4 O :   -0.446388
   5 O :   -0.597073
   6 C :    0.030671
   7 C :   -0.387172
   8 H :    0.152750
   9 H :    0.148716
  10 H :    0.157594
  11 H :    0.169571
  12 H :    0.152339
  13 H :    0.183391
  14 H :    0.178703
  15 H :    0.174501
  16 H :    0.194360
  17 H :    0.158201
  18 H :    0.158279
  19 H :    0.159057

-------------------------------
LOEWDIN REDUCED ORBITAL CHARGES
-------------------------------
  0 C s       :     2.970767  s :     2.970767
      pz      :     1.142535  p :     3.383605
      px      :     1.156367
      py      :     1.084702
      dz2     :     0.003406  d :     0.063140
      dxz     :     0.017376
      dyz     :     0.018912
      dx2y2   :     0.018221
      dxy     :     0.005226

  1 C s       :     2.934206  s :     2.934206
      pz      :     1.116970  p :     3.284219
      px      :     1.072547
      py      :     1.094702
      dz2     :     0.006019  d :     0.079390
      dxz     :     0.021832
      dyz     :     0.021161
      dx2y2   :     0.022047
      dxy     :     0.008332

  2 C s       :     2.922038  s :     2.922038
      pz      :     1.077314  p :     3.236352
      px      :     1.029766
      py      :     1.129272
      dz2     :     0.005350  d :     0.074296
      dxz     :     0.022648
      dyz     :     0.019380
      dx2y2   :     0.019689
      dxy     :     0.007229

  3 C s       :     2.736593  s :     2.736593
      pz      :     0.958594  p :     2.630159
      px      :     0.915684
      py      :     0.755881
      dz2     :     0.059086  d :     0.272734
      dxz     :     0.101229
      dyz     :     0.042996
      dx2y2   :     0.030850
      dxy     :     0.038572

  4 O s       :     3.548436  s :     3.548436
      pz      :     1.478867  p :     4.672249
      px      :     1.741772
      py      :     1.451610
      dz2     :     0.068626  d :     0.225703
      dxz     :     0.058991
      dyz     :     0.053326
      dx2y2   :     0.025982
      dxy     :     0.018778

  5 O s       :     3.464022  s :     3.464022
      pz      :     1.653487  p :     4.659394
      px      :     1.321869
      py      :     1.684038
      dz2     :     0.088492  d :     0.473657
      dxz     :     0.121043
      dyz     :     0.040277
      dx2y2   :     0.108399
      dxy     :     0.115446

  6 C s       :     2.868833  s :     2.868833
      pz      :     1.051155  p :     2.981065
      px      :     0.869144
      py      :     1.060766
      dz2     :     0.025772  d :     0.119431
      dxz     :     0.026199
      dyz     :     0.011132
      dx2y2   :     0.023923
      dxy     :     0.032405

  7 C s       :     2.973822  s :     2.973822
      pz      :     1.154576  p :     3.352430
      px      :     1.115633
      py      :     1.082221
      dz2     :     0.015323  d :     0.060920
      dxz     :     0.009432
      dyz     :     0.009490
      dx2y2   :     0.012544
      dxy     :     0.014132

  8 H s       :     0.803785  s :     0.803785
      pz      :     0.012915  p :     0.043466
      px      :     0.021908
      py      :     0.008642

  9 H s       :     0.807939  s :     0.807939
      pz      :     0.017372  p :     0.043345
      px      :     0.008459
      py      :     0.017514

 10 H s       :     0.798426  s :     0.798426
      pz      :     0.016433  p :     0.043979
      px      :     0.019443
      py      :     0.008104

 11 H s       :     0.786315  s :     0.786315
      pz      :     0.019008  p :     0.044113
      px      :     0.007633
      py      :     0.017473

 12 H s       :     0.804367  s :     0.804367
      pz      :     0.015313  p :     0.043295
      px      :     0.019592
      py      :     0.008389

 13 H s       :     0.772148  s :     0.772148
      pz      :     0.012940  p :     0.044462
      px      :     0.008829
      py      :     0.022693

 14 H s       :     0.777220  s :     0.777220
      pz      :     0.017136  p :     0.044077
      px      :     0.008480
      py      :     0.018461

 15 H s       :     0.785194  s :     0.785194
      pz      :     0.010857  p :     0.040305
      px      :     0.010162
      py      :     0.019286

 16 H s       :     0.760827  s :     0.760827
      pz      :     0.027578  p :     0.044812
      px      :     0.008330
      py      :     0.008904

 17 H s       :     0.798440  s :     0.798440
      pz      :     0.011260  p :     0.043359
      px      :     0.013106
      py      :     0.018993

 18 H s       :     0.798270  s :     0.798270
      pz      :     0.026783  p :     0.043451
      px      :     0.008012
      py      :     0.008656

 19 H s       :     0.797073  s :     0.797073
      pz      :     0.012083  p :     0.043870
      px      :     0.023757
      py      :     0.008030


---------------------------------
LOEWDIN BOND ORDERS (THRESH 0.050000)
---------------------------------
B(  0-C ,  1-C ) :   1.1411 B(  0-C ,  2-C ) :   0.0672 B(  0-C ,  8-H ) :   0.9297 
B(  0-C ,  9-H ) :   0.9303 B(  0-C , 10-H ) :   0.9211 B(  1-C ,  2-C ) :   1.0909 
B(  1-C ,  3-C ) :   0.0675 B(  1-C , 11-H ) :   0.8841 B(  1-C , 12-H ) :   0.8942 
B(  2-C ,  3-C ) :   0.9208 B(  2-C ,  4-O ) :   0.1784 B(  2-C ,  5-O ) :   0.1885 
B(  2-C , 13-H ) :   0.8602 B(  2-C , 14-H ) :   0.8630 B(  3-C ,  4-O ) :   2.1645 
B(  3-C ,  5-O ) :   1.4551 B(  3-C ,  6-C ) :   0.0852 B(  4-O ,  5-O ) :   0.4596 
B(  4-O ,  6-C ) :   0.0732 B(  5-O ,  6-C ) :   1.2919 B(  5-O ,  7-C ) :   0.1673 
B(  5-O , 15-H ) :   0.0955 B(  5-O , 16-H ) :   0.0892 B(  6-C ,  7-C ) :   1.0902 
B(  6-C , 15-H ) :   0.8331 B(  6-C , 16-H ) :   0.8109 B(  7-C , 17-H ) :   0.9250 
B(  7-C , 18-H ) :   0.9225 B(  7-C , 19-H ) :   0.9194 

------------------------------------------
LOEWDIN REDUCED ORBITAL POPULATIONS PER MO
-------------------------------------------
THRESHOLD FOR PRINTING IS 0.1%%
                      0         1         2         3         4         5   
                 -18.99629 -18.92751 -10.15205 -10.08982 -10.04083 -10.03175
                   2.00000   2.00000   2.00000   2.00000   2.00000   2.00000
                  --------  --------  --------  --------  --------  --------
 2 C  s               0.0       0.0       0.0       0.0      99.7       0.0
 3 C  s               0.0       0.0      98.9       0.0       0.0       0.0
 4 O  s               0.0      99.9       0.0       0.0       0.0       0.0
 4 O  pz              0.0       0.0       0.2       0.0       0.0       0.0
 4 O  dz2             0.0       0.0       0.2       0.0       0.0       0.0
 4 O  dyz             0.0       0.0       0.1       0.0       0.0       0.0
 5 O  s              99.9       0.0       0.0       0.0       0.0       0.0
 5 O  dxz             0.0       0.0       0.1       0.2       0.0       0.0
 5 O  dx2y2           0.0       0.0       0.1       0.1       0.0       0.0
 6 C  s               0.0       0.0       0.0      99.4       0.0       0.0
 7 C  s               0.0       0.0       0.0       0.0       0.0      99.7

                      6         7         8         9        10        11   
                 -10.03027 -10.01653  -1.07049  -0.97540  -0.77161  -0.74214
                   2.00000   2.00000   2.00000   2.00000   2.00000   2.00000
                  --------  --------  --------  --------  --------  --------
 0 C  s               0.0      99.7       0.0       0.0       7.5       5.8
 0 C  pz              0.0       0.0       0.0       0.0       0.5       0.2
 0 C  py              0.1       0.0       0.0       0.0       1.7       0.7
 1 C  s              99.7       0.0       0.1       0.1      17.2       8.4
 1 C  pz              0.0       0.0       0.0       0.0       0.2       0.0
 1 C  px              0.0       0.0       0.2       0.2       1.6       0.1
 1 C  py              0.0       0.1       0.0       0.0       0.2       0.3
 2 C  s               0.0       0.0       1.0       0.2      20.1       1.9
 2 C  pz              0.0       0.0       0.5       0.5       0.7       0.2
 2 C  px              0.1       0.0       1.5       0.0       0.4       2.4
 2 C  py              0.0       0.0       0.0       0.1       0.1       0.1
 3 C  s               0.0       0.0      16.2       4.1       2.8       0.8
 3 C  pz              0.0       0.0       0.1      15.7       5.4       0.7
 3 C  px              0.0       0.0       4.8       3.2       3.8       1.5
 3 C  py              0.0       0.0       0.1       4.3       0.6       0.2
 3 C  dz2             0.0       0.0       0.1       1.1       0.0       0.0
 3 C  dxz             0.0       0.0       0.3       0.1       0.0       0.1
 3 C  dyz             0.0       0.0       0.4       0.4       0.0       0.0
 3 C  dx2y2           0.0       0.0       0.2       0.2       0.1       0.0
 3 C  dxy             0.0       0.0       0.2       0.1       0.0       0.0
 4 O  s               0.0       0.0      11.9      42.4       1.7       0.1
 4 O  pz              0.0       0.0       2.5       3.1       0.4       0.0
 4 O  px              0.0       0.0       0.1       0.0       0.1       0.0
 4 O  py              0.0       0.0       0.6       0.6       0.1       0.0
 4 O  dz2             0.0       0.0       0.4       0.1       0.3       0.1
 4 O  dxz             0.0       0.0       0.3       0.1       0.2       0.1
 4 O  dyz             0.0       0.0       0.6       0.0       0.2       0.0
 5 O  s               0.0       0.0      42.1      15.9       0.0       1.0
 5 O  pz              0.0       0.0       1.9       0.2       0.3       0.2
 5 O  px              0.0       0.0       0.4       0.8       6.0       8.8
 5 O  py              0.0       0.0       0.5       0.1       0.1       0.3
 5 O  dz2             0.0       0.0       0.0       0.1       0.1       0.1
 5 O  dxz             0.0       0.0       0.1       0.9       0.1       1.0
 5 O  dyz             0.0       0.0       0.2       0.3       0.0       0.0
 5 O  dx2y2           0.0       0.0       0.3       0.0       0.0       0.6
 5 O  dxy             0.0       0.0       0.2       0.2       0.0       0.0
 6 C  s               0.0       0.0       4.4       1.9       5.2      16.5
 6 C  pz              0.0       0.0       0.8       0.7       0.1       0.0
 6 C  px              0.0       0.0       4.7       1.0       0.1       1.7
 6 C  py              0.0       0.0       0.0       0.1       0.3       1.8
 6 C  dxz             0.0       0.0       0.2       0.1       0.0       0.0
 6 C  dx2y2           0.0       0.0       0.2       0.1       0.0       0.0
 7 C  s               0.0       0.0       0.3       0.2       3.3      19.7
 7 C  px              0.0       0.0       0.4       0.2       0.2       0.4
 7 C  py              0.0       0.0       0.3       0.2       0.4       1.4
 8 H  s               0.0       0.0       0.0       0.0       0.9       0.9
 9 H  s               0.0       0.0       0.0       0.0       1.0       0.9
10 H  s               0.0       0.0       0.0       0.0       1.0       0.8
11 H  s               0.0       0.0       0.0       0.0       2.2       1.2
11 H  pz              0.0       0.0       0.0       0.0       0.1       0.1
12 H  s               0.0       0.0       0.0       0.0       2.3       1.3
12 H  px              0.0       0.0       0.0       0.0       0.1       0.1
13 H  s               0.0       0.0       0.0       0.0       2.9       0.3
13 H  py              0.0       0.0       0.0       0.0       0.2       0.0
14 H  s               0.0       0.0       0.1       0.0       3.1       0.2
14 H  pz              0.0       0.0       0.0       0.0       0.1       0.0
14 H  py              0.0       0.0       0.0       0.0       0.1       0.0
15 H  s               0.0       0.0       0.3       0.1       0.8       2.8
15 H  py              0.0       0.0       0.0       0.0       0.0       0.2
16 H  s               0.0       0.0       0.4       0.1       0.7       2.5
16 H  pz              0.0       0.0       0.0       0.0       0.1       0.2
17 H  s               0.0       0.0       0.0       0.0       0.5       3.1
17 H  py              0.0       0.0       0.0       0.0       0.0       0.2
18 H  s               0.0       0.0       0.0       0.0       0.5       3.2
18 H  pz              0.0       0.0       0.0       0.0       0.0       0.3
19 H  s               0.0       0.0       0.0       0.0       0.5       3.3
19 H  px              0.0       0.0       0.0       0.0       0.0       0.2

                     12        13        14        15        16        17   
                  -0.67736  -0.61950  -0.56370  -0.52530  -0.47134  -0.46095
                   2.00000   2.00000   2.00000   2.00000   2.00000   2.00000
                  --------  --------  --------  --------  --------  --------
 0 C  s              19.6       6.8       7.0       0.6       0.0       0.1
 0 C  pz              0.0       0.3       0.8       0.1       1.7       0.0
 0 C  px              0.1       0.0       0.3       0.2       0.0       2.2
 0 C  py              0.1       0.9       5.9       1.5       1.3       0.4
 1 C  s               3.1       1.5      12.7       2.3       0.2       0.0
 1 C  pz              2.5       1.4       0.1       0.2       9.2       0.9
 1 C  px              2.3       0.3       2.5       1.5       0.1       3.3
 1 C  py              4.2       2.8       3.8       0.3       1.2       0.0
 1 C  dx2y2           0.2       0.1       0.0       0.0       0.0       0.0
 2 C  s              11.4       3.3       1.9       1.8       1.9       0.1
 2 C  pz              0.4       0.1       0.6       1.3      16.0       5.5
 2 C  px              2.5       2.4       6.9       0.1       3.5       0.1
 2 C  py              0.5       0.3       0.0       0.0       2.2       3.1
 2 C  dxz             0.1       0.0       0.2       0.0       0.1       0.0
 2 C  dx2y2           0.0       0.0       0.1       0.1       0.1       0.0
 3 C  s               2.6       1.6       1.0       2.1       2.2       0.4
 3 C  pz              3.5       0.7       1.0       0.5       0.7       2.2
 3 C  px              3.0       1.6       2.1       3.7       7.8       2.8
 3 C  py              0.1       0.8       0.0       0.4       0.5       8.2
 3 C  dxz             0.1       0.1       0.1       0.0       0.0       0.1
 4 O  s               0.6       0.2       0.3       1.8       2.1       1.6
 4 O  pz              0.4       0.2       0.3       1.1       5.1       0.4
 4 O  px              0.1       0.1       0.0       1.6       5.7       0.7
 4 O  py              0.0       0.1       0.0       0.5       0.1       6.1
 4 O  dz2             0.3       0.1       0.1       0.0       0.3       0.2
 4 O  dxz             0.2       0.1       0.0       0.2       0.5       0.2
 4 O  dyz             0.1       0.1       0.0       0.1       0.0       0.5
 4 O  dx2y2           0.0       0.1       0.0       0.0       0.0       0.0
 4 O  dxy             0.0       0.0       0.0       0.1       0.3       0.0
 5 O  s               1.0       0.0       1.5       3.9       0.2       0.2
 5 O  pz              0.1       0.1       0.1       5.5       4.5       7.5
 5 O  px              2.3      16.4       0.1      14.2       0.8       0.3
 5 O  py              0.0       0.1       0.4       4.4       0.1      13.5
 5 O  dz2             0.4       0.0       0.1       0.1       0.9       0.3
 5 O  dxz             0.0       0.5       0.4       0.2       0.3       0.0
 5 O  dyz             0.0       0.0       0.0       0.1       0.0       0.2
 5 O  dx2y2           0.7       0.1       0.9       0.1       0.3       0.1
 5 O  dxy             0.3       0.5       0.1       0.2       0.0       0.0
 6 C  s               0.3       4.8       4.8       4.1       0.1       0.1
 6 C  pz              0.2       0.3       0.7      11.3       6.0       4.8
 6 C  px              2.0       2.2       0.6       4.1       1.5       4.3
 6 C  py              1.0       4.1       2.5       4.0       0.4       7.2
 6 C  dxz             0.1       0.1       0.0       0.4       0.0       0.0
 6 C  dxy             0.0       0.1       0.0       0.0       0.0       0.0
 7 C  s               7.5      13.9       2.1       0.3       0.0       0.1
 7 C  pz              0.0       0.0       0.1       2.2       1.6       1.7
 7 C  px              0.1       1.2       0.2       0.3       0.1       5.8
 7 C  py              0.0       2.4       2.6       2.3       0.9       0.2
 8 H  s               4.3       2.1       2.7       0.2       0.0       0.7
 8 H  px              0.3       0.1       0.2       0.0       0.0       0.0
 9 H  s               3.8       1.9       3.5       0.6       1.0       0.2
 9 H  pz              0.2       0.1       0.2       0.0       0.0       0.0
 9 H  py              0.2       0.1       0.1       0.0       0.0       0.0
10 H  s               3.7       2.0       3.5       0.5       0.1       0.2
10 H  pz              0.1       0.1       0.1       0.0       0.0       0.0
10 H  px              0.2       0.1       0.1       0.0       0.0       0.0
11 H  s               0.6       0.5       5.3       1.3       3.0       0.0
11 H  pz              0.0       0.0       0.3       0.1       0.0       0.0
11 H  py              0.0       0.0       0.2       0.0       0.1       0.0
12 H  s               0.7       0.5       6.3       1.4       0.5       1.2
12 H  pz              0.0       0.0       0.2       0.1       0.0       0.0
12 H  px              0.0       0.0       0.3       0.0       0.0       0.0
13 H  s               3.0       1.3       0.8       1.2       1.8       2.4
13 H  py              0.2       0.1       0.0       0.1       0.2       0.1
14 H  s               2.6       0.5       1.2       1.3       6.9       0.1
14 H  pz              0.1       0.0       0.0       0.0       0.1       0.0
14 H  py              0.1       0.0       0.1       0.0       0.2       0.0
15 H  s               0.0       2.0       3.1       3.2       1.8       4.5
15 H  pz              0.0       0.0       0.1       0.2       0.0       0.0
16 H  s               0.0       1.3       2.5       7.6       1.7       1.2
16 H  pz              0.0       0.1       0.2       0.4       0.0       0.1
17 H  s               1.6       4.3       1.2       0.4       0.7       0.8
17 H  px              0.0       0.1       0.0       0.0       0.0       0.0
17 H  py              0.1       0.2       0.0       0.0       0.0       0.0
18 H  s               1.6       4.0       1.2       1.1       0.2       1.1
18 H  pz              0.1       0.3       0.1       0.1       0.0       0.0
19 H  s               1.9       4.8       0.7       0.0       0.1       1.2
19 H  px              0.1       0.3       0.0       0.0       0.0       0.0

                     18        19        20        21        22        23   
                  -0.43997  -0.42267  -0.40448  -0.38666  -0.37537  -0.36866
                   2.00000   2.00000   2.00000   2.00000   2.00000   2.00000
                  --------  --------  --------  --------  --------  --------
 0 C  s               0.3       0.1       0.0       0.0       0.0       0.0
 0 C  pz              1.4       7.0       3.2      11.8       0.2       5.5
 0 C  px              1.1       1.7      15.8       0.1       1.0       8.7
 0 C  py              1.1       0.1       0.9       0.0       5.1       6.0
 0 C  dyz             0.0       0.0       0.0       0.0       0.1       0.1
 1 C  s               0.2       0.1       0.0       0.1       0.0       0.0
 1 C  pz              0.0       5.4       3.4       0.9       2.7       2.8
 1 C  px              0.3       1.2      15.3       0.0       0.4       1.7
 1 C  py              1.9       4.0       0.7       3.7       2.0       1.1
 1 C  dxz             0.0       0.0       0.1       0.0       0.0       0.0
 2 C  s               0.1       0.0       0.3       0.2       0.0       0.2
 2 C  pz              0.1       0.3       0.8       3.8       0.3       3.6
 2 C  px              0.5       1.4       2.5       0.8       4.0       2.8
 2 C  py             16.1       7.3       0.2       1.1       4.1       5.9
 2 C  dxz             0.0       0.0       0.2       0.0       0.0       0.0
 2 C  dyz             0.0       0.0       0.0       0.0       0.1       0.1
 2 C  dxy             0.0       0.0       0.0       0.1       0.0       0.0
 3 C  s               0.6       1.1       1.0       0.0       0.1       0.0
 3 C  pz              0.7       4.0       0.5       2.1       1.4       1.5
 3 C  px              0.2       0.3       1.0       2.3       0.1       0.5
 3 C  py              6.6       0.3       0.1       4.2       0.3       0.4
 3 C  dz2             0.1       0.0       0.1       0.0       0.0       0.1
 3 C  dxz             0.1       0.0       0.0       0.0       0.1       0.0
 3 C  dx2y2           0.0       0.0       0.1       0.0       0.0       0.0
 3 C  dxy             0.0       0.1       0.0       0.1       0.1       0.0
 4 O  s               5.8       5.8       0.5       0.1       0.2       0.5
 4 O  pz             14.6      14.7       3.9       0.3       0.5       1.6
 4 O  px              0.6       0.5       0.5       1.4       0.7       0.1
 4 O  py              0.0       5.1       0.5       5.9       1.6       2.7
 4 O  dz2             0.3       0.1       0.1       0.2       0.0       0.0
 4 O  dyz             0.1       0.2       0.0       0.1       0.0       0.0
 4 O  dx2y2           0.1       0.1       0.1       0.1       0.0       0.0
 5 O  s               0.8       0.6       0.1       0.5       1.6       0.1
 5 O  pz              7.6       2.4       0.7       5.8       0.3       0.0
 5 O  px              3.2       1.1       0.3       1.5       0.0       3.4
 5 O  py              4.1       2.3       6.4       3.3       3.9       0.0
 5 O  dz2             0.1       0.1       0.1       0.0       0.2       0.1
 5 O  dxz             0.0       0.8       0.0       0.3       0.2       0.0
 5 O  dyz             0.0       0.2       0.1       0.0       0.1       0.0
 5 O  dx2y2           0.5       0.0       0.3       0.2       0.1       0.0
 5 O  dxy             0.7       0.1       0.5       0.0       0.0       0.5
 6 C  s               0.3       0.1       0.3       0.0       0.1       0.1
 6 C  pz              0.9       4.9       0.2       1.7       0.0       0.1
 6 C  px              7.0       0.2       1.3       0.9       1.5       1.1
 6 C  py              0.2       2.0       5.3       0.3       1.7       1.1
 6 C  dxz             0.0       0.0       0.0       0.1       0.1       0.1
 6 C  dx2y2           0.0       0.0       0.1       0.0       0.1       0.1
 7 C  s               0.1       0.0       0.2       0.0       0.0       0.0
 7 C  pz              0.5       5.0       0.3      17.1       9.0       6.1
 7 C  px              0.3       2.0       6.1       0.1      13.8       9.4
 7 C  py              4.5       0.1       3.7       3.6      10.6       0.3
 7 C  dz2             0.0       0.0       0.0       0.1       0.1       0.0
 7 C  dxz             0.0       0.0       0.0       0.0       0.2       0.1
 7 C  dx2y2           0.0       0.0       0.1       0.0       0.1       0.1
 8 H  s               1.5       2.3       2.7       1.8       0.1       4.8
 8 H  pz              0.0       0.0       0.1       0.0       0.0       0.0
 8 H  py              0.0       0.0       0.0       0.0       0.0       0.1
 9 H  s               0.0       1.3       0.8       2.3       2.1       6.8
 9 H  px              0.0       0.0       0.1       0.0       0.0       0.0
10 H  s               0.1       0.3       6.1       2.0       0.3       0.5
10 H  pz              0.0       0.0       0.1       0.0       0.0       0.1
11 H  s               0.1       3.2       0.8       1.1       0.1       0.1
11 H  px              0.0       0.0       0.1       0.0       0.0       0.0
12 H  s               0.0       0.1       6.7       0.1       0.1       0.0
13 H  s               6.1       2.4       0.0       2.8       1.4       0.6
13 H  pz              0.1       0.0       0.0       0.0       0.0       0.1
14 H  s               2.3       0.6       0.0       0.3       2.3       6.9
14 H  pz              0.1       0.0       0.0       0.0       0.1       0.1
15 H  s               2.4       1.1       0.1       0.3       0.4       0.0
16 H  s               0.1       1.9       0.1       0.6       0.5       0.0
17 H  s               2.2       0.5       0.2       5.0       5.2       0.0
17 H  pz              0.0       0.0       0.0       0.0       0.2       0.1
18 H  s               0.0       2.5       0.1       5.7       5.1       1.9
18 H  px              0.0       0.0       0.0       0.0       0.1       0.1
19 H  s               0.0       0.1       3.0       1.1      12.1       8.0
19 H  px              0.0       0.0       0.0       0.1       0.2       0.1

                     24        25        26        27        28        29   
                  -0.35383  -0.34114  -0.31519  -0.30934  -0.30663  -0.30380
                   2.00000   2.00000   2.00000   2.00000   2.00000   2.00000
                  --------  --------  --------  --------  --------  --------
 0 C  s               0.0       0.1       0.0       0.5       0.1       0.1
 0 C  pz              2.2       2.9       0.2       7.1       9.7       2.2
 0 C  px              7.3       0.4      13.6       1.3       0.2       3.7
 0 C  py              4.3       4.3       0.2      13.8       5.4       0.2
 0 C  dxz             0.1       0.0       0.4       0.1       0.0       0.2
 0 C  dyz             0.0       0.0       0.0       0.0       0.5       0.0
 0 C  dx2y2           0.0       0.1       0.0       0.2       0.2       0.1
 0 C  dxy             0.0       0.0       0.1       0.0       0.0       0.0
 1 C  s               0.1       0.1       0.2       0.0       0.1       0.1
 1 C  pz              0.7       2.3       0.1       3.3      16.6       2.9
 1 C  px              0.2       0.5      12.3       1.0       0.8       7.6
 1 C  py              0.7       4.9       0.3      14.7       7.8       0.0
 1 C  dxz             0.0       0.0       0.4       0.1       0.0       0.3
 1 C  dyz             0.0       0.0       0.0       0.2       0.7       0.0
 1 C  dx2y2           0.0       0.1       0.0       0.3       0.2       0.1
 1 C  dxy             0.1       0.0       0.1       0.0       0.0       0.0
 2 C  s               0.1       0.1       0.8       0.2       0.2       0.0
 2 C  pz              4.9       0.3       2.8       2.7       3.9       0.2
 2 C  px              0.6       1.3       5.2       1.3       3.6       4.6
 2 C  py              0.9       0.0       0.1      13.7       0.7       0.1
 2 C  dxz             0.1       0.0       0.1       0.0       0.0       0.2
 2 C  dyz             0.0       0.0       0.0       0.5       0.1       0.0
 2 C  dx2y2           0.1       0.0       0.0       0.2       0.1       0.1
 2 C  dxy             0.0       0.0       0.0       0.0       0.1       0.0
 3 C  s               0.1       0.0       0.1       0.0       0.0       0.7
 3 C  pz              1.2       2.1       0.2       0.2       0.1       2.9
 3 C  px              3.6       0.0       1.5       0.0       0.4       0.5
 3 C  py              4.8       3.0       0.5       1.2       0.0       0.5
 3 C  dz2             0.0       0.2       0.1       0.1       0.0       0.1
 3 C  dxz             0.0       0.2       0.0       0.0       0.0       0.1
 3 C  dyz             0.1       0.0       0.0       0.2       0.0       0.1
 3 C  dx2y2           0.1       0.0       0.2       0.0       0.0       0.1
 4 O  s               0.8       0.2       0.2       0.0       0.0       0.6
 4 O  pz              9.9       0.1       2.0       1.7       0.0       5.1
 4 O  px              2.1       0.6       0.6       0.0       0.2       0.7
 4 O  py              1.4      10.4       0.0       7.1       0.2       0.6
 4 O  dz2             0.1       0.1       0.0       0.0       0.0       0.2
 4 O  dxz             0.2       0.0       0.0       0.0       0.1       0.1
 4 O  dyz             0.2       0.1       0.1       0.0       0.0       0.1
 4 O  dx2y2           0.0       0.1       0.0       0.1       0.0       0.2
 5 O  s               0.0       0.3       0.3       0.0       0.4       2.3
 5 O  pz              4.1       5.2       4.1       0.3       1.6      18.0
 5 O  px              0.5       0.7       0.4       0.0       0.2       1.2
 5 O  py              0.4       0.2       2.2       1.1       0.2       4.7
 5 O  dz2             0.0       0.0       0.3       0.0       0.0       0.9
 5 O  dxz             0.0       0.2       0.2       0.1       0.0       0.0
 5 O  dyz             0.0       0.0       0.1       0.1       0.0       0.2
 5 O  dx2y2           0.1       0.0       0.0       0.0       0.1       0.7
 5 O  dxy             0.8       1.1       0.0       0.0       0.0       0.0
 6 C  s               0.1       0.2       0.1       0.0       0.0       0.3
 6 C  pz              0.7       1.2       6.7       0.8       1.4       7.2
 6 C  px              3.9       2.2       1.9       0.2       0.0       0.3
 6 C  py              7.5       7.1       0.7       0.8       0.1       1.1
 6 C  dz2             0.0       0.0       0.4       0.0       0.1       0.4
 6 C  dyz             0.0       0.1       0.1       0.0       0.0       0.1
 6 C  dx2y2           0.1       0.2       0.0       0.0       0.0       0.0
 6 C  dxy             0.1       0.2       0.0       0.1       0.0       0.0
 7 C  s               0.2       0.1       0.2       0.0       0.0       0.2
 7 C  pz              3.3       4.2       3.4       0.4       0.5       2.0
 7 C  px              7.1       4.8       2.8       0.0       0.0       0.2
 7 C  py              5.7       9.9       0.7       0.6       0.1       0.9
 7 C  dz2             0.1       0.0       0.1       0.0       0.0       0.1
 7 C  dyz             0.0       0.1       0.1       0.0       0.0       0.1
 7 C  dxy             0.0       0.2       0.0       0.0       0.0       0.0
 8 H  s               1.9       0.2       5.8       4.7       1.9       0.7
 8 H  py              0.0       0.0       0.0       0.1       0.1       0.0
 9 H  s               2.2       0.0       0.1       0.0      11.4       0.4
 9 H  px              0.1       0.0       0.1       0.0       0.0       0.0
 9 H  py              0.0       0.0       0.0       0.1       0.0       0.0
10 H  s               3.8       1.8       6.5       0.2       2.0       4.4
10 H  py              0.0       0.0       0.0       0.1       0.1       0.0
11 H  s               0.0       0.1       0.3       1.1      17.7       0.6
11 H  pz              0.0       0.0       0.0       0.1       0.1       0.0
11 H  px              0.0       0.0       0.1       0.0       0.0       0.1
12 H  s               0.2       1.5       6.4       0.2       2.3       7.9
12 H  px              0.0       0.0       0.0       0.0       0.1       0.0
12 H  py              0.0       0.0       0.0       0.1       0.1       0.0
13 H  s               0.0       0.0       0.0      10.9       0.0       0.5
14 H  s               1.9       0.0       0.7       2.3       4.5       0.0
14 H  pz              0.0       0.0       0.0       0.1       0.0       0.0
15 H  s               0.2       7.9       1.1       1.3       0.1       0.0
16 H  s               1.4       0.4       6.3       0.4       1.2       6.1
17 H  s               0.1      11.5       1.2       0.5       0.1       0.1
18 H  s               3.5       1.8       3.2       0.3       0.5       1.9
18 H  py              0.0       0.1       0.0       0.0       0.0       0.0
19 H  s               1.1       1.0       0.2       0.0       0.0       0.2

                     30        31        32        33        34        35   
                  -0.27024  -0.23674  -0.01344   0.07606   0.09230   0.10628
                   2.00000   2.00000   0.00000   0.00000   0.00000   0.00000
                  --------  --------  --------  --------  --------  --------
 0 C  s               0.0       0.0       0.1       7.9       2.4       3.7
 0 C  pz              0.0       0.0       0.3       0.6       0.1       0.4
 0 C  px              0.1       0.0       0.2       1.1       0.1       1.5
 0 C  py              0.1       0.1       0.1       0.6       0.2       2.1
 0 C  dyz             0.0       0.0       0.0       0.0       0.0       0.2
 0 C  dx2y2           0.0       0.0       0.0       0.3       0.0       0.2
 1 C  s               0.0       0.1       0.9       3.2       2.5       8.2
 1 C  pz              0.0       0.0       0.5       0.2       0.5       0.6
 1 C  px              0.0       0.2       0.7       0.8       1.9       3.1
 1 C  py              0.0       0.2       0.2       0.1       0.2       0.3
 1 C  dx2y2           0.0       0.0       0.0       0.0       0.2       0.0
 2 C  s               0.0       0.6       0.2      10.1       0.7       2.2
 2 C  pz              0.0       4.3       0.0       1.1       1.4       1.9
 2 C  px              0.0       2.9       0.2       1.4       0.6       2.0
 2 C  py              0.0       0.1       0.1       0.2       0.5       0.4
 2 C  dxz             0.0       0.0       0.2       0.0       0.1       0.1
 2 C  dyz             0.0       0.0       0.8       0.0       0.1       0.0
 2 C  dx2y2           0.0       0.0       0.2       0.1       0.5       0.4
 2 C  dxy             0.0       0.0       0.7       0.0       0.0       0.0
 3 C  s               0.0       0.3       0.1      12.1       0.2       0.1
 3 C  pz              0.0       0.5       6.2       0.9       1.3       0.1
[...]
 3 C  pz              0.4       0.5       1.3       6.4       0.0       0.0
 3 C  px              0.5       0.7       5.2       0.0       0.0       0.0
 3 C  py              0.1       0.2       0.9       1.3       0.0       0.0
 3 C  dz2             0.7       0.2       0.8       3.7       0.0       0.0
 3 C  dxz            10.4       0.8       6.5       0.0       0.0       0.0
 3 C  dyz             0.6       0.0       0.5       2.8       0.0       0.0
 3 C  dx2y2           2.8       0.3       1.8       0.1       0.0       0.0
 3 C  dxy             0.7       0.4       3.1       0.0       0.0       0.0
 4 O  s               2.5       1.0       0.3      19.1       0.0       0.0
 4 O  pz              0.2       0.6       0.3      17.9       0.0       0.0
 4 O  px             10.8       0.1       0.2       0.0       0.0       0.0
 4 O  py              0.5       0.2       0.0       3.9       0.0       0.0
 4 O  dz2             1.5       1.0       0.1      18.6       0.0       0.0
 4 O  dxz            15.5       0.2       1.7       0.0       0.0       0.0
 4 O  dyz             0.2       0.8       0.0      14.1       0.0       0.0
 4 O  dx2y2           0.8       0.1       0.3       0.8       0.0       0.0
 4 O  dxy             6.2       0.0       0.1       0.0       0.0       0.0
 5 O  s               3.8      24.5       6.6       1.0       0.0       0.0
 5 O  pz              6.3       6.9       0.9       0.3       0.0       0.0
 5 O  px              0.2       7.4      27.9       0.5       0.0       0.0
 5 O  py              1.1       0.4       1.8       0.0       0.0       0.0
 5 O  dz2             5.5       1.6       1.0       0.1       0.0       0.0
 5 O  dxz             0.6       5.1      18.3       0.8       0.0       0.0
 5 O  dyz             3.1       0.6       1.2       0.0       0.0       0.0
 5 O  dx2y2           0.9      18.0       2.5       1.1       0.0       0.0
 5 O  dxy             0.2       0.5       6.7       0.0       0.0       0.0
 6 C  s               0.0       1.5       0.4       0.1      10.4       2.9
 6 C  pz              0.1       1.3       0.8       0.1       0.0       0.0
 6 C  px              0.1       6.7       1.1       0.3       0.0       0.0
 6 C  py              0.0       0.2       0.0       0.0       0.0       0.0
 6 C  dz2             1.5       0.2       0.4       0.0       0.0       0.0
 6 C  dxz             0.6       7.4       1.4       0.4       0.0       0.0
 6 C  dyz             0.2       0.2       0.0       0.0       0.0       0.0
 6 C  dx2y2           0.1       5.5       0.9       0.2       0.0       0.0
 7 C  s               0.1       0.0       0.0       0.0      81.4       8.6
 7 C  pz              0.2       0.0       0.0       0.0       0.0       0.0
 7 C  px              0.3       0.1       0.0       0.0       0.0       0.0
 7 C  dz2             0.8       0.0       0.0       0.0       0.0       0.0
 7 C  dxz             0.1       0.2       0.0       0.0       0.0       0.0
 7 C  dyz             0.2       0.0       0.0       0.0       0.0       0.0
 7 C  dx2y2           0.4       0.4       0.0       0.0       0.0       0.0
 8 H  s               0.3       0.0       0.0       0.0       0.0       0.0
 8 H  pz              0.3       0.0       0.0       0.0       0.0       0.0
 8 H  px              0.3       0.0       0.0       0.0       0.0       0.0
10 H  s               0.3       0.0       0.0       0.0       0.0       0.0
10 H  pz              0.4       0.0       0.0       0.0       0.0       0.0
10 H  px              0.4       0.0       0.0       0.0       0.0       0.0
11 H  s               0.3       0.0       0.0       0.0       0.0       0.0
11 H  pz              0.2       0.0       0.0       0.0       0.0       0.0
11 H  py              0.5       0.0       0.0       0.0       0.0       0.0
14 H  s               0.4       0.0       0.1       0.0       0.0       0.0
14 H  pz              0.4       0.0       0.0       0.0       0.0       0.0
14 H  px              0.2       0.0       0.1       0.0       0.0       0.0
14 H  py              0.5       0.0       0.0       0.0       0.0       0.0
15 H  s               0.1       0.7       0.0       0.0       0.0       0.0
15 H  pz              0.0       0.8       0.0       0.0       0.0       0.0
15 H  py              0.2       0.8       0.0       0.0       0.0       0.0
16 H  s               0.1       0.2       0.2       0.0       0.0       0.0
16 H  pz              0.1       0.2       0.2       0.0       0.0       0.0
16 H  px              1.7       0.3       0.2       0.0       0.0       0.0
17 H  s               0.3       0.0       0.0       0.0       0.0       0.0
17 H  pz              0.1       0.0       0.0       0.0       0.0       0.0
17 H  px              0.2       0.0       0.0       0.0       0.0       0.0
17 H  py              0.3       0.0       0.0       0.0       0.0       0.0
18 H  s               0.2       0.0       0.0       0.0       0.0       0.0
18 H  pz              0.5       0.0       0.0       0.0       0.0       0.0
19 H  px              0.1       0.2       0.0       0.0       0.0       0.0

                    216       217       218       219       220       221   
                  22.00519  22.04076  22.08339  22.27769  43.69541  43.75210
                   0.00000   0.00000   0.00000   0.00000   0.00000   0.00000
                  --------  --------  --------  --------  --------  --------
 0 C  s              14.2       0.7       2.7       0.0       0.0       0.0
 1 C  s               0.2      98.1       0.3       0.4       0.0       0.0
 2 C  s              18.0       0.2      68.0       0.3       0.0       0.0
 3 C  s               0.0       0.4       0.3      98.3       0.0       0.0
 4 O  s               0.0       0.0       0.0       0.2      80.0      19.9
 4 O  pz              0.0       0.0       0.0       0.1       0.0       0.0
 5 O  s               0.0       0.0       0.1       0.1      19.9      80.0
 5 O  px              0.0       0.0       0.0       0.1       0.0       0.0
 6 C  s              57.8       0.2      28.2       0.1       0.0       0.0
 7 C  s               9.5       0.0       0.0       0.0       0.0       0.0



                      *****************************
                      * MAYER POPULATION ANALYSIS *
                      *****************************

  NA   - Mulliken gross atomic population
  ZA   - Total nuclear charge
  QA   - Mulliken gross atomic charge
  VA   - Mayer's total valence
  BVA  - Mayer's bonded valence
  FA   - Mayer's free valence

  ATOM       NA         ZA         QA         VA         BVA        FA
  0 C      6.5014     6.0000    -0.5014     3.8330     3.8330    -0.0000
  1 C      6.1993     6.0000    -0.1993     3.6609     3.6609     0.0000
  2 C      6.3003     6.0000    -0.3003     3.6958     3.6958    -0.0000
  3 C      5.6510     6.0000     0.3490     3.8499     3.8499    -0.0000
  4 O      8.4355     8.0000    -0.4355     1.9414     1.9414     0.0000
  5 O      8.1650     8.0000    -0.1650     1.9025     1.9025     0.0000
  6 C      6.1646     6.0000    -0.1646     3.6271     3.6271    -0.0000
  7 C      6.4431     6.0000    -0.4431     3.8522     3.8522    -0.0000
  8 H      0.8524     1.0000     0.1476     0.9628     0.9628     0.0000
  9 H      0.8582     1.0000     0.1418     0.9640     0.9640     0.0000
 10 H      0.8396     1.0000     0.1604     0.9624     0.9624     0.0000
 11 H      0.8423     1.0000     0.1577     0.9624     0.9624     0.0000
 12 H      0.8588     1.0000     0.1412     0.9602     0.9602     0.0000
 13 H      0.8318     1.0000     0.1682     0.9562     0.9562    -0.0000
 14 H      0.8355     1.0000     0.1645     0.9633     0.9633    -0.0000
 15 H      0.8578     1.0000     0.1422     0.9529     0.9529    -0.0000
 16 H      0.8148     1.0000     0.1852     0.9546     0.9546     0.0000
 17 H      0.8483     1.0000     0.1517     0.9615     0.9615    -0.0000
 18 H      0.8467     1.0000     0.1533     0.9609     0.9609    -0.0000
 19 H      0.8533     1.0000     0.1467     0.9644     0.9644     0.0000

  Mayer bond orders larger than 0.100000
B(  0-C ,  1-C ) :   0.9082 B(  0-C ,  8-H ) :   0.9691 B(  0-C ,  9-H ) :   0.9825 
B(  0-C , 10-H ) :   0.9760 B(  1-C ,  2-C ) :   0.9019 B(  1-C , 11-H ) :   0.9614 
B(  1-C , 12-H ) :   0.9641 B(  2-C ,  3-C ) :   0.9605 B(  2-C , 13-H ) :   0.9257 
B(  2-C , 14-H ) :   0.9932 B(  3-C ,  4-O ) :   1.8412 B(  3-C ,  5-O ) :   1.0720 
B(  5-O ,  6-C ) :   0.7788 B(  6-C ,  7-C ) :   0.9495 B(  6-C , 15-H ) :   0.9495 
B(  6-C , 16-H ) :   0.9669 B(  7-C , 17-H ) :   0.9727 B(  7-C , 18-H ) :   0.9708 
B(  7-C , 19-H ) :   0.9675 

-------
TIMINGS
-------

Total SCF time: 0 days 0 hours 0 min 29 sec 

Total time                  ....      29.444 sec
Sum of individual times     ....      28.387 sec  ( 96.4%)

SCF preparation             ....       0.248 sec  (  0.8%)
Fock matrix formation       ....      26.625 sec  ( 90.4%)
  Startup                   ....       0.080 sec  (  0.3% of F)
  Split-RI-J                ....       5.491 sec  ( 20.6% of F)
  XC integration            ....      20.314 sec  ( 76.3% of F)
    XC Preparation          ....       0.000 sec  (  0.0% of XC)
    Basis function eval.    ....       3.609 sec  ( 17.8% of XC)
    Density eval.           ....       5.897 sec  ( 29.0% of XC)
    XC-Functional eval.     ....       2.636 sec  ( 13.0% of XC)
    XC-Potential eval.      ....       6.545 sec  ( 32.2% of XC)
Diagonalization             ....       0.000 sec  (  0.0%)
Density matrix formation    ....       0.312 sec  (  1.1%)
Total Energy calculation    ....       0.045 sec  (  0.2%)
Population analysis         ....       0.160 sec  (  0.5%)
Orbital Transformation      ....       0.094 sec  (  0.3%)
Orbital Orthonormalization  ....       0.000 sec  (  0.0%)
DIIS solution               ....       0.810 sec  (  2.8%)
  MO trafo                  ....       0.000 sec  (  0.0 % of DIIS)
  Orb grad                  ....       0.000 sec  (  0.0 % of DIIS)
  Energy W gradient         ....       0.000 sec  (  0.0 % of DIIS)
  DIIS error                ....       0.028 sec  (  3.5 % of DIIS)
  DIIS work                 ....       0.693 sec  ( 85.5 % of DIIS)
  Form Q                    ....       0.000 sec  (  0.0 % of DIIS)
  Form QpQm                 ....       0.000 sec  (  0.0 % of DIIS)
  Exp/Cayley                ....       0.000 sec  (  0.0 % of DIIS)
  Orb update                ....       0.000 sec  (  0.0 % of DIIS)
  Wake-sleep                ....       0.039 sec  (  4.9 % of DIIS)
SOSCF solution              ....       0.092 sec  (  0.3%)
  MO trafo                  ....       0.066 sec  ( 71.4 % of SOSCF)
  Orb grad                  ....       0.001 sec  (  0.8 % of SOSCF)
  Rot update                ....       0.000 sec  (  0.1 % of SOSCF)
  Step                      ....       0.025 sec  ( 27.4 % of SOSCF)
Finished LeanSCF after  29.5 sec

Maximum memory used throughout the entire LEANSCF-calculation: 23.8 MB


-------------------------------------------------------------------------------
                          DFT DISPERSION CORRECTION                            
                                                                               
                                DFTD4 V3.4.0                                   
-------------------------------------------------------------------------------
The R2SCAN3C composite method is recognized
Using three-body term ABC
Active option DFTDOPT                   ...         5   

-------------------------   ----------------
Dispersion correction           -0.005006347
-------------------------   ----------------

------------------   -----------------
gCP correction             0.011810212
------------------   -----------------

-------------------------   --------------------
FINAL SINGLE POINT ENERGY      -386.235709503347
-------------------------   --------------------


------------------------------------------------------------------------------
                              ORCA PROPERTY CALCULATIONS
------------------------------------------------------------------------------

GBWName                                 ... sp_gas.gbw
Number of atoms                         ...     20
Number of basis functions               ...    222
Max core memory                         ...   1024 MB

Electric properties:
Dipole moment                           ... YES
Quadrupole moment                       ...  NO
Static polarizability (Dipole/Dipole)   ...  NO
Static polarizability (Dipole/Quad.)    ...  NO
Static polarizability (Quad./Quad.)     ...  NO
Static polarizability (Velocity)        ...  NO

Atomic electric properties:
Dipole moment                           ...  NO
Quadrupole moment                       ...  NO
Static polarizability                   ...  NO

Choice of electric origin               ... Center of mass
Position of electric origin             ...    -0.000008    -0.000017    -0.000005

General magnetic properties:
Magnetizability                         ...  NO

EPR properties:
g-Tensor (aka g-matrix)                 ...  NO
Zero-Field splitting spin-orbit         ...  NO
Zero-field splitting spin-spin          ...  NO
Hyperfine couplings                     ...  NO (   0 nuclei)
Quadrupole couplings                    ...  NO (   0 nuclei)
Contact density                         ...  NO (   0 nuclei)

NMR properties:
Chemical shifts                         ...  NO (   0 nuclei)
Spin-rotation constants                 ...  NO (   0 nuclei)
Spin-spin couplings                     ...  NO (   0 nuclei,    0 pairs)

Choice of magnetic origin               ... GIAO
Position of magnetic origin             ...     0.000000     0.000000     0.000000

Properties with geometric perturbations:
SCF Hessian                             ...  NO
IR spectrum                             ...  NO
VCD spectrum                            ...  NO
X-ray spectroscopy properties:
SCF XES/XAS/RIXS spectra                ...  NO


-------------
DIPOLE MOMENT
-------------

Method             : SCF
Type of density    : Electron Density
Multiplicity       :   1
Irrep              :   0
Energy             :  -386.2425133686708136 Eh
Relativity type    : 
Basis              : AO
                                X                 Y                 Z
Electronic contribution:      1.698222154       4.915839970       0.224826784
Nuclear contribution   :     -1.374230656      -5.291437873      -0.817766637
                        -----------------------------------------
Total Dipole Moment    :      0.323991498      -0.375597903      -0.592939853
                        -----------------------------------------
Magnitude (a.u.)       :      0.773060117
Magnitude (Debye)      :      1.964962659



--------------------
Rotational spectrum 
--------------------
 
Rotational constants in cm-1:             0.132038             0.033704             0.031857 
Rotational constants in MHz :          3958.406024          1010.421920           955.062840 

Dipole components along the rotational axes: 
x,y,z [a.u.] :     0.341475    -0.427191     0.546374 
x,y,z [Debye]:     0.867960    -1.085833     1.388773 

 

Dipole moment calculation done in   0.0 sec 

Maximum memory used throughout the entire PROP-calculation: 13.7 MB

--------------------------------
SUGGESTED CITATIONS FOR THIS RUN
--------------------------------

Below you find a list of papers that are relevant to this ORCA run
We neither can nor want to force you to cite these papers, but we appreciate if you do
You receive ORCA, which is the product of decades of hard work by many enthusiastic individuals, for free
The only thing we kindly ask in return is that you cite our papers,
We deeply appreciate it, if you show your appreciation for ORCA by not just citing the generic ORCA reference.

Please note that relegating all ORCA citations to the supporting information does *not* help us.
SI sections are not indexed - citations you put there will not count into any citation statistics
But we need these citations in order to attract the funding resources that allow us to do what we are doing

Therefore, if you are a happy ORCA user, please consider citing a few of the papers listed below in the main body of your paper

In addition to the list printed below, the program has created the file sp_gas.bibtex that contains the list in bibtex format
You can import this file easily into all common literature databanks and citation aid programs


List of essential papers. We consider these as the minimum necessary citations

  1. Neese,F.
     Software update: the ORCA program system, version 5.0
     WIRES Comput. Molec. Sci., 2022 12(1)e1606
     doi.org/10.1002/wcms.1606
  2. Grimme,S.; Hansen,A.; Ehlert,S.; Mewes,J.
     r2SCAN-3c: A 'Swiss army knife' composite electronic-structure method
     J. Chem. Phys., 2021 154 064103
     doi.org/10.1063/5.0040021

List of papers to cite with high priority. The work reported in these papers was absolutely
necessary for this run to complete.
Our perspective: the developers of density functionals and basis sets usually get cited in chemistry papers
Good! But without the algorithms to do something with them, the functionals or basis sets would not do anything.
Hence, in our opinion, the algorithm design and method developments papers are equally worthy of getting cited

  1. Neese,F.
     An improvement of the resolution of the identity approximation for the formation of the Coulomb matrix
     J. Comp. Chem., 2003 24(14)1740-1747
     doi.org/10.1002/jcc.10318
  2. Neese,F.
     The SHARK Integral Generation and Digestion System
     J. Comp. Chem., 2022  1-16
     doi.org/10.1002/jcc.26942
  3. Lehtola,S.; Steigemann,C.; Oliveira,M.; Marques,M.
     Recent developments in Libxc - A comprehensive library of functionals for density functional theory
     Software X, 2018 7 
     doi.org/10.1016/j.softx.2017.11.002
  4. Caldeweyher,E.; Bannwarth,C.; Grimme,S.
     Extension of the D3 dispersion coefficient model
     J. Chem. Phys., 2017 147 034112-XXXX
     doi.org/10.1063/1.4993215
  5. Caldeweyher,E.; Ehlert,S.; Hansen,A.; Neugebauer,H.; Spicher,S.; Bannwarth,C.; Grimme,S.
     A generally applicable atomic-charge dependent London dispersion correction
     J. Chem. Phys., 2019 150 154122-XXXX
     doi.org/10.1063/1.5090222
  6. Caldeweyher,E.; Mewes,J.; Ehlert,S.; Grimme,S.
     Extension and evaluation of the D4 London-dispersion model for periodic systems
     Phys. Chem. Chem. Phys., 2020 22(16)8499-8512
     doi.org/10.1039/D0CP00502A

List of suggested additional citations. These are papers that are important in the 'surrounding' of 
of this run, or papers that preceded the highly important papers. If you like your results we are grateful for a citation.

  1. Neese,F.
     The ORCA program system
     WIRES Comput. Molec. Sci., 2012 2(1)73-78
     doi.org/10.1002/wcms.81
  2. Neese,F.
     Software update: the ORCA program system, version 4.0
     WIRES Comput. Molec. Sci., 2018 8(1)1-6
     doi.org/10.1002/wcms.1327
  3. Neese,F.; Wennmohs,F.; Becker,U.; Riplinger,C.
     The ORCA quantum chemistry program package
     J. Chem. Phys., 2020 152 Art. No. L224108
     doi.org/10.1063/5.0004608

List of optional additional citations

  1. Neese,F.
     Approximate second-order SCF convergence for spin unrestricted wavefunctions
     Chem. Phys. Lett., 2000 325(1-3)93-98
     doi.org/10.1016/s0009-2614(00)00662-x

Timings for individual modules:

Sum of individual times          ...       31.836 sec (=   0.531 min)
Startup calculation              ...        1.630 sec (=   0.027 min)   5.1 %
SCF iterations                   ...       30.075 sec (=   0.501 min)  94.5 %
Property calculations            ...        0.131 sec (=   0.002 min)   0.4 %
                             ****ORCA TERMINATED NORMALLY****
TOTAL RUN TIME: 0 days 0 hours 0 minutes 33 seconds 186 msec
