
                                 *****************
                                 * O   R   C   A *
                                 *****************

                                            #,                                       
                                            ###                                      
                                            ####                                     
                                            #####                                    
                                            ######                                   
                                           ########,                                 
                                     ,,################,,,,,                         
                               ,,#################################,,                 
                          ,,##########################################,,             
                       ,#########################################, ''#####,          
                    ,#############################################,,   '####,        
                  ,##################################################,,,,####,       
                ,###########''''           ''''###############################       
              ,#####''   ,,,,##########,,,,          '''####'''          '####       
            ,##' ,,,,###########################,,,                        '##       
           ' ,,###''''                  '''############,,,                           
         ,,##''                                '''############,,,,        ,,,,,,###''
      ,#''                                            '''#######################'''  
     '                                                          ''''####''''         
             ,#######,   #######,   ,#######,      ##                                
            ,#'     '#,  ##    ##  ,#'     '#,    #''#        ,####,   ,####,        
            ##       ##  ##   ,#'  ##            #'  '#       #'       #'  '#        
            ##       ##  #######   ##           ,######,      #####,   #    #        
            '#,     ,#'  ##    ##  '#,     ,#' ,#      #,     #,   #   #,  ,#        
             '#######'   ##     ##  '#######'  #'      '#     '####' # '####'        



                #########################################################
                #                        -***-                          #
                #          Department of theory and spectroscopy        #
                #                                                       #
                #                      Frank Neese                      #
                #                                                       #
                #     Directorship, Architecture, Infrastructure        #
                #                    SHARK, DRIVERS                     #
                #        Core code/Algorithms in most modules           #
                #                                                       #
                #        Max Planck Institute fuer Kohlenforschung      #
                #                Kaiser Wilhelm Platz 1                 #
                #                 D-45470 Muelheim/Ruhr                 #
                #                      Germany                          #
                #                                                       #
                #                  All rights reserved                  #
                #                        -***-                          #
                #########################################################


                         Program Version 6.0.0  -   RELEASE  -


 With contributions from (in alphabetic order):
   Daniel Aravena         : Magnetic Suceptibility
   Michael Atanasov       : Ab Initio Ligand Field Theory (pilot matlab implementation)
   Alexander A. Auer      : GIAO ZORA, VPT2 properties, NMR spectrum
   Ute Becker             : All parallelization in ORCA, NUMFREQ, NUMCALC
   Giovanni Bistoni       : ED, misc. LED, open-shell LED, HFLD
   Martin Brehm           : Molecular dynamics
   Dmytro Bykov           : pre 5.0 version of the SCF Hessian
   Marcos Casanova-Páez   : Triplet and SCS-CIS(D). UHF-(DLPNO)-IP/EA/STEOM-CCSD. UHF-CVS-IP/STEOM-CCSD
   Vijay G. Chilkuri      : MRCI spin determinant printing, contributions to CSF-ICE
   Pauline Colinet        : FMM embedding
   Dipayan Datta          : RHF DLPNO-CCSD density
   Achintya Kumar Dutta   : EOM-CC, STEOM-CC
   Nicolas Foglia         : Exact transition moments, OPA infrastructure, MCD improvements
   Dmitry Ganyushin       : Spin-Orbit,Spin-Spin,Magnetic field MRCI
   Miquel Garcia          : C-PCM and meta-GGA Hessian, CCSD/C-PCM, Gaussian charge scheme
   Tiago L. C. Gouveia    : GS-ROHF, GS-ROCIS
   Yang Guo               : DLPNO-NEVPT2, F12-NEVPT2, CIM, IAO-localization
   Andreas Hansen         : Spin unrestricted coupled pair/coupled cluster methods
   Ingolf Harden          : AUTO-CI MPn and infrastructure 
   Benjamin Helmich-Paris : MC-RPA, TRAH-(SCF,CASSCF), AVAS, COSX integrals, SCF dyn. polar.
   Lee Huntington         : MR-EOM, pCC
   Robert Izsak           : Overlap fitted RIJCOSX, COSX-SCS-MP3, EOM
   Riya Kayal             : Wick's Theorem for AUTO-CI, AUTO-CI UHF-CCSDT
   Emily Kempfer          : AUTO-CI, RHF CISDT and CCSDT
   Christian Kollmar      : KDIIS, OOCD, Brueckner-CCSD(T), CCSD density, CASPT2, CASPT2-K, improved NEVPT2
   Axel Koslowski         : Symmetry handling
   Simone Kossmann        : Meta GGA functionals, TD-DFT gradient, OOMP2, (MP2 Hessian; deprecated post 5.0)
   Lucas Lang             : DCDCAS
   Marvin Lechner         : AUTO-CI (C++ implementation), FIC-MRCC
   Spencer Leger          : CASSCF response
   Dagmar Lenk            : GEPOL surface, SMD, ORCA-2-JSON
   Dimitrios Liakos       : Extrapolation schemes; Compound Job, initial MDCI parallelization
   Dimitrios Manganas     : Further ROCIS development; embedding schemes. LFT, Crystal Embedding
   Dimitrios Pantazis     : SARC Basis sets
   Anastasios Papadopoulos: AUTO-CI, single reference methods and gradients
   Taras Petrenko         : pre 6.0 DFT Hessian and TD-DFT gradient, (ASA, deprecated), ECA, 1-Electron XAS/XES, NRVS
   Peter Pinski           : DLPNO-MP2, DLPNO-MP2 Gradient
   Christoph Reimann      : Effective Core Potentials
   Marius Retegan         : Local ZFS, SOC
   Christoph Riplinger    : Optimizer, TS searches, QM/MM, DLPNO-CCSD(T), (RO)-DLPNO pert. Triples
   Michael Roemelt        : Original ROCIS implementation
   Masaaki Saitow         : Open-shell DLPNO-CCSD energy and density
   Barbara Sandhoefer     : DKH picture change effects
   Kantharuban Sivalingam : CASSCF convergence/infrastructure, NEVPT2 and variants, FIC-MRCI
   Bernardo de Souza      : ESD, SOC TD-DFT
   Georgi Stoychev        : AutoAux, RI-MP2 NMR, DLPNO-MP2 response, X2C
   Van Anh Tran           : RI-MP2 g-tensors
   Willem Van den Heuvel  : Paramagnetic NMR
   Zikuan Wang            : NOTCH, Electric field optimization 
   Frank Wennmohs         : Technical directorship and infrastructure
   Hang Xu                : AUTO-CI-Response properties 


 We gratefully acknowledge several colleagues who have allowed us to
 interface, adapt or use parts of their codes:
   Stefan Grimme, W. Hujo, H. Kruse, P. Pracht,  : VdW corrections, initial TS optimization,
                  C. Bannwarth, S. Ehlert,         DFT functionals, gCP, sTDA/sTD-DF
                  L. Wittmann, M. Mueller
   Ed Valeev, F. Pavosevic, A. Kumar             : LibInt (2-el integral package), F12 methods
   Garnet Chan, S. Sharma, J. Yang, R. Olivares  : DMRG
   Ulf Ekstrom                                   : XCFun DFT Library
   Mihaly Kallay                                 : mrcc  (arbitrary order and MRCC methods)
   Frank Weinhold                                : gennbo (NPA and NBO analysis)
   Simon Mueller                                 : openCOSMO-RS
   Christopher J. Cramer and Donald G. Truhlar   : smd solvation model
   Lars Goerigk                                  : TD-DFT with DH, B97 family of functionals
   V. Asgeirsson, H. Jonsson                     : NEB implementation
   FAccTs GmbH                                   : IRC, NEB, NEB-TS, DLPNO-Multilevel, CI-OPT
                                                   MM, QMMM, 2- and 3-layer-ONIOM, Crystal-QMMM,
                                                   LR-CPCM, SF, NACMEs, symmetry and pop. for TD-DFT,
                                                   nearIR, NL-DFT gradient (VV10), updates on ESD,
                                                   ML-optimized integration grids, MBIS, APM,
                                                   GOAT, DOCKER, SOLVATOR, interface openCOSMO-RS
   S Lehtola, MJT Oliveira, MAL Marques          : LibXC Library
   Liviu Ungur et al                             : ANISO software


 Your calculation uses the libint2 library for the computation of 2-el integrals
 For citations please refer to: http://libint.valeyev.net

 Your ORCA version has been built with support for libXC version: 6.2.2
 For citations please refer to: https://libxc.gitlab.io

 This ORCA versions uses:
   CBLAS   interface :  Fast vector & matrix operations
   LAPACKE interface :  Fast linear algebra routines
   SCALAPACK package :  Parallel linear algebra routines
   Shared memory     :  Shared parallel matrices
   BLAS/LAPACK       :  OpenBLAS 0.3.27  USE64BITINT DYNAMIC_ARCH NO_AFFINITY SkylakeX SINGLE_THREADED
        Core in use  :  SkylakeX
   Copyright (c) 2011-2014, The OpenBLAS Project


Your calculation utilizes the geometrical counterpoise correction gCP
Please cite in your paper:
H.Kruse, S. Grimme J.Chem.Phys., 136, (2012), 154101 
   

Your calculation utilizes the atom-pairwise dispersion correction
based on EEQ partial charges (D4)


Your calculation utilizes the SMD solvation module
Please cite in your paper:
A.V. Marenich, C.J. Cramer, D.G. Truhlar J. Phys. Chem. B, 113, (2009), 6378 

================================================================================

----- Orbital basis set information -----
Your calculation utilizes the basis: def2-mTZVPP
   Stefan Grimme, Andreas Hansen, Sebastian Ehlert, and Jan-Michael Mewes 
   J. Chem. Phys. 154, 064103 (2021). DOI: 10.1063/5.0040021

----- AuxJ basis set information -----
Your calculation utilizes the auxiliary basis: def2/J
   F. Weigend, Phys. Chem. Chem. Phys. 8, 1057 (2006).

================================================================================
                                        WARNINGS
                       Please study these warnings very carefully!
================================================================================

Using LibXC functional ID 497 : Re-regularized SCAN exchange by Furness et al
[ 1]  J. W. Furness, A. D. Kaplan, J. Ning, J. P. Perdew, and J. Sun.,  J. Phys. Chem. Lett. 11, 8208-8215 (2020)
[ 2]  J. W. Furness, A. D. Kaplan, J. Ning, J. P. Perdew, and J. Sun.,  J. Phys. Chem. Lett. 11, 9248-9248 (2020)
Using LibXC functional ID 498 : Re-regularized SCAN correlation by Furness et al
[ 1]  J. W. Furness, A. D. Kaplan, J. Ning, J. P. Perdew, and J. Sun.,  J. Phys. Chem. Lett. 11, 8208-8215 (2020)
[ 2]  J. W. Furness, A. D. Kaplan, J. Ning, J. P. Perdew, and J. Sun.,  J. Phys. Chem. Lett. 11, 9248-9248 (2020)
Using LibXC functional ID 497 : Re-regularized SCAN exchange by Furness et al
[ 1]  J. W. Furness, A. D. Kaplan, J. Ning, J. P. Perdew, and J. Sun.,  J. Phys. Chem. Lett. 11, 8208-8215 (2020)
[ 2]  J. W. Furness, A. D. Kaplan, J. Ning, J. P. Perdew, and J. Sun.,  J. Phys. Chem. Lett. 11, 9248-9248 (2020)
Using LibXC functional ID 498 : Re-regularized SCAN correlation by Furness et al
[ 1]  J. W. Furness, A. D. Kaplan, J. Ning, J. P. Perdew, and J. Sun.,  J. Phys. Chem. Lett. 11, 8208-8215 (2020)
[ 2]  J. W. Furness, A. D. Kaplan, J. Ning, J. P. Perdew, and J. Sun.,  J. Phys. Chem. Lett. 11, 9248-9248 (2020)

================================================================================
                                       INPUT FILE
================================================================================
NAME = sp_solv.inp
|  1> ! r2scan-3c def2/J RI DEFGRID2 scfconv6 printgap
|  2> %output
|  3>     printlevel normal
|  4> end
|  5> %cpcm
|  6>     smd true
|  7>     smdsolvent "water"
|  8> end
|  9> * xyz 0 1
| 10> C -2.5190021486 -1.2740729658 0.4760655125
| 11> C -2.5499570248 0.1165845971 -0.1465373228
| 12> C -1.2701063877 0.4134643595 -0.9285941631
| 13> C -0.076310298 0.5697173413 -0.0206197589
| 14> O -0.1011580854 1.0646001745 1.0872199829
| 15> O 1.0265827749 0.1124960322 -0.5992602594
| 16> C 2.2796267919 0.1967254995 0.1019474683
| 17> C 3.0271718337 -1.1155280326 -0.0584617823
| 18> H -3.4437207617 -1.4696783083 1.0121864885
| 19> H -2.3953874318 -2.0348754722 -0.291048921
| 20> H -1.6928347533 -1.3533658052 1.1799286312
| 21> H -2.6593847444 0.8651488674 0.6402659087
| 22> H -3.4030511961 0.1972495668 -0.8205663657
| 23> H -1.3777314362 1.3585269229 -1.46596543
| 24> H -1.0528577018 -0.370780004 -1.6533149117
| 25> H 2.8397961628 1.0246714227 -0.341757991
| 26> H 2.0747966449 0.4231394055 1.1530061172
| 27> H 2.4657875097 -1.9285142697 0.3937795283
| 28> H 3.1706743259 -1.3323215721 -1.1129125478
| 29> H 3.9944822645 -1.0379947169 0.4270225268
| 30> *
| 31> 
| 32>                          ****END OF INPUT****
================================================================================

                       ****************************
                       * Single Point Calculation *
                       ****************************

---------------------------------
CARTESIAN COORDINATES (ANGSTROEM)
---------------------------------
  C     -2.519002   -1.274073    0.476066
  C     -2.549957    0.116585   -0.146537
  C     -1.270106    0.413464   -0.928594
  C     -0.076310    0.569717   -0.020620
  O     -0.101158    1.064600    1.087220
  O      1.026583    0.112496   -0.599260
  C      2.279627    0.196725    0.101947
  C      3.027172   -1.115528   -0.058462
  H     -3.443721   -1.469678    1.012186
  H     -2.395387   -2.034875   -0.291049
  H     -1.692835   -1.353366    1.179929
  H     -2.659385    0.865149    0.640266
  H     -3.403051    0.197250   -0.820566
  H     -1.377731    1.358527   -1.465965
  H     -1.052858   -0.370780   -1.653315
  H      2.839796    1.024671   -0.341758
  H      2.074797    0.423139    1.153006
  H      2.465788   -1.928514    0.393780
  H      3.170674   -1.332322   -1.112913
  H      3.994482   -1.037995    0.427023

----------------------------
CARTESIAN COORDINATES (A.U.)
----------------------------
  NO LB      ZA    FRAG     MASS         X           Y           Z
   0 C     6.0000    0    12.011   -4.760224   -2.407649    0.899633
   1 C     6.0000    0    12.011   -4.818720    0.220313   -0.276915
   2 C     6.0000    0    12.011   -2.400153    0.781334   -1.754789
   3 C     6.0000    0    12.011   -0.144206    1.076610   -0.038966
   4 O     8.0000    0    15.999   -0.191161    2.011803    2.054548
   5 O     8.0000    0    15.999    1.939960    0.212587   -1.132438
   6 C     6.0000    0    12.011    4.307870    0.371757    0.192653
   7 C     6.0000    0    12.011    5.720526   -2.108042   -0.110477
   8 H     1.0000    0     1.008   -6.507689   -2.777290    1.912755
   9 H     1.0000    0     1.008   -4.526626   -3.845357   -0.550003
  10 H     1.0000    0     1.008   -3.198994   -2.557491    2.229742
  11 H     1.0000    0     1.008   -5.025509    1.634894    1.209927
  12 H     1.0000    0     1.008   -6.430835    0.372748   -1.550646
  13 H     1.0000    0     1.008   -2.603535    2.567244   -2.770273
  14 H     1.0000    0     1.008   -1.989613   -0.700673   -3.124312
  15 H     1.0000    0     1.008    5.366437    1.936348   -0.645829
  16 H     1.0000    0     1.008    3.920797    0.799618    2.178866
  17 H     1.0000    0     1.008    4.659663   -3.644364    0.744135
  18 H     1.0000    0     1.008    5.991706   -2.517723   -2.103100
  19 H     1.0000    0     1.008    7.548478   -1.961526    0.806956

--------------------------------
INTERNAL COORDINATES (ANGSTROEM)
--------------------------------
 C      0   0   0     0.000000000000     0.00000000     0.00000000
 C      1   0   0     1.523981939570     0.00000000     0.00000000
 C      2   1   0     1.528976176423   111.66275583     0.00000000
 C      3   2   1     1.507972684364   112.01254735   290.79313326
 O      4   3   2     1.213604270199   125.14773403   324.95763377
 O      4   3   2     1.326743865471   111.08628578   146.00175791
 C      6   4   3     1.438369281196   119.43101565   178.87645868
 C      7   6   4     1.518737650059   109.06910718   136.03338223
 H      1   2   3     1.086642381069   110.39787690   180.94155131
 H      1   2   3     1.087458323817   110.64207802   301.17880892
 H      1   2   3     1.088238581058   110.25185516    61.33241044
 H      2   1   3     1.091504566040   109.47268981   239.66643249
 H      2   1   3     1.090225505625   109.63257356   120.81643950
 H      3   2   1     1.092471637295   109.70034081   172.71115167
 H      3   2   1     1.089704719939   111.55000779    52.62983345
 H      7   6   4     1.093690408868   107.02230906   256.24781870
 H      7   6   4     1.094505792300   108.49563058    13.96147164
 H      8   7   6     1.086563934594   110.37869298   297.18502796
 H      8   7   6     1.086028922681   109.88103693    57.23518773
 H      8   7   6     1.085078752423   109.25644083   177.17102545

---------------------------
INTERNAL COORDINATES (A.U.)
---------------------------
 C      0   0   0     0.000000000000     0.00000000     0.00000000
 C      1   0   0     2.879908498829     0.00000000     0.00000000
 C      2   1   0     2.889346238729   111.66275583     0.00000000
 C      3   2   1     2.849655390881   112.01254735   290.79313326
 O      4   3   2     2.293379705634   125.14773403   324.95763377
 O      4   3   2     2.507182555600   111.08628578   146.00175791
 C      6   4   3     2.718124020905   119.43101565   178.87645868
 C      7   6   4     2.869998227887   109.06910718   136.03338223
 H      1   2   3     2.053456505733   110.39787690   180.94155131
 H      1   2   3     2.054998414067   110.64207802   301.17880892
 H      1   2   3     2.056472886567   110.25185516    61.33241044
 H      2   1   3     2.062644703740   109.47268981   239.66643249
 H      2   1   3     2.060227629847   109.63257356   120.81643950
 H      3   2   1     2.064472203565   109.70034081   172.71115167
 H      3   2   1     2.059243487527   111.55000779    52.62983345
 H      7   6   4     2.066775348058   107.02230906   256.24781870
 H      7   6   4     2.068316199437   108.49563058    13.96147164
 H      8   7   6     2.053308263378   110.37869298   297.18502796
 H      8   7   6     2.052297237385   109.88103693    57.23518773
 H      8   7   6     2.050501675817   109.25644083   177.17102545

---------------------
BASIS SET INFORMATION
---------------------
There are 3 groups of distinct atoms

 Group   1 Type C   : 11s6p1d contracted to 5s3p1d pattern {62111/411/1}
 Group   2 Type O   : 11s6p2d contracted to 5s3p2d pattern {62111/411/11}
 Group   3 Type H   : 4s1p contracted to 2s1p pattern {31/1}

Atom   0C    basis set group =>   1
Atom   1C    basis set group =>   1
Atom   2C    basis set group =>   1
Atom   3C    basis set group =>   1
Atom   4O    basis set group =>   2
Atom   5O    basis set group =>   2
Atom   6C    basis set group =>   1
Atom   7C    basis set group =>   1
Atom   8H    basis set group =>   3
Atom   9H    basis set group =>   3
Atom  10H    basis set group =>   3
Atom  11H    basis set group =>   3
Atom  12H    basis set group =>   3
Atom  13H    basis set group =>   3
Atom  14H    basis set group =>   3
Atom  15H    basis set group =>   3
Atom  16H    basis set group =>   3
Atom  17H    basis set group =>   3
Atom  18H    basis set group =>   3
Atom  19H    basis set group =>   3
---------------------------------
AUXILIARY/J BASIS SET INFORMATION
---------------------------------
There are 3 groups of distinct atoms

 Group   1 Type C   : 12s5p4d2f1g contracted to 6s4p3d1f1g pattern {711111/2111/211/2/1}
 Group   2 Type O   : 12s5p4d2f1g contracted to 6s4p3d1f1g pattern {711111/2111/211/2/1}
 Group   3 Type H   : 5s2p1d contracted to 3s1p1d pattern {311/2/1}

Atom   0C    basis set group =>   1
Atom   1C    basis set group =>   1
Atom   2C    basis set group =>   1
Atom   3C    basis set group =>   1
Atom   4O    basis set group =>   2
Atom   5O    basis set group =>   2
Atom   6C    basis set group =>   1
Atom   7C    basis set group =>   1
Atom   8H    basis set group =>   3
Atom   9H    basis set group =>   3
Atom  10H    basis set group =>   3
Atom  11H    basis set group =>   3
Atom  12H    basis set group =>   3
Atom  13H    basis set group =>   3
Atom  14H    basis set group =>   3
Atom  15H    basis set group =>   3
Atom  16H    basis set group =>   3
Atom  17H    basis set group =>   3
Atom  18H    basis set group =>   3
Atom  19H    basis set group =>   3

Checking for AutoStart:
The File: sp_solv.gbw exists
Trying to determine its content:
     ... Fine, the file contains calculation information
     ... Fine, the calculation information was read
     ... Fine, the file contains a basis set
     ... Fine, the basis set was read
     ... Fine, the file contains a geometry
     ... Fine, the geometry was read
     ... Fine, the file contains a set of orbitals
     ... Fine, the orbitals can be read
     => possible old guess file was deleted
     => GBW file was renamed to GES file
     => GES file is set as startup file
     => Guess is set to MORead
     ... now leaving AutoStart

------------------------------------------------------------------------------
                             ORCA STARTUP CALCULATIONS
                           -- RI-GTO INTEGRALS CHOSEN --
------------------------------------------------------------------------------
------------------------------------------------------------------------------
                   ___                                                        
                  /   \      - P O W E R E D   B Y -                         
                 /     \                                                     
                 |  |  |   _    _      __       _____    __    __             
                 |  |  |  | |  | |    /  \     |  _  \  |  |  /  |          
                  \  \/   | |  | |   /    \    | | | |  |  | /  /          
                 / \  \   | |__| |  /  /\  \   | |_| |  |  |/  /          
                |  |  |   |  __  | /  /__\  \  |    /   |      \           
                |  |  |   | |  | | |   __   |  |    \   |  |\   \          
                \     /   | |  | | |  |  |  |  | |\  \  |  | \   \       
                 \___/    |_|  |_| |__|  |__|  |_| \__\ |__|  \__/        
                                                                              
                      - O R C A' S   B I G   F R I E N D -                    
                                      &                                       
                       - I N T E G R A L  F E E D E R -                       
                                                                              
 v1 FN, 2020, v2 2021, v3 2022-2024                                           
------------------------------------------------------------------------------


----------------------
SHARK INTEGRAL PACKAGE
----------------------

Number of atoms                             ...     20
Number of basis functions                   ...    222
Number of shells                            ...    110
Maximum angular momentum                    ...      2
Integral batch strategy                     ... SHARK/LIBINT Hybrid
RI-J (if used) integral strategy            ... SPLIT-RIJ (Revised 2003 algorithm where possible)
Printlevel                                  ...      1
Contraction scheme used                     ... SEGMENTED contraction
Prescreening option                         ... SCHWARTZ
   Thresh                                   ... 1.000e-10
   Tcut                                     ... 1.000e-11
   Tpresel                                  ... 1.000e-11 
Coulomb Range Separation                    ... NOT USED
Exchange Range Separation                   ... NOT USED
Multipole approximations                    ... NOT USED
Finite Nucleus Model                        ... NOT USED
CABS basis                                  ... NOT available
Auxiliary Coulomb fitting basis             ... AVAILABLE
   # of basis functions in Aux-J            ...    524
   # of shells in Aux-J                     ...    180
   Maximum angular momentum in Aux-J        ...      4
Auxiliary J/K fitting basis                 ... NOT available
Auxiliary Correlation fitting basis         ... NOT available
Auxiliary 'external' fitting basis          ... NOT available

Checking pre-screening integrals            ... done (  0.0 sec) Dimension = 110
Check shell pair data                       ... done (  0.0 sec)
Shell pair information
Shell pair cut-off parameter TPreSel        ...   1.0e-11
Total number of shell pairs                 ...      6105
Shell pairs after pre-screening             ...      5281
Total number of primitive shell pairs       ...     21533
Primitive shell pairs kept                  ...     13131
          la=0 lb=0:   1776 shell pairs
          la=1 lb=0:   1995 shell pairs
          la=1 lb=1:    580 shell pairs
          la=2 lb=0:    564 shell pairs
          la=2 lb=1:    315 shell pairs
          la=2 lb=2:     51 shell pairs

Calculating one electron integrals          ... done (  0.0 sec)
Calculating RI/J V-Matrix + Cholesky decomp.... done (  0.2 sec)
Calculating Nuclear repulsion               ... done (  0.0 sec) ENN=    392.191528350375 Eh

Diagonalization of the overlap matrix:
Smallest eigenvalue                        ... 1.681e-04
Time for diagonalization                   ...    0.009 sec
Threshold for overlap eigenvalues          ... 1.000e-07
Number of eigenvalues below threshold      ... 0
Time for construction of square roots      ...    0.017 sec
Total time needed                          ...    0.043 sec

-------------------
DFT GRID GENERATION
-------------------

General Integration Accuracy     IntAcc      ... 4.388
Radial Grid Type                 RadialGrid  ... OptM3 with GC (2021)
Angular Grid (max. ang.)         AngularGrid ... 4 (Lebedev-302)
Angular grid pruning method      GridPruning ... 4 (adaptive)
Weight generation scheme         WeightScheme... mBecke (2022)
Basis function cutoff            BFCut       ... 1.0000e-10
Integration weight cutoff        WCut        ... 1.0000e-14
Partially contracted basis set               ... off
Rotationally invariant grid construction     ... off
Angular grids for H and He will be reduced by one unit
Diffuse basis detected: some atoms will have their outermost
                        angular grid increased by 1.

Total number of grid points                  ...    87415
Total number of batches                      ...     1377
Average number of points per batch           ...       63
Average number of grid points per atom       ...     4371
Initializing property integral containers    ... done (  0.0 sec)

SHARK setup successfully completed in   1.9 seconds

Maximum memory used throughout the entire STARTUP-calculation: 39.2 MB
-------------------------------------------------------------------------------
                                 ORCA GUESS
                   Start orbitals & Density for SCF / CASSCF
-------------------------------------------------------------------------------

------------
SCF SETTINGS
------------
Hamiltonian:
 Density Functional     Method          .... DFT(GTOs)
  Functional kind                       .... Exchange
  Functional name                       .... Re-regularized SCAN exchange by Furness et al
  Functional family                     .... MGGA
  Functional refs                              
    [ 0] J. W. Furness, A. D. Kaplan, J. Ning, J. P. Perdew, and J. Sun.,  J. Phys. Chem. Lett. 11, 8208-8215 (2020), doi: 10.1021/acs.jpclett.0c02405
    [ 1] J. W. Furness, A. D. Kaplan, J. Ning, J. P. Perdew, and J. Sun.,  J. Phys. Chem. Lett. 11, 9248-9248 (2020), doi: 10.1021/acs.jpclett.0c03077
  Functional external parameters        .... 6
    Parameter  0 _c1        =  6.670000e-01 : c1 parameter        
    Parameter  1 _c2        =  8.000000e-01 : c2 parameter        
    Parameter  2 _d         =  1.240000e+00 : d parameter         
    Parameter  3 _k1        =  6.500000e-02 : k1 parameter        
    Parameter  4 _eta       =  1.000000e-03 : eta parameter       
    Parameter  5 _dp2       =  3.610000e-01 : dp2 parameter       
  Functional kind                       .... Correlation
  Functional name                       .... Re-regularized SCAN correlation by Furness et al
  Functional family                     .... MGGA
  Functional refs                              
    [ 0] J. W. Furness, A. D. Kaplan, J. Ning, J. P. Perdew, and J. Sun.,  J. Phys. Chem. Lett. 11, 8208-8215 (2020), doi: 10.1021/acs.jpclett.0c02405
    [ 1] J. W. Furness, A. D. Kaplan, J. Ning, J. P. Perdew, and J. Sun.,  J. Phys. Chem. Lett. 11, 9248-9248 (2020), doi: 10.1021/acs.jpclett.0c03077
  Functional external parameters        .... 1
    Parameter  0 _eta       =  1.000000e-03 : Regularization parameter
 Gradients option       PostSCFGGA      .... off
 RI-approximation to the Coulomb term is turned on
   Number of AuxJ basis functions       .... 524


General Settings:
 Integral files         IntName         .... sp_solv
 Hartree-Fock type      HFTyp           .... RHF
 Total Charge           Charge          ....    0
 Multiplicity           Mult            ....    1
 Number of Electrons    NEL             ....   64
 Basis Dimension        Dim             ....  222
 Nuclear Repulsion      ENuc            ....    392.1915283504 Eh

Convergence Acceleration:
 AO-DIIS                CNVDIIS         .... on
   Start iteration      DIISMaxIt       ....    12
   Startup error        DIISStart       ....  0.200000
   # of expansion vecs  DIISMaxEq       ....     5
   Bias factor          DIISBfac        ....   1.050
   Max. coefficient     DIISMaxC        ....  10.000
 MO-DIIS                CNVKDIIS        .... off
 Trust-Rad. Augm. Hess. CNVTRAH         .... auto
   Auto Start mean grad. ratio tolernc. ....  1.125000
   Auto Start start iteration           ....     1
   Auto Start num. interpolation iter.  ....    10
   Max. Number of Micro iterations      ....    24
   Max. Number of Macro iterations      .... Maxiter - #DIIS iter
   Number of Davidson start vectors     ....     2
   Converg. threshold    (grad. norm)   ....   3.330e-04
   Grad. Scal. Fac. for Micro threshold ....   0.100
   Minimum threshold for Micro iter.    ....   1.000e-02
   NR start threshold (gradient norm)   ....   1.000e-04
   Initial trust radius                 ....   0.400
   Minimum AH scaling param. (alpha)    ....   1.000
   Maximum AH scaling param. (alpha)    .... 1000.000
   Quad. conv. algorithm                .... NR
   White noise on init. David. guess    .... on
   Maximum white noise                  ....   0.010
   Pseudo random numbers                .... off
   Inactive MOs                         .... canonical
   Orbital update algorithm             .... Taylor
   Preconditioner                       .... Diag
   Full preconditioner red. dimension   ....   250
   COSX micro iterations for RIJONX calc.... off
 SOSCF                  CNVSOSCF        .... on
   Start iteration      SOSCFMaxIt      ....   150
   Startup grad/error   SOSCFStart      ....  0.003300
   Hessian update       SOSCFHessUp     .... L-BFGS
 Level Shifting         CNVShift        .... on
   Level shift para.    LevelShift      ....    0.2500
   Turn off err/grad.   ShiftErr        ....    0.0010
 Zerner damping         CNVZerner       .... off
 Static damping         CNVDamp         .... on
   Fraction old density DampFac         ....    0.7000
   Max. Damping (<1)    DampMax         ....    0.9800
   Min. Damping (>=0)   DampMin         ....    0.0000
   Turn off err/grad.   DampErr         ....    0.1000

SCF Procedure:
 Maximum # iterations   MaxIter         ....   125
 SCF integral mode      SCFMode         .... Direct
   Integral package                     .... SHARK and LIBINT hybrid scheme
 Reset frequency        DirectResetFreq ....    20
 Integral Threshold     Thresh          ....  1.000e-10 Eh
 Primitive CutOff       TCut            ....  1.000e-11 Eh

Convergence Tolerance:
 Convergence Check Mode ConvCheckMode   .... Total+1el-Energy
 Convergence forced     ConvForced      .... 0
 Energy Change          TolE            ....  1.000e-06 Eh
 1-El. energy change                    ....  1.000e-03 Eh
 Orbital Gradient       TolG            ....  3.330e-04
 Orbital Rotation angle TolX            ....  3.330e-04
 DIIS Error             TolErr          ....  1.000e-06

---------------------
INITIAL GUESS: MOREAD
---------------------
Guess MOs are being read from file: sp_solv.ges
Input Geometry matches current geometry (good)
Atom 0: N(Shells)= 9 and 6 - projection required
Input basis set needs projection
NBasis(read)= 136
NBasis(calc)= 222
Basis set overlap was calculated
Using GuessMode=FMatrix for the initial guess
C*T matrix was formed
Effective Fockian was calculated
Effective Fockian was diagonalized
Initial density was built
                      ------------------
                      INITIAL GUESS DONE (   0.1 sec)
                      ------------------
             **** ENERGY FILE WAS UPDATED (sp_solv.en.tmp) ****
Finished Guess after   0.5 sec
Maximum memory used throughout the entire GUESS-calculation: 15.0 MB

-------------------------------------------------------------------------------------------
                                      ORCA LEAN-SCF
                              memory conserving SCF solver
-------------------------------------------------------------------------------------------

--------------------
CPCM SOLVATION MODEL
--------------------
CPCM parameters:
  Epsilon                                         ...      78.3550
  Refrac                                          ...       1.3328
  Rsolv                                           ...       1.3000
  Surface type                                    ... GAUSSIAN VDW
  Discretization scheme                           ... Constant charge density
    Threshold for H atoms                         ...       5.0000 (charges/Ang^2)
    Threshold for non-H atoms                     ...       5.0000 (charges/Ang^2)
  Epsilon function type                           ...         CPCM
Solvent:                                          ... WATER
SMD-CDS solvent descriptors:
  Soln                                            ...       1.3328
  Soln25                                          ...       1.3323
  Sola                                            ...       0.0000
  Solb                                            ...       0.0000
  Solg                                            ...       0.0000
  Solc                                            ...       0.0000
  Solh                                            ...       0.0000
Radii:
  Scheme                                          ... Element-dependent radii
  Radius for C  used is    3.4960 Bohr (=   1.8500 Ang.)
  Radius for O  used is    2.8724 Bohr (=   1.5200 Ang.)
  Radius for H  used is    2.2677 Bohr (=   1.2000 Ang.)
Calculating surface                               ...        done! (  0.0s)
Cavity surface points                             ...         1508
Cavity Volume                                     ...     882.5567
Cavity Surface-area                               ...     589.6188
Calculating surface distance matrix               ...        done! (  0.0s)
Performing Cholesky decomposition & store         ...        done! (  0.1s)
Overall time for CPCM initialization              ...                 0.1s

----------------------------------------D-I-I-S--------------------------------------------
Iteration    Energy (Eh)           Delta-E    RMSDP     MaxDP     DIISErr   Damp  Time(sec)
-------------------------------------------------------------------------------------------
               ***  Starting incremental Fock matrix formation  ***
    1    -386.0559867167488051     0.00e+00  3.71e-03  1.26e-01  6.27e-01  0.700   3.7
    2    -386.1150622111192092    -5.91e-02  3.01e-03  9.30e-02  4.41e-01  0.700   3.6
    3    -386.1568423279982767    -4.18e-02  2.22e-03  6.57e-02  3.10e-01  0.700   3.6
    4    -386.1862016005439386    -2.94e-02  1.59e-03  4.63e-02  2.17e-01  0.700   3.6
                               ***Turning on AO-DIIS***
    5    -386.2068140544255925    -2.06e-02  1.16e-03  3.32e-02  1.52e-01  0.700   3.5
    6    -386.2212641804207465    -1.45e-02  8.22e-04  2.35e-02  1.06e-01  0.700   3.3
    7    -386.2314073809160959    -1.01e-02  5.80e-04  1.66e-02  7.42e-02  0.700   3.3
    8    -386.2385160217746147    -7.11e-03  1.36e-03  3.86e-02  5.21e-02  0.000   3.2
                              *** Initializing SOSCF ***
---------------------------------------S-O-S-C-F--------------------------------------
Iteration    Energy (Eh)           Delta-E    RMSDP     MaxDP     MaxGrad    Time(sec)
--------------------------------------------------------------------------------------
    9    -386.2551348782431546    -1.66e-02  1.26e-05  5.42e-04  1.92e-04     3.3
               *** Restarting incremental Fock matrix formation ***
   10    -386.2551350339018086    -1.56e-07  6.55e-06  1.86e-04  5.67e-05     3.8
                  *** Gradient check signals convergence ***

               *****************************************************
               *                     SUCCESS                       *
               *           SCF CONVERGED AFTER  10 CYCLES          *
               *****************************************************


SMD CDS free energy correction energy :                 5.01227     Kcal/mol
Total Energy after SMD CDS correction =              -386.247147480 Eh
             **** ENERGY FILE WAS UPDATED (sp_solv.en.tmp) ****

----------------
TOTAL SCF ENERGY
----------------

Total Energy       :       -386.24714747967130 Eh          -10510.31922 eV

Components:
Nuclear Repulsion  :        392.19152835037534 Eh           10672.07404 eV
Electronic Energy  :       -778.43131358760922 Eh          -21182.19292 eV
One Electron Energy:      -1301.77285030388930 Eh          -35423.04013 eV
Two Electron Energy:        523.34153671628007 Eh           14240.84720 eV
CPCM Dielectric    :         -0.01534979666798 Eh              -0.41769 eV
SMD CDS (Gcds)     :          0.00798755423052 Eh               0.21735 eV

Virial components:
Potential Energy   :       -770.88698237773383 Eh          -20976.90124 eV
Kinetic Energy     :        384.63983489806253 Eh           10466.58202 eV
Virial Ratio       :          2.00417874706616

DFT components:
N(Alpha)           :       31.999996569971 electrons
N(Beta)            :       31.999996569971 electrons
N(Total)           :       63.999993139942 electrons
E(X)               :      -52.084016835440 Eh       
E(C)               :       -2.038009019814 Eh       
E(XC)              :      -54.122025855254 Eh       

CPCM Solvation Model Properties:
Surface-charge          :         -0.04745253503578
Corrected charge        :          0.00000000000000
Outlying charge corr.   :          0.00016939354272 Eh               0.00461 eV
Free-energy (cav+disp)  :          0.00798755423052 Eh               0.21735 eV

---------------
SCF CONVERGENCE
---------------

  Last Energy change         ...    1.5566e-07  Tolerance :   1.0000e-06
  Last MAX-Density change    ...    1.8621e-04  Tolerance :   1.0000e-05
  Last RMS-Density change    ...    6.5523e-06  Tolerance :   1.0000e-06
  Last DIIS Error            ...    1.9229e-04  Tolerance :   1.0000e-06
  Last Orbital Gradient      ...    5.6750e-05  Tolerance :   3.3300e-04
  Last Orbital Rotation      ...    1.2905e-04  Tolerance :   3.3300e-04


----------------
ORBITAL ENERGIES
----------------

  NO   OCC          E(Eh)            E(eV) 
   0   2.0000     -19.001825      -517.0660 
   1   2.0000     -18.942791      -515.4595 
   2   2.0000     -10.162449      -276.5343 
   3   2.0000     -10.082051      -274.3465 
   4   2.0000     -10.035210      -273.0720 
   5   2.0000     -10.025583      -272.8100 
   6   2.0000     -10.018434      -272.6155 
   7   2.0000     -10.010498      -272.3995 
   8   2.0000      -1.077660       -29.3246 
   9   2.0000      -0.988574       -26.9005 
  10   2.0000      -0.767902       -20.8957 
  11   2.0000      -0.734971       -19.9996 
  12   2.0000      -0.672146       -18.2900 
  13   2.0000      -0.613415       -16.6919 
  14   2.0000      -0.558091       -15.1864 
  15   2.0000      -0.524360       -14.2686 
  16   2.0000      -0.472984       -12.8705 
  17   2.0000      -0.460881       -12.5412 
  18   2.0000      -0.446574       -12.1519 
  19   2.0000      -0.422344       -11.4926 
  20   2.0000      -0.400750       -10.9050 
  21   2.0000      -0.382990       -10.4217 
  22   2.0000      -0.366786        -9.9808 
  23   2.0000      -0.361601        -9.8397 
  24   2.0000      -0.352939        -9.6040 
  25   2.0000      -0.336260        -9.1501 
  26   2.0000      -0.310173        -8.4402 
  27   2.0000      -0.305667        -8.3176 
  28   2.0000      -0.302770        -8.2388 
  29   2.0000      -0.301893        -8.2149 
  30   2.0000      -0.276181        -7.5153 
  31   2.0000      -0.252214        -6.8631 
  32   0.0000      -0.021103        -0.5742 
  33   0.0000       0.078320         2.1312 
  34   0.0000       0.099504         2.7076 
  35   0.0000       0.117302         3.1920 
  36   0.0000       0.132147         3.5959 
  37   0.0000       0.135302         3.6818 
  38   0.0000       0.139461         3.7949 
  39   0.0000       0.150234         4.0881 
  40   0.0000       0.158409         4.3105 
  41   0.0000       0.159364         4.3365 
  42   0.0000       0.175515         4.7760 
*Only the first 10 virtual orbitals were printed.

                    ********************************
                    * MULLIKEN POPULATION ANALYSIS *
                    ********************************

-----------------------
MULLIKEN ATOMIC CHARGES
-----------------------
   0 C :   -0.529206
   1 C :   -0.219162
   2 C :   -0.310232
   3 C :    0.385419
   4 O :   -0.518163
   5 O :   -0.185593
   6 C :   -0.153943
   7 C :   -0.485865
   8 H :    0.160054
   9 H :    0.158701
  10 H :    0.160553
  11 H :    0.149934
  12 H :    0.160548
  13 H :    0.200293
  14 H :    0.180986
  15 H :    0.168741
  16 H :    0.179720
  17 H :    0.163972
  18 H :    0.165072
  19 H :    0.168172
Sum of atomic charges:    0.0000000

--------------------------------
MULLIKEN REDUCED ORBITAL CHARGES
--------------------------------
  0 C s       :     3.349043  s :     3.349043
      pz      :     1.076723  p :     3.153154
      px      :     1.110562
      py      :     0.965869
      dz2     :     0.001686  d :     0.027009
      dxz     :     0.007118
      dyz     :     0.007912
      dx2y2   :     0.007510
      dxy     :     0.002783

  1 C s       :     3.184803  s :     3.184803
      pz      :     1.039316  p :     2.997680
      px      :     0.992229
      py      :     0.966135
      dz2     :     0.003239  d :     0.036680
      dxz     :     0.009252
      dyz     :     0.009660
      dx2y2   :     0.009815
      dxy     :     0.004714

  2 C s       :     3.226333  s :     3.226333
      pz      :     0.978437  p :     3.049046
      px      :     0.937904
      py      :     1.132705
      dz2     :     0.003011  d :     0.034853
      dxz     :     0.011044
      dyz     :     0.007758
      dx2y2   :     0.009023
      dxy     :     0.004016

  3 C s       :     3.161216  s :     3.161216
      pz      :     0.750952  p :     2.328147
      px      :     0.845368
      py      :     0.731827
      dz2     :     0.027368  d :     0.125218
      dxz     :     0.044806
      dyz     :     0.019756
      dx2y2   :     0.014935
      dxy     :     0.018353

  4 O s       :     3.834861  s :     3.834861
      pz      :     1.354834  p :     4.659352
      px      :     1.822667
      py      :     1.481851
      dz2     :     0.007718  d :     0.023950
      dxz     :     0.001952
      dyz     :     0.008723
      dx2y2   :     0.003153
      dxy     :     0.002404

  5 O s       :     3.700878  s :     3.700878
      pz      :     1.649478  p :     4.450176
      px      :     1.097105
      py      :     1.703593
      dz2     :     0.005916  d :     0.034539
      dxz     :     0.004870
      dyz     :     0.006212
      dx2y2   :     0.002053
      dxy     :     0.015488

  6 C s       :     3.288201  s :     3.288201
      pz      :     1.029868  p :     2.812911
      px      :     0.773314
      py      :     1.009728
      dz2     :     0.009942  d :     0.052832
      dxz     :     0.011660
      dyz     :     0.006112
      dx2y2   :     0.011937
      dxy     :     0.013180

  7 C s       :     3.333704  s :     3.333704
      pz      :     1.101742  p :     3.126535
      px      :     1.062931
      py      :     0.961862
      dz2     :     0.006229  d :     0.025626
      dxz     :     0.003721
      dyz     :     0.004132
      dx2y2   :     0.005168
      dxy     :     0.006376

  8 H s       :     0.821591  s :     0.821591
      pz      :     0.005519  p :     0.018355
      px      :     0.008967
      py      :     0.003869

  9 H s       :     0.823042  s :     0.823042
      pz      :     0.007199  p :     0.018257
      px      :     0.003779
      py      :     0.007279

 10 H s       :     0.821178  s :     0.821178
      pz      :     0.006737  p :     0.018269
      px      :     0.007882
      py      :     0.003650

 11 H s       :     0.832025  s :     0.832025
      pz      :     0.007527  p :     0.018041
      px      :     0.003480
      py      :     0.007034

 12 H s       :     0.821473  s :     0.821473
      pz      :     0.006266  p :     0.017979
      px      :     0.008201
      py      :     0.003512

 13 H s       :     0.781424  s :     0.781424
      pz      :     0.005518  p :     0.018283
      px      :     0.003580
      py      :     0.009186

 14 H s       :     0.801073  s :     0.801073
      pz      :     0.006959  p :     0.017940
      px      :     0.003448
      py      :     0.007533

 15 H s       :     0.813761  s :     0.813761
      pz      :     0.004324  p :     0.017497
      px      :     0.004914
      py      :     0.008259

 16 H s       :     0.802033  s :     0.802033
      pz      :     0.011375  p :     0.018247
      px      :     0.003006
      py      :     0.003865

 17 H s       :     0.817754  s :     0.817754
      pz      :     0.004890  p :     0.018274
      px      :     0.005457
      py      :     0.007926

 18 H s       :     0.816601  s :     0.816601
      pz      :     0.010717  p :     0.018326
      px      :     0.003736
      py      :     0.003874

 19 H s       :     0.813330  s :     0.813330
      pz      :     0.005201  p :     0.018498
      px      :     0.009805
      py      :     0.003492


------------------------
MULLIKEN OVERLAP CHARGES
------------------------
B(  0-C ,  1-C ) :   0.4637 B(  0-C ,  2-C ) :  -0.2287 B(  0-C ,  3-C ) :   0.0535 
B(  0-C ,  8-H ) :   0.7936 B(  0-C ,  9-H ) :   0.8489 B(  0-C , 10-H ) :   0.8484 
B(  0-C , 11-H ) :  -0.0579 B(  1-C ,  2-C ) :   0.3742 B(  1-C ,  3-C ) :  -0.1021 
B(  1-C ,  8-H ) :  -0.0724 B(  1-C ,  9-H ) :  -0.0938 B(  1-C , 10-H ) :  -0.0863 
B(  1-C , 11-H ) :   0.8366 B(  1-C , 12-H ) :   0.8234 B(  1-C , 13-H ) :  -0.0570 
B(  1-C , 14-H ) :  -0.0848 B(  2-C ,  3-C ) :   0.3574 B(  2-C ,  4-O ) :  -0.1753 
B(  2-C ,  5-O ) :  -0.1068 B(  2-C , 10-H ) :  -0.0504 B(  2-C , 11-H ) :  -0.0619 
B(  2-C , 12-H ) :  -0.1001 B(  2-C , 13-H ) :   0.7453 B(  2-C , 14-H ) :   0.8786 
B(  3-C ,  4-O ) :   0.9607 B(  3-C ,  5-O ) :   0.4370 B(  3-C ,  6-C ) :  -0.2259 
B(  3-C , 14-H ) :  -0.1290 B(  3-C , 16-H ) :  -0.0525 B(  4-O ,  5-O ) :  -0.2048 
B(  5-O ,  6-C ) :   0.2511 B(  5-O ,  7-C ) :  -0.0699 B(  5-O , 15-H ) :  -0.0750 
B(  5-O , 16-H ) :  -0.0689 B(  6-C ,  7-C ) :   0.4878 B(  6-C , 15-H ) :   0.7666 
B(  6-C , 16-H ) :   0.8607 B(  6-C , 17-H ) :  -0.0805 B(  6-C , 18-H ) :  -0.0500 
B(  6-C , 19-H ) :  -0.0739 B(  7-C , 16-H ) :  -0.0569 B(  7-C , 17-H ) :   0.8346 
B(  7-C , 18-H ) :   0.8222 B(  7-C , 19-H ) :   0.8176 B( 15-H , 16-H ) :  -0.0512 



                     *******************************
                     * LOEWDIN POPULATION ANALYSIS *
                     *******************************

----------------------
LOEWDIN ATOMIC CHARGES
----------------------
   0 C :   -0.424207
   1 C :   -0.298100
   2 C :   -0.229461
   3 C :    0.370685
   4 O :   -0.505736
   5 O :   -0.599661
   6 C :    0.035648
   7 C :   -0.390619
   8 H :    0.155528
   9 H :    0.154962
  10 H :    0.156102
  11 H :    0.164393
  12 H :    0.159929
  13 H :    0.195164
  14 H :    0.186768
  15 H :    0.184897
  16 H :    0.193396
  17 H :    0.161071
  18 H :    0.161676
  19 H :    0.167567

-------------------------------
LOEWDIN REDUCED ORBITAL CHARGES
-------------------------------
  0 C s       :     2.971538  s :     2.971538
      pz      :     1.145623  p :     3.389868
      px      :     1.155726
      py      :     1.088519
      dz2     :     0.003367  d :     0.062801
      dxz     :     0.017486
      dyz     :     0.018562
      dx2y2   :     0.018138
      dxy     :     0.005249

  1 C s       :     2.934297  s :     2.934297
      pz      :     1.116399  p :     3.284439
      px      :     1.076679
      py      :     1.091362
      dz2     :     0.006015  d :     0.079364
      dxz     :     0.021355
      dyz     :     0.021574
      dx2y2   :     0.021991
      dxy     :     0.008430

  2 C s       :     2.921816  s :     2.921816
      pz      :     1.076196  p :     3.234309
      px      :     1.022527
      py      :     1.135585
      dz2     :     0.005217  d :     0.073336
      dxz     :     0.023067
      dyz     :     0.018413
      dx2y2   :     0.019545
      dxy     :     0.007095

  3 C s       :     2.738682  s :     2.738682
      pz      :     0.955940  p :     2.618511
      px      :     0.921075
      py      :     0.741496
      dz2     :     0.059857  d :     0.272121
      dxz     :     0.099209
      dyz     :     0.043663
      dx2y2   :     0.031053
      dxy     :     0.038338

  4 O s       :     3.544003  s :     3.544003
      pz      :     1.494376  p :     4.733759
      px      :     1.752704
      py      :     1.486679
      dz2     :     0.068104  d :     0.227974
      dxz     :     0.061174
      dyz     :     0.052305
      dx2y2   :     0.026716
      dxy     :     0.019675

  5 O s       :     3.464055  s :     3.464055
      pz      :     1.653857  p :     4.659018
      px      :     1.327919
      py      :     1.677242
      dz2     :     0.089569  d :     0.476588
      dxz     :     0.120787
      dyz     :     0.040407
      dx2y2   :     0.108588
      dxy     :     0.117238

  6 C s       :     2.869515  s :     2.869515
      pz      :     1.045692  p :     2.976308
      px      :     0.862387
      py      :     1.068229
      dz2     :     0.025317  d :     0.118529
      dxz     :     0.026389
      dyz     :     0.011161
      dx2y2   :     0.024436
      dxy     :     0.031227

  7 C s       :     2.974097  s :     2.974097
      pz      :     1.157316  p :     3.356379
      px      :     1.120373
      py      :     1.078690
      dz2     :     0.015269  d :     0.060143
      dxz     :     0.009092
      dyz     :     0.009301
      dx2y2   :     0.012196
      dxy     :     0.014285

  8 H s       :     0.800572  s :     0.800572
      pz      :     0.012970  p :     0.043900
      px      :     0.022212
      py      :     0.008717

  9 H s       :     0.801272  s :     0.801272
      pz      :     0.017720  p :     0.043766
      px      :     0.008413
      py      :     0.017633

 10 H s       :     0.799764  s :     0.799764
      pz      :     0.016386  p :     0.044134
      px      :     0.019496
      py      :     0.008252

 11 H s       :     0.791648  s :     0.791648
      pz      :     0.018712  p :     0.043959
      px      :     0.007867
      py      :     0.017380

 12 H s       :     0.796406  s :     0.796406
      pz      :     0.015543  p :     0.043665
      px      :     0.019888
      py      :     0.008233

 13 H s       :     0.759633  s :     0.759633
      pz      :     0.013171  p :     0.045202
      px      :     0.008611
      py      :     0.023420

 14 H s       :     0.768759  s :     0.768759
      pz      :     0.017354  p :     0.044473
      px      :     0.008197
      py      :     0.018922

 15 H s       :     0.774165  s :     0.774165
      pz      :     0.010826  p :     0.040938
      px      :     0.010421
      py      :     0.019691

 16 H s       :     0.762159  s :     0.762159
      pz      :     0.027496  p :     0.044446
      px      :     0.007926
      py      :     0.009023

 17 H s       :     0.795126  s :     0.795126
      pz      :     0.011480  p :     0.043803
      px      :     0.013206
      py      :     0.019117

 18 H s       :     0.794474  s :     0.794474
      pz      :     0.027083  p :     0.043850
      px      :     0.008178
      py      :     0.008588

 19 H s       :     0.788008  s :     0.788008
      pz      :     0.012214  p :     0.044426
      px      :     0.024302
      py      :     0.007909


---------------------------------
LOEWDIN BOND ORDERS (THRESH 0.050000)
---------------------------------
B(  0-C ,  1-C ) :   1.1415 B(  0-C ,  2-C ) :   0.0670 B(  0-C ,  8-H ) :   0.9288 
B(  0-C ,  9-H ) :   0.9282 B(  0-C , 10-H ) :   0.9215 B(  1-C ,  2-C ) :   1.0895 
B(  1-C ,  3-C ) :   0.0691 B(  1-C , 11-H ) :   0.8853 B(  1-C , 12-H ) :   0.8915 
B(  2-C ,  3-C ) :   0.9269 B(  2-C ,  4-O ) :   0.1797 B(  2-C ,  5-O ) :   0.1897 
B(  2-C , 13-H ) :   0.8528 B(  2-C , 14-H ) :   0.8586 B(  3-C ,  4-O ) :   2.1329 
B(  3-C ,  5-O ) :   1.4694 B(  3-C ,  6-C ) :   0.0860 B(  4-O ,  5-O ) :   0.4540 
B(  4-O ,  6-C ) :   0.0734 B(  5-O ,  6-C ) :   1.2905 B(  5-O ,  7-C ) :   0.1686 
B(  5-O , 15-H ) :   0.0955 B(  5-O , 16-H ) :   0.0899 B(  6-C ,  7-C ) :   1.0892 
B(  6-C , 15-H ) :   0.8284 B(  6-C , 16-H ) :   0.8097 B(  7-C , 17-H ) :   0.9240 
B(  7-C , 18-H ) :   0.9212 B(  7-C , 19-H ) :   0.9156 

------------------------------------------
LOEWDIN REDUCED ORBITAL POPULATIONS PER MO
-------------------------------------------
THRESHOLD FOR PRINTING IS 0.1%%
                      0         1         2         3         4         5   
                 -19.00183 -18.94279 -10.16245 -10.08205 -10.03521 -10.02558
                   2.00000   2.00000   2.00000   2.00000   2.00000   2.00000
                  --------  --------  --------  --------  --------  --------
 1 C  s               0.0       0.0       0.0       0.0       0.0      99.7
 2 C  s               0.0       0.0       0.0       0.0      99.7       0.0
 3 C  s               0.0       0.0      98.9       0.0       0.0       0.0
 4 O  s               0.0      99.9       0.0       0.0       0.0       0.0
 4 O  pz              0.0       0.0       0.2       0.0       0.0       0.0
 4 O  dz2             0.0       0.0       0.2       0.0       0.0       0.0
 4 O  dyz             0.0       0.0       0.1       0.0       0.0       0.0
 5 O  s              99.9       0.0       0.0       0.0       0.0       0.0
 5 O  dxz             0.0       0.0       0.1       0.2       0.0       0.0
 5 O  dx2y2           0.0       0.0       0.1       0.1       0.0       0.0
 6 C  s               0.0       0.0       0.0      99.4       0.0       0.0

                      6         7         8         9        10        11   
                 -10.01843 -10.01050  -1.07766  -0.98857  -0.76790  -0.73497
                   2.00000   2.00000   2.00000   2.00000   2.00000   2.00000
                  --------  --------  --------  --------  --------  --------
 0 C  s               0.0      99.7       0.0       0.0       7.3       6.1
 0 C  pz              0.0       0.0       0.0       0.0       0.5       0.2
 0 C  py              0.0       0.0       0.0       0.0       1.7       0.8
 1 C  s               0.0       0.0       0.1       0.0      17.1       8.6
 1 C  pz              0.0       0.0       0.0       0.0       0.2       0.0
 1 C  px              0.0       0.0       0.2       0.1       1.7       0.1
 1 C  py              0.0       0.1       0.0       0.0       0.1       0.4
 2 C  s               0.0       0.0       1.0       0.2      20.6       1.6
 2 C  pz              0.0       0.0       0.6       0.4       0.8       0.3
 2 C  px              0.0       0.0       1.5       0.0       0.3       2.6
 2 C  py              0.0       0.0       0.0       0.1       0.1       0.1
 3 C  s               0.0       0.0      17.1       3.1       3.2       1.0
 3 C  pz              0.0       0.0       0.3      15.7       5.4       0.8
 3 C  px              0.0       0.0       4.4       3.6       4.0       1.4
 3 C  py              0.0       0.0       0.0       4.4       0.6       0.2
 3 C  dz2             0.0       0.0       0.1       1.1       0.0       0.0
 3 C  dxz             0.0       0.0       0.3       0.1       0.0       0.1
 3 C  dyz             0.0       0.0       0.4       0.4       0.0       0.0
 3 C  dx2y2           0.0       0.0       0.2       0.2       0.1       0.0
 3 C  dxy             0.0       0.0       0.2       0.1       0.0       0.0
 4 O  s               0.0       0.0      14.7      40.4       1.7       0.1
 4 O  pz              0.0       0.0       2.6       2.6       0.4       0.1
 4 O  px              0.0       0.0       0.1       0.0       0.1       0.0
 4 O  py              0.0       0.0       0.6       0.5       0.1       0.0
 4 O  dz2             0.0       0.0       0.4       0.1       0.3       0.1
 4 O  dxz             0.0       0.0       0.3       0.2       0.2       0.1
 4 O  dyz             0.0       0.0       0.6       0.1       0.2       0.0
 5 O  s               0.0       0.0      39.3      19.0       0.0       0.7
 5 O  pz              0.0       0.0       1.8       0.3       0.3       0.2
 5 O  px              0.0       0.0       0.5       0.6       6.4      10.5
 5 O  py              0.0       0.0       0.5       0.1       0.1       0.4
 5 O  dz2             0.0       0.0       0.0       0.1       0.1       0.1
 5 O  dxz             0.0       0.0       0.2       0.8       0.1       1.1
 5 O  dyz             0.0       0.0       0.2       0.2       0.0       0.0
 5 O  dx2y2           0.0       0.0       0.3       0.0       0.1       0.5
 5 O  dxy             0.0       0.0       0.2       0.2       0.0       0.0
 6 C  s               0.0       0.0       3.9       2.0       4.9      17.1
 6 C  pz              0.0       0.0       0.7       0.8       0.1       0.0
 6 C  px              0.0       0.0       4.5       1.2       0.1       1.3
 6 C  py              0.1       0.0       0.0       0.1       0.2       1.6
 6 C  dxz             0.0       0.0       0.2       0.1       0.0       0.0
 6 C  dx2y2           0.0       0.0       0.2       0.1       0.0       0.0
 7 C  s              99.7       0.0       0.3       0.2       2.8      18.0
 7 C  px              0.0       0.0       0.3       0.2       0.2       0.4
 7 C  py              0.0       0.0       0.3       0.2       0.4       1.5
 8 H  s               0.0       0.0       0.0       0.0       0.9       0.9
 9 H  s               0.0       0.0       0.0       0.0       0.9       0.9
10 H  s               0.0       0.0       0.0       0.0       1.0       0.9
11 H  s               0.0       0.0       0.0       0.0       2.2       1.3
11 H  pz              0.0       0.0       0.0       0.0       0.1       0.1
12 H  s               0.0       0.0       0.0       0.0       2.2       1.3
12 H  px              0.0       0.0       0.0       0.0       0.1       0.1
13 H  s               0.0       0.0       0.0       0.0       2.9       0.2
13 H  py              0.0       0.0       0.0       0.0       0.2       0.0
14 H  s               0.0       0.0       0.1       0.0       3.1       0.1
14 H  pz              0.0       0.0       0.0       0.0       0.1       0.0
14 H  py              0.0       0.0       0.0       0.0       0.2       0.0
15 H  s               0.0       0.0       0.2       0.1       0.7       2.9
15 H  py              0.0       0.0       0.0       0.0       0.0       0.2
16 H  s               0.0       0.0       0.3       0.1       0.7       2.5
16 H  pz              0.0       0.0       0.0       0.0       0.1       0.2
17 H  s               0.0       0.0       0.0       0.0       0.4       2.7
17 H  py              0.0       0.0       0.0       0.0       0.0       0.2
18 H  s               0.0       0.0       0.0       0.0       0.4       2.8
18 H  pz              0.0       0.0       0.0       0.0       0.0       0.2
19 H  s               0.0       0.0       0.0       0.0       0.4       2.9
19 H  px              0.0       0.0       0.0       0.0       0.0       0.2

                     12        13        14        15        16        17   
                  -0.67215  -0.61342  -0.55809  -0.52436  -0.47298  -0.46088
                   2.00000   2.00000   2.00000   2.00000   2.00000   2.00000
                  --------  --------  --------  --------  --------  --------
 0 C  s              19.3       7.0       6.9       0.7       0.1       0.1
 0 C  pz              0.0       0.3       0.8       0.1       1.3       0.1
 0 C  px              0.1       0.0       0.3       0.1       0.1       1.7
 0 C  py              0.1       0.9       5.8       1.3       1.0       0.0
 1 C  s               3.1       1.6      12.5       2.3       0.1       0.1
 1 C  pz              2.5       1.4       0.1       0.1       7.8       0.0
 1 C  px              2.2       0.3       2.4       1.4       0.1       2.7
 1 C  py              4.1       2.9       3.7       0.3       1.0       0.3
 1 C  dx2y2           0.2       0.1       0.0       0.0       0.0       0.0
 2 C  s              11.1       3.3       1.9       1.6       2.2       0.1
 2 C  pz              0.3       0.1       0.5       1.0      16.8       1.1
 2 C  px              2.5       2.5       6.6       0.1       2.5       0.2
 2 C  py              0.5       0.3       0.0       0.0       1.7       4.1
 2 C  dxz             0.1       0.0       0.2       0.0       0.1       0.0
 3 C  s               2.6       1.7       0.9       2.1       3.2       0.1
 3 C  pz              3.2       0.7       0.9       0.2       0.2       4.2
 3 C  px              3.2       1.6       2.3       4.0       8.4       0.7
 3 C  py              0.0       0.8       0.1       0.2       0.4       9.5
 3 C  dxz             0.1       0.1       0.2       0.0       0.0       0.1
 4 O  s               0.6       0.2       0.4       2.4       5.7       1.6
 4 O  pz              0.5       0.2       0.5       1.9      13.6       0.5
 4 O  px              0.2       0.1       0.1       2.2       6.0       0.0
 4 O  py              0.0       0.1       0.0       0.8       1.5       9.4
 4 O  dz2             0.3       0.1       0.1       0.0       0.3       0.3
 4 O  dxz             0.2       0.1       0.0       0.2       0.5       0.0
 4 O  dyz             0.1       0.1       0.0       0.1       0.1       0.5
 4 O  dx2y2           0.0       0.1       0.0       0.0       0.0       0.1
 4 O  dxy             0.0       0.0       0.0       0.1       0.2       0.0
 5 O  s               1.1       0.1       1.5       4.6       0.1       0.3
 5 O  pz              0.1       0.0       0.2       7.5       1.1      12.2
 5 O  px              1.7      16.7       0.3      11.8       1.8       0.3
 5 O  py              0.0       0.1       0.4       4.8       0.1      13.8
 5 O  dz2             0.4       0.0       0.1       0.1       0.5       0.5
 5 O  dxz             0.1       0.5       0.4       0.2       0.4       0.0
 5 O  dyz             0.0       0.0       0.0       0.1       0.0       0.1
 5 O  dx2y2           0.7       0.0       0.9       0.1       0.2       0.0
 5 O  dxy             0.3       0.5       0.1       0.1       0.1       0.0
 6 C  s               0.6       3.6       4.9       4.5       0.1       0.1
 6 C  pz              0.2       0.4       0.6      11.1       3.5       4.9
 6 C  px              2.2       2.8       0.3       3.0       0.1       5.5
 6 C  py              1.1       4.0       2.7       4.0       0.0       6.8
 6 C  dxz             0.1       0.1       0.0       0.4       0.0       0.0
 6 C  dxy             0.0       0.1       0.0       0.0       0.0       0.0
 7 C  s               8.3      14.8       2.6       0.4       0.0       0.1
 7 C  pz              0.0       0.0       0.1       1.9       0.7       1.2
 7 C  px              0.0       1.0       0.2       0.1       0.0       4.1
 7 C  py              0.0       1.8       2.6       2.1       0.3       0.4
 8 H  s               4.2       2.1       2.6       0.2       0.0       0.6
 8 H  px              0.3       0.1       0.2       0.0       0.0       0.0
 9 H  s               3.7       1.9       3.3       0.5       0.8       0.0
 9 H  pz              0.2       0.1       0.2       0.0       0.0       0.0
 9 H  py              0.2       0.1       0.1       0.0       0.0       0.0
10 H  s               3.7       2.1       3.5       0.5       0.1       0.1
10 H  pz              0.1       0.1       0.1       0.0       0.0       0.0
10 H  px              0.2       0.1       0.1       0.0       0.0       0.0
11 H  s               0.6       0.5       5.4       1.2       2.4       0.3
11 H  pz              0.0       0.0       0.3       0.1       0.0       0.0
11 H  py              0.0       0.0       0.2       0.0       0.1       0.0
12 H  s               0.7       0.6       6.1       1.3       0.5       0.6
12 H  pz              0.0       0.0       0.2       0.1       0.0       0.0
12 H  px              0.0       0.0       0.3       0.0       0.0       0.0
13 H  s               2.9       1.3       0.8       0.9       2.1       1.0
13 H  py              0.2       0.1       0.0       0.1       0.2       0.0
14 H  s               2.4       0.5       1.1       1.1       7.0       0.2
14 H  pz              0.1       0.0       0.0       0.0       0.1       0.0
14 H  py              0.1       0.0       0.1       0.0       0.2       0.0
15 H  s               0.1       1.4       3.0       3.1       0.4       5.1
15 H  pz              0.0       0.0       0.1       0.2       0.0       0.0
15 H  py              0.0       0.1       0.1       0.1       0.0       0.1
16 H  s               0.1       0.9       2.5       7.9       1.2       1.0
16 H  pz              0.0       0.1       0.2       0.4       0.0       0.0
17 H  s               1.7       4.3       1.4       0.4       0.2       0.7
17 H  px              0.0       0.1       0.0       0.0       0.0       0.0
17 H  py              0.1       0.2       0.0       0.0       0.0       0.0
18 H  s               1.7       4.0       1.3       1.1       0.0       0.7
18 H  pz              0.1       0.3       0.1       0.1       0.0       0.0
19 H  s               1.9       4.8       0.9       0.0       0.2       0.7
19 H  px              0.1       0.3       0.0       0.0       0.0       0.0

                     18        19        20        21        22        23   
                  -0.44657  -0.42234  -0.40075  -0.38299  -0.36679  -0.36160
                   2.00000   2.00000   2.00000   2.00000   2.00000   2.00000
                  --------  --------  --------  --------  --------  --------
 0 C  s               0.2       0.2       0.0       0.1       0.1       0.0
 0 C  pz              0.0       8.5       2.1      13.1       1.3       4.6
 0 C  px              0.7       1.0      17.3       0.4       3.8       3.6
 0 C  py              1.6       0.0       0.8       0.1       8.9       3.7
 0 C  dx2y2           0.0       0.0       0.0       0.1       0.0       0.0
 1 C  s               0.1       0.1       0.1       0.2       0.0       0.0
 1 C  pz              2.3       5.9       2.6       0.9       4.6       1.6
 1 C  px              0.3       0.3      16.9       0.2       1.1       0.8
 1 C  py              0.1       5.9       0.3       4.8       3.0       0.4
 2 C  s               0.4       0.0       0.3       0.3       0.1       0.1
 2 C  pz              2.3       0.1       1.5       4.6       1.1       3.6
 2 C  px              1.9       0.6       2.6       0.7       6.5       0.9
 2 C  py              5.2      15.5       0.4       1.9       6.8       3.6
 2 C  dxz             0.0       0.0       0.2       0.0       0.0       0.0
 2 C  dyz             0.0       0.0       0.0       0.0       0.1       0.1
 2 C  dxy             0.0       0.0       0.0       0.1       0.0       0.0
 3 C  s               0.6       0.3       0.5       0.1       0.1       0.1
 3 C  pz              2.9       2.7       0.5       2.4       0.6       1.9
 3 C  px              1.6       0.2       1.1       1.8       0.1       0.3
 3 C  py              7.1       1.3       0.0       4.6       0.1       0.3
 3 C  dz2             0.0       0.0       0.1       0.1       0.0       0.2
 3 C  dxz             0.1       0.0       0.0       0.0       0.2       0.0
 3 C  dx2y2           0.0       0.0       0.2       0.0       0.0       0.0
 3 C  dxy             0.0       0.1       0.0       0.1       0.2       0.0
 4 O  s               7.0       1.1       0.1       0.1       0.0       0.3
 4 O  pz             23.6       4.1       2.1       0.5       0.1       1.6
 4 O  px              2.6       0.2       0.7       1.0       0.9       0.2
 4 O  py              0.4       4.2       0.2       9.3       0.6       3.0
 4 O  dz2             0.3       0.0       0.1       0.2       0.0       0.1
 4 O  dxz             0.2       0.1       0.1       0.1       0.0       0.0
 4 O  dyz             0.1       0.1       0.0       0.1       0.0       0.0
 4 O  dx2y2           0.0       0.2       0.1       0.1       0.0       0.0
 5 O  s               0.8       0.0       0.1       0.2       1.7       0.8
 5 O  pz              6.6       0.4       1.8       2.9       1.2       2.1
 5 O  px              4.0       0.0       0.6       1.0       0.5       2.4
 5 O  py              5.9       0.2       8.8       3.2       2.5       0.0
 5 O  dz2             0.1       0.1       0.1       0.0       0.1       0.2
 5 O  dxz             0.1       0.6       0.0       0.4       0.2       0.0
 5 O  dyz             0.1       0.1       0.1       0.0       0.1       0.0
 5 O  dx2y2           0.5       0.2       0.2       0.2       0.2       0.0
 5 O  dxy             0.4       0.4       0.4       0.1       0.0       0.6
 6 C  s               0.7       0.0       0.3       0.0       0.0       0.2
 6 C  pz              0.1       7.1       0.0       2.8       0.1       0.2
 6 C  px              4.8       2.7       1.4       1.7       2.0       0.4
 6 C  py              0.0       2.0       5.1       0.0       1.0       0.9
 6 C  dxz             0.0       0.0       0.0       0.1       0.0       0.2
 7 C  s               0.3       0.0       0.2       0.0       0.0       0.0
 7 C  pz              0.0       4.8       0.1      11.0       7.4      16.3
 7 C  px              0.0       2.3       4.8       0.8       7.0      12.2
 7 C  py              3.6       0.9       3.8       3.7       6.8       0.1
 7 C  dxz             0.0       0.0       0.0       0.0       0.1       0.2
 7 C  dx2y2           0.0       0.0       0.0       0.0       0.0       0.1
 8 H  s               0.5       2.4       3.5       2.6       1.1       2.4
 8 H  pz              0.0       0.0       0.1       0.0       0.0       0.0
 8 H  py              0.0       0.0       0.0       0.0       0.1       0.1
 9 H  s               0.6       0.9       0.5       2.3       4.7       4.5
 9 H  pz              0.0       0.0       0.0       0.0       0.1       0.1
 9 H  px              0.0       0.0       0.1       0.0       0.0       0.0
 9 H  py              0.0       0.1       0.0       0.1       0.0       0.1
10 H  s               0.0       0.8       5.7       1.8       0.7       0.0
10 H  pz              0.0       0.0       0.1       0.0       0.0       0.0
11 H  s               0.6       3.4       0.4       1.3       0.2       0.1
11 H  px              0.0       0.0       0.1       0.0       0.0       0.0
12 H  s               0.2       0.4       6.7       0.1       0.1       0.0
12 H  pz              0.0       0.0       0.1       0.0       0.0       0.0
13 H  s               4.1       4.5       0.1       3.7       1.6       0.2
13 H  pz              0.0       0.1       0.0       0.0       0.1       0.1
13 H  py              0.1       0.1       0.0       0.1       0.0       0.0
14 H  s               0.1       2.3       0.0       0.3       4.9       4.9
15 H  s               1.2       3.3       0.1       0.8       0.1       0.0
16 H  s               0.3       2.5       0.0       1.1       0.1       0.0
17 H  s               1.0       1.9       0.2       4.7       2.5       0.0
17 H  pz              0.0       0.0       0.0       0.0       0.2       0.1
18 H  s               0.4       1.6       0.7       3.4       4.1       5.6
18 H  px              0.0       0.0       0.0       0.0       0.1       0.1
19 H  s               0.1       0.1       1.8       0.2       6.8      12.6
19 H  px              0.0       0.0       0.0       0.0       0.1       0.2

                     24        25        26        27        28        29   
                  -0.35294  -0.33626  -0.31017  -0.30567  -0.30277  -0.30189
                   2.00000   2.00000   2.00000   2.00000   2.00000   2.00000
                  --------  --------  --------  --------  --------  --------
 0 C  s               0.0       0.1       0.0       0.4       0.2       0.1
 0 C  pz              2.2       1.5       0.0       6.3       2.8      11.6
 0 C  px              8.5       1.2       8.5       3.5       6.8       0.0
 0 C  py              3.6       2.9       0.2      13.2       1.9       5.2
 0 C  dxz             0.1       0.0       0.2       0.1       0.2       0.0
 0 C  dyz             0.0       0.0       0.0       0.0       0.0       0.5
 0 C  dx2y2           0.0       0.0       0.0       0.2       0.1       0.2
 1 C  s               0.1       0.1       0.1       0.0       0.2       0.1
 1 C  pz              0.9       1.5       0.0       2.7       2.3      18.0
 1 C  px              0.6       0.5       7.0       2.7      11.5       0.2
 1 C  py              0.3       3.3       0.4      14.1       1.6       7.1
 1 C  dxz             0.0       0.0       0.2       0.1       0.4       0.0
 1 C  dyz             0.0       0.0       0.0       0.2       0.0       0.7
 1 C  dx2y2           0.0       0.0       0.0       0.3       0.1       0.3
 1 C  dxy             0.1       0.0       0.1       0.0       0.1       0.0
 2 C  s               0.1       0.1       0.5       0.2       0.1       0.1
 2 C  pz              4.1       0.5       1.9       3.1       0.1       3.7
 2 C  px              0.7       0.8       3.0       2.9       5.4       2.7
 2 C  py              0.9       0.0       0.0      13.2       1.5       0.6
 2 C  dxz             0.1       0.0       0.0       0.1       0.2       0.0
 2 C  dyz             0.0       0.0       0.0       0.4       0.1       0.1
 2 C  dx2y2           0.0       0.0       0.0       0.2       0.0       0.1
 2 C  dxy             0.0       0.0       0.0       0.0       0.0       0.1
 3 C  s               0.2       0.0       0.1       0.0       0.6       0.0
 3 C  pz              1.0       1.3       0.2       0.0       1.6       0.2
 3 C  px              3.6       0.0       1.2       0.0       0.4       0.5
 3 C  py              4.5       1.5       0.6       0.5       0.1       0.0
 3 C  dz2             0.0       0.4       0.1       0.2       0.1       0.0
 3 C  dxz             0.0       0.2       0.0       0.0       0.0       0.0
 3 C  dyz             0.3       0.0       0.1       0.3       0.0       0.0
 3 C  dx2y2           0.2       0.0       0.2       0.0       0.0       0.0
 4 O  s               0.4       0.1       0.2       0.0       0.2       0.0
 4 O  pz              8.7       0.1       2.4       2.4       1.3       0.1
 4 O  px              3.2       0.4       0.2       0.1       1.9       0.4
 4 O  py              3.5       9.9       0.2       8.1       0.7       0.4
 4 O  dz2             0.0       0.1       0.1       0.0       0.1       0.1
 4 O  dxz             0.1       0.0       0.1       0.0       0.1       0.0
 4 O  dyz             0.2       0.0       0.1       0.0       0.0       0.0
 4 O  dx2y2           0.0       0.0       0.1       0.1       0.1       0.1
 5 O  s               0.1       0.3       0.5       0.1       1.6       0.1
 5 O  pz              5.1      10.0       4.7       0.3      12.0       0.3
 5 O  px              1.0       0.7       0.2       0.1       1.3       0.1
 5 O  py              0.1       0.1       4.3       0.0       3.8       0.0
 5 O  dz2             0.0       0.0       0.5       0.0       0.8       0.0
 5 O  dxz             0.1       0.1       0.3       0.0       0.0       0.0
 5 O  dyz             0.0       0.0       0.2       0.2       0.2       0.0
 5 O  dx2y2           0.1       0.0       0.1       0.0       0.6       0.0
 5 O  dxy             0.9       0.6       0.0       0.0       0.0       0.0
 6 C  s               0.1       0.3       0.2       0.0       0.3       0.0
 6 C  pz              0.1       0.2      10.4       0.7       4.5       0.7
 6 C  px              3.9       1.5       2.3       0.0       0.3       0.0
 6 C  py              8.3       6.7       1.3       0.0       1.1       0.0
 6 C  dz2             0.0       0.0       0.5       0.0       0.3       0.0
 6 C  dyz             0.0       0.1       0.2       0.0       0.1       0.0
 6 C  dx2y2           0.1       0.3       0.0       0.0       0.0       0.0
 6 C  dxy             0.1       0.2       0.0       0.0       0.0       0.0
 7 C  s               0.1       0.1       0.3       0.0       0.1       0.0
 7 C  pz              1.2       2.2       7.2       0.5       1.8       0.4
 7 C  px              7.6       9.2       4.6       0.0       0.1       0.0
 7 C  py              6.4      12.7       1.1       0.0       0.9       0.0
 7 C  dz2             0.1       0.0       0.2       0.0       0.1       0.0
 7 C  dyz             0.0       0.1       0.1       0.0       0.0       0.0
 7 C  dx2y2           0.1       0.1       0.1       0.0       0.0       0.0
 7 C  dxy             0.1       0.2       0.0       0.0       0.0       0.0
 8 H  s               2.2       0.0       3.9       6.8       1.3       1.6
 9 H  s               1.8       0.1       0.2       0.0       0.0      12.1
 9 H  py              0.0       0.0       0.0       0.1       0.0       0.0
10 H  s               4.1       1.9       3.5       0.0       6.5       3.1
10 H  py              0.0       0.0       0.0       0.1       0.0       0.0
11 H  s               0.1       0.1       0.4       1.1       0.0      17.9
11 H  pz              0.0       0.0       0.0       0.1       0.0       0.1
11 H  px              0.0       0.0       0.1       0.0       0.1       0.0
[...]
 3 C  dx2y2           2.8       0.3       1.8       0.1       0.0       0.0
 3 C  dxy             0.6       0.4       3.0       0.0       0.0       0.0
 4 O  s               2.6       1.1       0.4      19.1       0.0       0.0
 4 O  pz              0.2       0.7       0.3      17.8       0.0       0.0
 4 O  px              9.3       0.1       0.2       0.0       0.0       0.0
 4 O  py              0.6       0.2       0.0       3.9       0.0       0.0
 4 O  dz2             1.5       1.0       0.1      18.4       0.0       0.0
 4 O  dxz            13.1       0.2       1.6       0.1       0.0       0.0
 4 O  dyz             0.2       0.8       0.0      13.9       0.0       0.0
 4 O  dx2y2           0.7       0.1       0.3       0.8       0.0       0.0
 4 O  dxy             5.2       0.0       0.1       0.0       0.0       0.0
 5 O  s               3.8      24.7       6.4       1.1       0.0       0.0
 5 O  pz              5.8       6.9       0.9       0.3       0.0       0.0
 5 O  px              0.2       7.1      28.2       0.5       0.0       0.0
 5 O  py              1.1       0.4       1.8       0.0       0.0       0.0
 5 O  dz2             4.9       1.6       1.0       0.1       0.0       0.0
 5 O  dxz             0.5       4.8      18.4       0.9       0.0       0.0
 5 O  dyz             2.8       0.6       1.2       0.0       0.0       0.0
 5 O  dx2y2           0.8      17.9       2.4       1.2       0.0       0.0
 5 O  dxy             0.2       0.6       6.7       0.0       0.0       0.0
 6 C  s               0.0       1.4       0.5       0.1      11.5       2.0
 6 C  pz              0.2       1.3       0.8       0.1       0.0       0.0
 6 C  px              0.1       6.7       1.1       0.3       0.0       0.0
 6 C  py              0.0       0.2       0.0       0.0       0.0       0.0
 6 C  dz2             2.0       0.2       0.4       0.0       0.0       0.0
 6 C  dxz             0.5       7.4       1.4       0.4       0.0       0.0
 6 C  dyz             0.3       0.2       0.0       0.0       0.0       0.0
 6 C  dx2y2           0.0       5.4       1.0       0.2       0.0       0.0
 7 C  s               0.1       0.0       0.0       0.0      78.2      10.7
 7 C  pz              0.3       0.0       0.0       0.0       0.0       0.0
 7 C  px              0.5       0.1       0.0       0.0       0.0       0.0
 7 C  dz2             1.2       0.0       0.0       0.0       0.0       0.0
 7 C  dxz             0.2       0.2       0.0       0.0       0.0       0.0
 7 C  dyz             0.3       0.0       0.0       0.0       0.0       0.0
 7 C  dx2y2           0.5       0.4       0.0       0.0       0.0       0.0
 7 C  dxy             0.1       0.0       0.0       0.0       0.0       0.0
 8 H  s               0.4       0.0       0.0       0.0       0.0       0.0
 8 H  pz              0.4       0.0       0.0       0.0       0.0       0.0
 8 H  px              0.5       0.0       0.0       0.0       0.0       0.0
10 H  s               0.6       0.0       0.0       0.0       0.0       0.0
10 H  pz              0.7       0.0       0.0       0.0       0.0       0.0
10 H  px              0.6       0.0       0.0       0.0       0.0       0.0
11 H  py              0.1       0.0       0.0       0.0       0.0       0.0
12 H  s               0.1       0.0       0.0       0.0       0.0       0.0
12 H  pz              0.2       0.0       0.0       0.0       0.0       0.0
12 H  px              0.3       0.0       0.0       0.0       0.0       0.0
14 H  s               0.9       0.0       0.1       0.0       0.0       0.0
14 H  pz              1.1       0.0       0.0       0.0       0.0       0.0
14 H  px              0.3       0.0       0.1       0.0       0.0       0.0
14 H  py              1.0       0.0       0.0       0.0       0.0       0.0
15 H  s               0.1       0.7       0.0       0.0       0.0       0.0
15 H  pz              0.0       0.8       0.0       0.0       0.0       0.0
15 H  py              0.4       0.9       0.0       0.0       0.0       0.0
16 H  s               0.3       0.2       0.2       0.0       0.0       0.0
16 H  pz              0.3       0.2       0.3       0.0       0.0       0.0
16 H  px              1.7       0.3       0.2       0.0       0.0       0.0
17 H  s               0.4       0.0       0.0       0.0       0.0       0.0
17 H  pz              0.2       0.0       0.0       0.0       0.0       0.0
17 H  px              0.2       0.0       0.0       0.0       0.0       0.0
17 H  py              0.5       0.0       0.0       0.0       0.0       0.0
18 H  s               0.4       0.0       0.0       0.0       0.0       0.0
18 H  pz              0.8       0.0       0.0       0.0       0.0       0.0
19 H  s               0.1       0.1       0.0       0.0       0.0       0.0
19 H  px              0.2       0.2       0.0       0.0       0.0       0.0

                    216       217       218       219       220       221   
                  22.01290  22.04538  22.08964  22.26785  43.68133  43.74483
                   0.00000   0.00000   0.00000   0.00000   0.00000   0.00000
                  --------  --------  --------  --------  --------  --------
 0 C  s              13.6       0.7       2.6       0.0       0.0       0.0
 1 C  s               0.2      98.0       0.3       0.4       0.0       0.0
 2 C  s              18.9       0.2      67.0       0.3       0.0       0.0
 3 C  s               0.0       0.5       0.3      98.1       0.0       0.0
 4 O  s               0.0       0.0       0.0       0.2      85.0      14.9
 4 O  pz              0.0       0.0       0.0       0.1       0.0       0.0
 5 O  s               0.0       0.0       0.1       0.1      14.9      85.0
 5 O  px              0.0       0.0       0.0       0.1       0.0       0.0
 6 C  s              56.4       0.3      29.3       0.2       0.0       0.0
 7 C  s              10.7       0.0       0.0       0.0       0.0       0.0



                      *****************************
                      * MAYER POPULATION ANALYSIS *
                      *****************************

  NA   - Mulliken gross atomic population
  ZA   - Total nuclear charge
  QA   - Mulliken gross atomic charge
  VA   - Mayer's total valence
  BVA  - Mayer's bonded valence
  FA   - Mayer's free valence

  ATOM       NA         ZA         QA         VA         BVA        FA
  0 C      6.5292     6.0000    -0.5292     3.8173     3.8173     0.0000
  1 C      6.2192     6.0000    -0.2192     3.6566     3.6566     0.0000
  2 C      6.3102     6.0000    -0.3102     3.6492     3.6492    -0.0000
  3 C      5.6146     6.0000     0.3854     3.8371     3.8371     0.0000
  4 O      8.5182     8.0000    -0.5182     1.8869     1.8869    -0.0000
  5 O      8.1856     8.0000    -0.1856     1.9304     1.9304     0.0000
  6 C      6.1539     6.0000    -0.1539     3.6007     3.6007    -0.0000
  7 C      6.4859     6.0000    -0.4859     3.8446     3.8446     0.0000
  8 H      0.8399     1.0000     0.1601     0.9583     0.9583     0.0000
  9 H      0.8413     1.0000     0.1587     0.9599     0.9599    -0.0000
 10 H      0.8394     1.0000     0.1606     0.9610     0.9610     0.0000
 11 H      0.8501     1.0000     0.1499     0.9632     0.9632     0.0000
 12 H      0.8395     1.0000     0.1605     0.9568     0.9568     0.0000
 13 H      0.7997     1.0000     0.2003     0.9455     0.9455    -0.0000
 14 H      0.8190     1.0000     0.1810     0.9579     0.9579    -0.0000
 15 H      0.8313     1.0000     0.1687     0.9466     0.9466    -0.0000
 16 H      0.8203     1.0000     0.1797     0.9542     0.9542     0.0000
 17 H      0.8360     1.0000     0.1640     0.9568     0.9568    -0.0000
 18 H      0.8349     1.0000     0.1651     0.9569     0.9569    -0.0000
 19 H      0.8318     1.0000     0.1682     0.9588     0.9588     0.0000

  Mayer bond orders larger than 0.100000
B(  0-C ,  1-C ) :   0.9085 B(  0-C ,  8-H ) :   0.9672 B(  0-C ,  9-H ) :   0.9778 
B(  0-C , 10-H ) :   0.9739 B(  1-C ,  2-C ) :   0.8850 B(  1-C , 11-H ) :   0.9685 
B(  1-C , 12-H ) :   0.9597 B(  2-C ,  3-C ) :   0.9635 B(  2-C , 13-H ) :   0.9172 
B(  2-C , 14-H ) :   0.9818 B(  3-C ,  4-O ) :   1.7766 B(  3-C ,  5-O ) :   1.0962 
B(  5-O ,  6-C ) :   0.7685 B(  6-C ,  7-C ) :   0.9442 B(  6-C , 15-H ) :   0.9412 
B(  6-C , 16-H ) :   0.9624 B(  7-C , 17-H ) :   0.9704 B(  7-C , 18-H ) :   0.9682 
B(  7-C , 19-H ) :   0.9614 

-------
TIMINGS
-------

Total SCF time: 0 days 0 hours 0 min 35 sec 

Total time                  ....      35.624 sec
Sum of individual times     ....      34.926 sec  ( 98.0%)

SCF preparation             ....       0.422 sec  (  1.2%)
Fock matrix formation       ....      33.018 sec  ( 92.7%)
  Startup                   ....       0.081 sec  (  0.2% of F)
  Split-RI-J                ....       5.492 sec  ( 16.6% of F)
  XC integration            ....      20.491 sec  ( 62.1% of F)
    Basis function eval.    ....       3.632 sec  ( 17.7% of XC)
    Density eval.           ....       5.944 sec  ( 29.0% of XC)
    XC-Functional eval.     ....       2.637 sec  ( 12.9% of XC)
    XC-Potential eval.      ....       6.626 sec  ( 32.3% of XC)
  CPCM terms                ....       6.041 sec  ( 18.3% of F)
Diagonalization             ....       0.000 sec  (  0.0%)
Density matrix formation    ....       0.344 sec  (  1.0%)
Total Energy calculation    ....       0.059 sec  (  0.2%)
Population analysis         ....       0.150 sec  (  0.4%)
Orbital Transformation      ....       0.090 sec  (  0.3%)
Orbital Orthonormalization  ....       0.000 sec  (  0.0%)
DIIS solution               ....       0.779 sec  (  2.2%)
  MO trafo                  ....       0.000 sec  (  0.0 % of DIIS)
  Orb grad                  ....       0.000 sec  (  0.0 % of DIIS)
  Energy W gradient         ....       0.000 sec  (  0.0 % of DIIS)
  DIIS error                ....       0.027 sec  (  3.5 % of DIIS)
  DIIS work                 ....       0.660 sec  ( 84.8 % of DIIS)
  Form Q                    ....       0.000 sec  (  0.0 % of DIIS)
  Form QpQm                 ....       0.000 sec  (  0.0 % of DIIS)
  Exp/Cayley                ....       0.000 sec  (  0.0 % of DIIS)
  Orb update                ....       0.000 sec  (  0.0 % of DIIS)
  Wake-sleep                ....       0.036 sec  (  4.6 % of DIIS)
SOSCF solution              ....       0.063 sec  (  0.2%)
  MO trafo                  ....       0.049 sec  ( 77.4 % of SOSCF)
  Orb grad                  ....       0.001 sec  (  1.2 % of SOSCF)
  Rot update                ....       0.000 sec  (  0.2 % of SOSCF)
  Step                      ....       0.013 sec  ( 20.9 % of SOSCF)
Finished LeanSCF after  35.8 sec

Maximum memory used throughout the entire LEANSCF-calculation: 30.6 MB


-------------------------------------------------------------------------------
                          DFT DISPERSION CORRECTION                            
                                                                               
                                DFTD4 V3.4.0                                   
-------------------------------------------------------------------------------
The R2SCAN3C composite method is recognized
Using three-body term ABC
Active option DFTDOPT                   ...         5   

-------------------------   ----------------
Dispersion correction           -0.005006347
-------------------------   ----------------

------------------   -----------------
gCP correction             0.011810212
------------------   -----------------

-------------------------   --------------------
FINAL SINGLE POINT ENERGY      -386.240343614347
-------------------------   --------------------


------------------------------------------------------------------------------
                              ORCA PROPERTY CALCULATIONS
------------------------------------------------------------------------------

GBWName                                 ... sp_solv.gbw
Number of atoms                         ...     20
Number of basis functions               ...    222
Max core memory                         ...   1024 MB

Electric properties:
Dipole moment                           ... YES
Quadrupole moment                       ...  NO
Static polarizability (Dipole/Dipole)   ...  NO
Static polarizability (Dipole/Quad.)    ...  NO
Static polarizability (Quad./Quad.)     ...  NO
Static polarizability (Velocity)        ...  NO

Atomic electric properties:
Dipole moment                           ...  NO
Quadrupole moment                       ...  NO
Static polarizability                   ...  NO

Choice of electric origin               ... Center of mass
Position of electric origin             ...    -0.000008    -0.000017    -0.000005

General magnetic properties:
Magnetizability                         ...  NO

EPR properties:
g-Tensor (aka g-matrix)                 ...  NO
Zero-Field splitting spin-orbit         ...  NO
Zero-field splitting spin-spin          ...  NO
Hyperfine couplings                     ...  NO (   0 nuclei)
Quadrupole couplings                    ...  NO (   0 nuclei)
Contact density                         ...  NO (   0 nuclei)

NMR properties:
Chemical shifts                         ...  NO (   0 nuclei)
Spin-rotation constants                 ...  NO (   0 nuclei)
Spin-spin couplings                     ...  NO (   0 nuclei,    0 pairs)

Choice of magnetic origin               ... GIAO
Position of magnetic origin             ...     0.000000     0.000000     0.000000

Properties with geometric perturbations:
SCF Hessian                             ...  NO
IR spectrum                             ...  NO
VCD spectrum                            ...  NO
X-ray spectroscopy properties:
SCF XES/XAS/RIXS spectra                ...  NO


-------------
DIPOLE MOMENT
-------------

Method             : SCF
Type of density    : Electron Density
Multiplicity       :   1
Irrep              :   0
Energy             :  -386.2471474796712982 Eh
Relativity type    : 
Basis              : AO
                                X                 Y                 Z
Electronic contribution:      1.799440274       4.772693049      -0.099433146
Nuclear contribution   :     -1.374230656      -5.291437873      -0.817766637
                        -----------------------------------------
Total Dipole Moment    :      0.425209618      -0.518744824      -0.917199783
                        -----------------------------------------
Magnitude (a.u.)       :      1.136289952
Magnitude (Debye)      :      2.888219526



--------------------
Rotational spectrum 
--------------------
 
Rotational constants in cm-1:             0.132038             0.033704             0.031857 
Rotational constants in MHz :          3958.406024          1010.421920           955.062840 

Dipole components along the rotational axes: 
x,y,z [a.u.] :     0.450859    -0.600756     0.852627 
x,y,z [Debye]:     1.145992    -1.527001     2.167206 

 

Dipole moment calculation done in   0.0 sec 

Maximum memory used throughout the entire PROP-calculation: 13.7 MB

--------------------------------
SUGGESTED CITATIONS FOR THIS RUN
--------------------------------

Below you find a list of papers that are relevant to this ORCA run
We neither can nor want to force you to cite these papers, but we appreciate if you do
You receive ORCA, which is the product of decades of hard work by many enthusiastic individuals, for free
The only thing we kindly ask in return is that you cite our papers,
We deeply appreciate it, if you show your appreciation for ORCA by not just citing the generic ORCA reference.

Please note that relegating all ORCA citations to the supporting information does *not* help us.
SI sections are not indexed - citations you put there will not count into any citation statistics
But we need these citations in order to attract the funding resources that allow us to do what we are doing

Therefore, if you are a happy ORCA user, please consider citing a few of the papers listed below in the main body of your paper

In addition to the list printed below, the program has created the file sp_solv.bibtex that contains the list in bibtex format
You can import this file easily into all common literature databanks and citation aid programs


List of essential papers. We consider these as the minimum necessary citations

  1. Neese,F.
     Software update: the ORCA program system, version 5.0
     WIRES Comput. Molec. Sci., 2022 12(1)e1606
     doi.org/10.1002/wcms.1606
  2. Grimme,S.; Hansen,A.; Ehlert,S.; Mewes,J.
     r2SCAN-3c: A 'Swiss army knife' composite electronic-structure method
     J. Chem. Phys., 2021 154 064103
     doi.org/10.1063/5.0040021

List of papers to cite with high priority. The work reported in these papers was absolutely
necessary for this run to complete.
Our perspective: the developers of density functionals and basis sets usually get cited in chemistry papers
Good! But without the algorithms to do something with them, the functionals or basis sets would not do anything.
Hence, in our opinion, the algorithm design and method developments papers are equally worthy of getting cited

  1. Neese,F.
     An improvement of the resolution of the identity approximation for the formation of the Coulomb matrix
     J. Comp. Chem., 2003 24(14)1740-1747
     doi.org/10.1002/jcc.10318
  2. Garcia-Rates,M.; Neese,F.
     Effect of the Solute Cavity on the Solvation Energy and its Derivatives within the Framework of the Gaussian Charge Scheme
     J. Comput. Chem., 2020 41 922-939
     doi.org/10.1002/jcc.26139
  3. Neese,F.
     The SHARK Integral Generation and Digestion System
     J. Comp. Chem., 2022  1-16
     doi.org/10.1002/jcc.26942
  4. Lehtola,S.; Steigemann,C.; Oliveira,M.; Marques,M.
     Recent developments in Libxc - A comprehensive library of functionals for density functional theory
     Software X, 2018 7 
     doi.org/10.1016/j.softx.2017.11.002
  5. Caldeweyher,E.; Bannwarth,C.; Grimme,S.
     Extension of the D3 dispersion coefficient model
     J. Chem. Phys., 2017 147 034112-XXXX
     doi.org/10.1063/1.4993215
  6. Caldeweyher,E.; Ehlert,S.; Hansen,A.; Neugebauer,H.; Spicher,S.; Bannwarth,C.; Grimme,S.
     A generally applicable atomic-charge dependent London dispersion correction
     J. Chem. Phys., 2019 150 154122-XXXX
     doi.org/10.1063/1.5090222
  7. Caldeweyher,E.; Mewes,J.; Ehlert,S.; Grimme,S.
     Extension and evaluation of the D4 London-dispersion model for periodic systems
     Phys. Chem. Chem. Phys., 2020 22(16)8499-8512
     doi.org/10.1039/D0CP00502A

List of suggested additional citations. These are papers that are important in the 'surrounding' of 
of this run, or papers that preceded the highly important papers. If you like your results we are grateful for a citation.

  1. Neese,F.
     The ORCA program system
     WIRES Comput. Molec. Sci., 2012 2(1)73-78
     doi.org/10.1002/wcms.81
  2. Neese,F.
     Software update: the ORCA program system, version 4.0
     WIRES Comput. Molec. Sci., 2018 8(1)1-6
     doi.org/10.1002/wcms.1327
  3. Neese,F.; Wennmohs,F.; Becker,U.; Riplinger,C.
     The ORCA quantum chemistry program package
     J. Chem. Phys., 2020 152 Art. No. L224108
     doi.org/10.1063/5.0004608

List of optional additional citations

  1. Neese,F.
     Approximate second-order SCF convergence for spin unrestricted wavefunctions
     Chem. Phys. Lett., 2000 325(1-3)93-98
     doi.org/10.1016/s0009-2614(00)00662-x

Timings for individual modules:

Sum of individual times          ...       38.401 sec (=   0.640 min)
Startup calculation              ...        1.910 sec (=   0.032 min)   5.0 %
SCF iterations                   ...       36.357 sec (=   0.606 min)  94.7 %
Property calculations            ...        0.134 sec (=   0.002 min)   0.3 %
                             ****ORCA TERMINATED NORMALLY****
TOTAL RUN TIME: 0 days 0 hours 0 minutes 39 seconds 428 msec
