 Entering Gaussian System
 *********************************************
 Gaussian 98:
 frequency output generated by the xtb code
 *********************************************
                         Standard orientation:
 --------------------------------------------------------------------
  Center     Atomic     Atomic              Coordinates (Angstroms)
  Number     Number      Type              X           Y           Z
 --------------------------------------------------------------------
    1          6             0       -3.775844   -0.240737   -1.949273
    2          6             0       -3.319122   -0.358619   -0.494391
    3          1             0       -3.629856   -1.316317   -0.071063
    4          6             0       -1.816734   -0.230943   -0.374203
    5          6             0       -1.168150    0.942422   -0.742994
    6          6             0        0.204826    1.050298   -0.646226
    7          6             0        0.987759   -0.002212   -0.172112
    8          6             0        0.311365   -1.161018    0.192945
    9          6             0       -1.059732   -1.291944    0.101575
   10          9             0        1.014679   -2.242940    0.640819
   11          6             0        2.450280    0.126231   -0.073211
   12          6             0        3.133860   -0.299675    1.062471
   13          6             0        4.507489   -0.161201    1.144509
   14          6             0        5.216060    0.399386    0.095078
   15          6             0        4.543644    0.825025   -1.038907
   16          6             0        3.170188    0.693188   -1.122667
   17          6             0       -3.921882    0.740977    0.358718
   18          8             0       -4.118074    1.877218   -0.009179
   19          8             0       -4.182193    0.326410    1.586620
   20          1             0       -4.840348   -0.445801   -2.024775
   21          1             0       -3.592392    0.764102   -2.319053
   22          1             0       -3.232371   -0.951554   -2.564581
   23          1             0       -1.747869    1.781948   -1.094537
   24          1             0        0.691084    1.972321   -0.923566
   25          1             0       -1.517656   -2.222510    0.397102
   26          1             0        2.587249   -0.729629    1.888593
   27          1             0        5.025389   -0.492273    2.032006
   28          1             0        6.288370    0.503350    0.160501
   29          1             0        5.091695    1.259668   -1.861164
   30          1             0        2.649201    1.011398   -2.013151
   31          1             0       -4.537069    1.032464    2.162088
 --------------------------------------------------------------------
     1 basis functions        1 primitive gaussians
     1 alpha electrons        1 beta electrons
 
 Harmonic frequencies (cm**-1), IR intensities (km*mol⁻¹),
 Raman scattering activities (A**4/amu), Raman depolarization ratios,
 reduced masses (AMU), force constants (mDyne/A) and normal coordinates:
                      1                      2                      3
                        a                      a                      a 
 Frequencies --    25.8430                32.4508                43.7521
 Red. masses --    12.2677                14.0750                13.3158
 Frc consts  --     0.0000                 0.0000                 0.0000
 IR Inten    --     1.5552                 4.0940                 3.6668
 Raman Activ --     0.0000                 0.0000                 0.0000
 Depolar     --     0.0000                 0.0000                 0.0000
 Atom AN      X      Y      Z        X      Y      Z        X      Y      Z
   1   6     0.10  -0.29   0.09    -0.13  -0.06   0.04    -0.16  -0.12   0.17
   2   6     0.01  -0.03   0.14    -0.04  -0.01   0.01    -0.02  -0.02   0.14
   3   1    -0.00   0.01   0.08    -0.01   0.01   0.02    -0.01   0.01   0.07
   4   6     0.01  -0.01   0.16    -0.03  -0.05  -0.07    -0.01  -0.07  -0.03
   5   6    -0.02   0.04   0.26    -0.03  -0.05  -0.08    -0.00  -0.10  -0.12
   6   6    -0.02   0.04   0.23    -0.03  -0.05  -0.08     0.00  -0.11  -0.18
   7   6     0.01  -0.00   0.08    -0.03  -0.05  -0.08     0.01  -0.10  -0.16
   8   6     0.04  -0.05  -0.03    -0.02  -0.06  -0.11     0.01  -0.10  -0.14
   9   6     0.03  -0.06   0.01    -0.02  -0.06  -0.10     0.00  -0.08  -0.06
  10   9     0.08  -0.13  -0.25    -0.02  -0.09  -0.17     0.03  -0.13  -0.20
  11   6     0.02   0.00   0.03    -0.03  -0.02  -0.01    -0.00  -0.05  -0.08
  12   6     0.08  -0.17  -0.07    -0.09  -0.02   0.02    -0.08   0.02  -0.01
  13   6     0.08  -0.16  -0.12    -0.10   0.03   0.11    -0.10   0.14   0.13
  14   6     0.02   0.01  -0.07    -0.05   0.08   0.17    -0.04   0.19   0.19
  15   6    -0.04   0.18   0.03     0.00   0.08   0.14     0.03   0.11   0.11
  16   6    -0.04   0.17   0.08     0.01   0.03   0.05     0.05  -0.01  -0.02
  17   6    -0.07   0.10  -0.09     0.09   0.05   0.02     0.10   0.09   0.08
  18   8    -0.09   0.04  -0.35    -0.24  -0.05  -0.12     0.53   0.19   0.12
  19   8    -0.19   0.35  -0.05     0.69   0.27   0.22    -0.30   0.11   0.01
  20   1     0.03  -0.07   0.02    -0.04   0.00   0.04    -0.05  -0.02   0.09
  21   1     0.05  -0.11  -0.03    -0.03  -0.03  -0.01    -0.04  -0.05   0.02
  22   1     0.03  -0.13   0.08    -0.06  -0.04   0.01    -0.08  -0.06   0.05
  23   1    -0.01   0.02   0.10    -0.01  -0.01  -0.02    -0.00  -0.03  -0.03
  24   1    -0.01   0.02   0.09    -0.01  -0.01  -0.02     0.00  -0.04  -0.06
  25   1     0.02  -0.03  -0.02    -0.01  -0.02  -0.03     0.00  -0.02  -0.01
  26   1     0.04  -0.09  -0.03    -0.04  -0.02  -0.01    -0.04  -0.00  -0.02
  27   1     0.04  -0.09  -0.06    -0.04   0.01   0.04    -0.05   0.06   0.05
  28   1     0.01   0.00  -0.03    -0.02   0.04   0.07    -0.02   0.09   0.09
  29   1    -0.03   0.09   0.02     0.01   0.04   0.05     0.02   0.04   0.05
  30   1    -0.03   0.09   0.04     0.02   0.01   0.01     0.03  -0.02  -0.02
  31   1    -0.07   0.11  -0.06     0.20   0.08   0.06    -0.06   0.05  -0.01
                      4                      5                      6
                        a                      a                      a 
 Frequencies --    60.2065                79.1620                98.6204
 Red. masses --    11.9923                11.1510                12.4425
 Frc consts  --     0.0000                 0.0000                 0.0000
 IR Inten    --     0.4920                 0.2900                 0.6938
 Raman Activ --     0.0000                 0.0000                 0.0000
 Depolar     --     0.0000                 0.0000                 0.0000
 Atom AN      X      Y      Z        X      Y      Z        X      Y      Z
   1   6    -0.04   0.07  -0.07     0.16   0.23  -0.12     0.11   0.11   0.08
   2   6    -0.02   0.00  -0.08    -0.00   0.07  -0.08     0.03   0.11   0.11
   3   1    -0.02   0.00  -0.03    -0.03   0.02  -0.05     0.02   0.02   0.02
   4   6    -0.02  -0.05  -0.07    -0.00  -0.05   0.05     0.04   0.11   0.11
   5   6     0.03  -0.10  -0.17     0.05  -0.03   0.19     0.11   0.01  -0.06
   6   6     0.02  -0.13  -0.12     0.05  -0.11   0.22     0.14  -0.11  -0.21
   7   6    -0.00  -0.09   0.02    -0.01  -0.20   0.11     0.10  -0.13  -0.19
   8   6    -0.05  -0.02   0.15    -0.06  -0.19   0.04     0.03  -0.03  -0.02
   9   6    -0.06   0.00   0.11    -0.07  -0.12  -0.01     0.00   0.09   0.13
  10   9    -0.17   0.00   0.41    -0.12  -0.29  -0.00    -0.06  -0.09   0.01
  11   6    -0.01  -0.06   0.00    -0.01  -0.17   0.03     0.11  -0.15  -0.18
  12   6     0.09  -0.29  -0.14     0.09   0.06   0.05     0.04  -0.13  -0.13
  13   6     0.09  -0.21  -0.18     0.07   0.33  -0.00     0.01   0.03   0.04
  14   6    -0.01   0.14  -0.06    -0.06   0.35  -0.08     0.07   0.17   0.15
  15   6    -0.10   0.37   0.08    -0.15   0.05  -0.14     0.15   0.09   0.07
  16   6    -0.09   0.26   0.11    -0.13  -0.20  -0.08     0.17  -0.07  -0.09
  17   6     0.07   0.01  -0.03     0.03   0.06  -0.05    -0.20   0.02   0.06
  18   8     0.17   0.05   0.02     0.05   0.08  -0.03    -0.54  -0.04   0.02
  19   8     0.09  -0.01  -0.04     0.08   0.05  -0.05    -0.24  -0.01   0.06
  20   1    -0.01   0.02  -0.02     0.04   0.10  -0.07     0.04  -0.00   0.00
  21   1    -0.01   0.03  -0.01     0.08   0.07  -0.00     0.00   0.04   0.04
  22   1    -0.01   0.03  -0.03     0.05   0.07  -0.04     0.07   0.06   0.03
  23   1     0.02  -0.04  -0.08     0.03   0.01   0.08     0.05   0.01  -0.03
  24   1     0.01  -0.05  -0.05     0.03  -0.03   0.09     0.05  -0.05  -0.10
  25   1    -0.03   0.02   0.06    -0.03  -0.03  -0.03    -0.01   0.04   0.07
  26   1     0.05  -0.15  -0.06     0.05   0.01   0.03     0.00  -0.06  -0.06
  27   1     0.04  -0.12  -0.08     0.05   0.16   0.01    -0.02   0.02   0.03
  28   1    -0.00   0.06  -0.02    -0.02   0.17  -0.03     0.01   0.09   0.08
  29   1    -0.05   0.19   0.05    -0.07   0.01  -0.06     0.06   0.05   0.04
  30   1    -0.04   0.12   0.06    -0.06  -0.12  -0.03     0.07  -0.03  -0.04
  31   1     0.04  -0.00   0.00     0.03   0.01  -0.01    -0.12  -0.02   0.00
                      7                      8                      9
                        a                      a                      a 
 Frequencies --   158.4644               171.7918               187.6033
 Red. masses --     7.6477                 4.4125                11.2908
 Frc consts  --     0.0000                 0.0000                 0.0000
 IR Inten    --     0.1362                 0.4307                 2.4084
 Raman Activ --     0.0000                 0.0000                 0.0000
 Depolar     --     0.0000                 0.0000                 0.0000
 Atom AN      X      Y      Z        X      Y      Z        X      Y      Z
   1   6    -0.40  -0.06   0.09     0.27   0.02  -0.08     0.01   0.43   0.06
   2   6     0.00   0.06  -0.02     0.01  -0.00  -0.01    -0.02  -0.01   0.05
   3   1     0.02   0.02   0.02    -0.03   0.00  -0.02    -0.06  -0.00  -0.03
   4   6     0.03   0.03  -0.22    -0.01  -0.03   0.12     0.01  -0.24   0.03
   5   6     0.10   0.04  -0.09    -0.07  -0.00   0.12    -0.03  -0.28  -0.17
   6   6     0.11  -0.00   0.06    -0.07   0.02  -0.03    -0.06  -0.15  -0.14
   7   6     0.08  -0.01   0.11    -0.04   0.00  -0.11    -0.00  -0.03   0.04
   8   6     0.00  -0.02  -0.05     0.01   0.02   0.02     0.08  -0.09   0.01
   9   6     0.01   0.00  -0.25     0.00  -0.01   0.13     0.07  -0.19   0.05
  10   9    -0.13  -0.05   0.09     0.09   0.09   0.05     0.33  -0.03  -0.09
  11   6     0.09  -0.01   0.14    -0.05  -0.01  -0.15    -0.03   0.13   0.13
  12   6     0.19   0.02   0.10    -0.14  -0.03  -0.11     0.01   0.15   0.12
  13   6     0.20   0.06  -0.00    -0.15  -0.04   0.00     0.04  -0.00  -0.01
  14   6     0.13   0.04  -0.06    -0.08  -0.01   0.07     0.02  -0.15  -0.10
  15   6     0.04  -0.01  -0.03     0.01   0.01   0.02    -0.04   0.01  -0.00
  16   6     0.03  -0.03   0.09     0.01   0.01  -0.10    -0.06   0.16   0.12
  17   6    -0.04   0.03   0.00     0.03  -0.01  -0.01    -0.04   0.03   0.03
  18   8    -0.20   0.01   0.02     0.06   0.01   0.06    -0.13  -0.03  -0.13
  19   8    -0.10  -0.05  -0.03     0.06  -0.07  -0.01    -0.15   0.18   0.06
  20   1    -0.18   0.28   0.17    -0.01   0.46  -0.02    -0.01   0.22   0.01
  21   1     0.13  -0.11  -0.11     0.52  -0.13  -0.17     0.08   0.14   0.09
  22   1    -0.38  -0.25   0.05    -0.22  -0.32   0.09    -0.06   0.12  -0.03
  23   1     0.05   0.02  -0.02    -0.03   0.00   0.06    -0.02  -0.10  -0.08
  24   1     0.04   0.00   0.05    -0.03   0.00  -0.02    -0.04  -0.04  -0.06
  25   1    -0.00  -0.00  -0.10     0.01  -0.00   0.05     0.04  -0.06   0.03
  26   1     0.08   0.00   0.04    -0.06  -0.01  -0.04     0.01   0.06   0.05
  27   1     0.08   0.03  -0.01    -0.06  -0.02   0.01     0.02  -0.01  -0.01
  28   1     0.04   0.02  -0.04    -0.03  -0.00   0.04     0.01  -0.10  -0.07
  29   1    -0.01  -0.01  -0.03     0.02   0.01   0.02    -0.02  -0.01  -0.01
  30   1    -0.01  -0.02   0.03     0.02   0.01  -0.04    -0.03   0.06   0.05
  31   1    -0.06  -0.03  -0.01     0.03  -0.02   0.01    -0.07   0.06  -0.02
                     10                     11                     12
                        a                      a                      a 
 Frequencies --   209.2328               239.4165               253.0839
 Red. masses --    12.1656                11.4525                13.0206
 Frc consts  --     0.0000                 0.0000                 0.0000
 IR Inten    --     1.0354                 4.0502                 3.5597
 Raman Activ --     0.0000                 0.0000                 0.0000
 Depolar     --     0.0000                 0.0000                 0.0000
 Atom AN      X      Y      Z        X      Y      Z        X      Y      Z
   1   6     0.18  -0.20  -0.06    -0.33   0.17   0.02    -0.07   0.05  -0.06
   2   6     0.03   0.07   0.00    -0.04  -0.10  -0.09    -0.14  -0.10  -0.04
   3   1     0.02   0.03   0.02    -0.00  -0.04  -0.05    -0.05  -0.03  -0.03
   4   6     0.01   0.13   0.05    -0.05  -0.00   0.06    -0.15  -0.03   0.10
   5   6     0.08  -0.03  -0.33    -0.04  -0.02  -0.01    -0.11  -0.04   0.13
   6   6     0.06  -0.04  -0.15    -0.04   0.09   0.14    -0.09  -0.08   0.06
   7   6    -0.02   0.02   0.14    -0.01   0.10   0.11     0.05  -0.05  -0.06
   8   6    -0.06   0.04   0.11    -0.01   0.14   0.19    -0.05  -0.01   0.03
   9   6    -0.08   0.19   0.31    -0.03   0.15   0.40    -0.08   0.06   0.16
  10   9    -0.12  -0.21  -0.43     0.17   0.09  -0.29    -0.43  -0.29  -0.03
  11   6    -0.03   0.04   0.19     0.03  -0.11  -0.04     0.09   0.17  -0.12
  12   6     0.05   0.06   0.15     0.06  -0.19  -0.08     0.07   0.27  -0.06
  13   6     0.07   0.03   0.00     0.04  -0.04   0.00     0.09   0.11   0.01
  14   6    -0.02  -0.04  -0.09     0.02   0.17   0.10     0.24  -0.15  -0.03
  15   6    -0.11  -0.01  -0.02     0.04  -0.04   0.01     0.28   0.03   0.02
  16   6    -0.12   0.04   0.13     0.06  -0.20  -0.07     0.24   0.25  -0.01
  17   6    -0.01   0.04   0.01     0.02  -0.11  -0.08    -0.04  -0.08  -0.03
  18   8    -0.03   0.09   0.16     0.12  -0.15  -0.21     0.12  -0.08  -0.08
  19   8     0.06  -0.11  -0.02     0.03  -0.02  -0.06     0.03   0.01   0.01
  20   1     0.05  -0.03  -0.04    -0.11   0.10   0.08    -0.02   0.04  -0.03
  21   1     0.10  -0.10  -0.09    -0.09   0.06   0.04     0.01   0.02   0.01
  22   1     0.05  -0.13   0.06    -0.18   0.06  -0.07    -0.03   0.02  -0.03
  23   1     0.04  -0.04  -0.20    -0.01  -0.03  -0.07    -0.02  -0.00   0.04
  24   1     0.04  -0.03  -0.08    -0.02   0.03   0.03    -0.04  -0.02   0.01
  25   1    -0.04   0.08   0.13    -0.00   0.05   0.16    -0.01   0.02   0.07
  26   1     0.03   0.02   0.06     0.02  -0.08  -0.03     0.00   0.10  -0.02
  27   1     0.04   0.01  -0.01     0.01  -0.01   0.00    -0.01   0.03   0.02
  28   1    -0.00  -0.03  -0.06    -0.00   0.12   0.06     0.08  -0.12  -0.02
  29   1    -0.05  -0.01  -0.02     0.01  -0.00   0.01     0.10  -0.01   0.01
  30   1    -0.06   0.01   0.05     0.02  -0.08  -0.03     0.10   0.12  -0.01
  31   1     0.02  -0.05   0.02     0.02   0.01  -0.02     0.06   0.02   0.01
                     13                     14                     15
                        a                      a                      a 
 Frequencies --   285.5060               300.1868               370.7403
 Red. masses --    12.4426                11.9319                 9.5901
 Frc consts  --     0.0000                 0.0000                 0.0000
 IR Inten    --     4.9865                 1.3978                 0.4537
 Raman Activ --     0.0000                 0.0000                 0.0000
 Depolar     --     0.0000                 0.0000                 0.0000
 Atom AN      X      Y      Z        X      Y      Z        X      Y      Z
   1   6     0.03   0.15   0.21     0.27   0.06  -0.00     0.06  -0.00   0.01
   2   6     0.25  -0.09   0.10    -0.11  -0.15   0.09     0.05   0.01   0.02
   3   1     0.13  -0.05   0.00    -0.02  -0.07  -0.01     0.00   0.01   0.01
   4   6     0.19   0.19  -0.04    -0.12   0.01  -0.04     0.06  -0.11  -0.13
   5   6     0.17   0.20  -0.05    -0.12  -0.01  -0.13     0.00  -0.10  -0.20
   6   6     0.17   0.07  -0.02    -0.11   0.05  -0.14    -0.05   0.09   0.20
   7   6     0.02  -0.03  -0.02    -0.04   0.15   0.04    -0.00   0.09   0.13
   8   6     0.05  -0.02   0.01    -0.10   0.15  -0.11     0.07   0.01   0.05
   9   6     0.07   0.14  -0.01    -0.06   0.01  -0.22     0.07  -0.03  -0.01
  10   9    -0.23  -0.20   0.04    -0.24   0.18  -0.07    -0.07  -0.11   0.04
  11   6    -0.05   0.03  -0.02     0.02  -0.02   0.15    -0.01   0.12  -0.06
  12   6    -0.16   0.05   0.03     0.17  -0.14   0.04    -0.01  -0.34  -0.25
  13   6    -0.17  -0.00   0.01     0.18  -0.02  -0.02    -0.11   0.26   0.12
  14   6    -0.19  -0.08  -0.04     0.12   0.16   0.04    -0.04   0.06   0.06
  15   6    -0.14   0.03  -0.03     0.03  -0.07   0.00     0.07  -0.35  -0.16
  16   6    -0.14   0.09  -0.03     0.04  -0.17   0.08    -0.01   0.31   0.03
  17   6     0.12  -0.19   0.05    -0.06  -0.17   0.13     0.04   0.04   0.04
  18   8     0.13  -0.34  -0.29     0.15  -0.23  -0.08    -0.07   0.04   0.06
  19   8    -0.05   0.02   0.10    -0.10   0.17   0.28    -0.04   0.05   0.03
  20   1    -0.01   0.10   0.11     0.07   0.08  -0.11     0.02  -0.01  -0.01
  21   1     0.04   0.05   0.10     0.17   0.02   0.05     0.02  -0.00   0.00
  22   1    -0.06   0.04  -0.00     0.10   0.00   0.03     0.03  -0.00   0.01
  23   1     0.06   0.06  -0.01    -0.04  -0.00  -0.04    -0.01  -0.05  -0.10
  24   1     0.09   0.00   0.01    -0.05   0.02  -0.07    -0.03   0.05   0.10
  25   1    -0.01   0.06  -0.01     0.01  -0.02  -0.09     0.03  -0.01   0.01
  26   1    -0.07   0.03   0.00     0.08  -0.08   0.02    -0.00  -0.22  -0.13
  27   1    -0.04   0.00   0.00     0.07  -0.01  -0.01    -0.06   0.16   0.08
  28   1    -0.05  -0.05  -0.02     0.03   0.11   0.02    -0.02   0.04   0.04
  29   1    -0.03   0.01  -0.00    -0.02  -0.03  -0.02     0.05  -0.23  -0.09
  30   1    -0.05   0.03  -0.00     0.00  -0.08   0.02    -0.00   0.19   0.04
  31   1    -0.06   0.03  -0.04     0.02   0.11   0.01    -0.05   0.01  -0.01
                     16                     17                     18
                        a                      a                      a 
 Frequencies --   375.6438               413.8016               444.2966
 Red. masses --    10.6036                11.1566                11.2716
 Frc consts  --     0.0000                 0.0000                 0.0000
 IR Inten    --     1.3695                 2.6978                11.6497
 Raman Activ --     0.0000                 0.0000                 0.0000
 Depolar     --     0.0000                 0.0000                 0.0000
 Atom AN      X      Y      Z        X      Y      Z        X      Y      Z
   1   6    -0.09   0.01  -0.00     0.00  -0.06  -0.21     0.11   0.06   0.29
   2   6    -0.05  -0.01  -0.01    -0.10  -0.02  -0.13     0.11   0.01   0.20
   3   1     0.00  -0.01  -0.01     0.01  -0.03  -0.07     0.00   0.03   0.10
   4   6    -0.06   0.15   0.19    -0.03   0.05  -0.24     0.03  -0.11  -0.01
   5   6     0.00   0.14   0.26     0.11   0.01  -0.18    -0.05  -0.12  -0.15
   6   6     0.07  -0.11  -0.29     0.08   0.05   0.32    -0.10   0.15   0.19
   7   6     0.01  -0.13  -0.22     0.02  -0.18  -0.13    -0.05  -0.01  -0.22
   8   6    -0.08  -0.02  -0.09    -0.06  -0.12  -0.17    -0.07  -0.04  -0.41
   9   6    -0.09   0.04   0.03    -0.12   0.11   0.12    -0.08  -0.05   0.16
  10   9     0.13   0.20  -0.04     0.20   0.14   0.04    -0.19   0.20   0.03
  11   6    -0.00  -0.19   0.09     0.03  -0.24  -0.10    -0.02  -0.12   0.03
  12   6     0.09  -0.22   0.05    -0.01   0.05   0.02     0.04   0.00   0.06
  13   6     0.05   0.28   0.12    -0.01   0.10   0.04     0.06   0.04  -0.01
  14   6     0.03  -0.09  -0.09     0.02  -0.16  -0.07     0.08  -0.03  -0.04
  15   6    -0.05  -0.16  -0.06    -0.01   0.10   0.04    -0.00   0.03   0.04
  16   6    -0.10   0.22   0.26    -0.00   0.04   0.02     0.00  -0.06   0.09
  17   6    -0.04  -0.05  -0.05    -0.09  -0.13   0.10     0.13   0.13  -0.04
  18   8     0.08  -0.04  -0.09     0.04  -0.12   0.11    -0.04   0.07  -0.15
  19   8     0.06  -0.08  -0.06    -0.13   0.22   0.27     0.11  -0.21  -0.22
  20   1    -0.03   0.01   0.02     0.00  -0.02  -0.10     0.03   0.03   0.08
  21   1    -0.03   0.00   0.00     0.02  -0.03  -0.08     0.03   0.03   0.11
  22   1    -0.04   0.00  -0.01     0.03  -0.03  -0.02     0.03   0.03   0.06
  23   1     0.01   0.07   0.14     0.06   0.02  -0.06    -0.04  -0.05  -0.03
  24   1     0.03  -0.05  -0.14     0.04   0.05   0.23    -0.06   0.10   0.19
  25   1    -0.04   0.02  -0.00    -0.08   0.09   0.14    -0.02   0.03   0.19
  26   1     0.06  -0.12   0.01    -0.01   0.06   0.03     0.03   0.01   0.04
  27   1     0.02   0.18   0.07    -0.01   0.08   0.04     0.02   0.03   0.00
  28   1     0.01  -0.06  -0.06     0.01  -0.09  -0.04     0.02  -0.02  -0.02
  29   1    -0.04  -0.09  -0.05    -0.01   0.08   0.04    -0.03   0.04   0.01
  30   1    -0.06   0.15   0.12    -0.01   0.06   0.03    -0.01  -0.00   0.04
  31   1     0.06  -0.02   0.01     0.02   0.14  -0.01    -0.07  -0.15   0.01
                     19                     20                     21
                        a                      a                      a 
 Frequencies --   481.6300               495.5351               536.4380
 Red. masses --    10.8713                12.5228                10.1245
 Frc consts  --     0.0000                 0.0000                 0.0000
 IR Inten    --     7.3242                13.1500                24.1493
 Raman Activ --     0.0000                 0.0000                 0.0000
 Depolar     --     0.0000                 0.0000                 0.0000
 Atom AN      X      Y      Z        X      Y      Z        X      Y      Z
   1   6     0.07   0.01   0.12     0.06   0.02   0.11     0.02   0.03   0.13
   2   6     0.08   0.02   0.08    -0.01   0.05   0.09    -0.29  -0.05   0.16
   3   1     0.02   0.02   0.04     0.03   0.01   0.04    -0.07  -0.01   0.06
   4   6     0.02  -0.04  -0.07    -0.05   0.26  -0.03    -0.20   0.13   0.17
   5   6     0.06  -0.05  -0.03    -0.18   0.27  -0.20     0.10  -0.11  -0.15
   6   6     0.05  -0.01   0.03    -0.18  -0.06   0.05     0.11  -0.12   0.16
   7   6    -0.10   0.02   0.25    -0.26  -0.13   0.09     0.20  -0.00   0.19
   8   6    -0.25   0.15   0.40    -0.09  -0.29   0.05     0.08   0.01  -0.10
   9   6    -0.16  -0.18  -0.17    -0.15   0.09  -0.09     0.04   0.13  -0.17
  10   9    -0.03   0.19  -0.17     0.37  -0.18   0.12     0.06   0.05   0.04
  11   6    -0.01  -0.32  -0.23    -0.19   0.10  -0.01     0.18  -0.00  -0.06
  12   6     0.01   0.03  -0.13     0.04   0.08  -0.16    -0.00  -0.03   0.03
  13   6    -0.02   0.17   0.05     0.06  -0.00  -0.10    -0.04  -0.03   0.11
  14   6     0.11  -0.22  -0.06     0.22   0.08   0.06    -0.19  -0.06   0.00
  15   6     0.04   0.14   0.11     0.09  -0.09   0.08    -0.03   0.05  -0.06
  16   6     0.04   0.02  -0.05     0.04  -0.01   0.06    -0.01   0.06  -0.17
  17   6     0.10   0.04   0.03    -0.03   0.01   0.01    -0.32   0.03  -0.06
  18   8    -0.01  -0.01  -0.07     0.06  -0.02  -0.14     0.11   0.09  -0.17
  19   8     0.02  -0.06  -0.03     0.04  -0.11  -0.03     0.05  -0.19  -0.07
  20   1     0.02   0.00   0.03     0.02   0.02   0.01     0.00   0.04  -0.06
  21   1     0.02   0.00   0.04     0.03   0.00   0.04     0.06   0.02   0.10
  22   1     0.03   0.00   0.04     0.02   0.00   0.04     0.04   0.02   0.05
  23   1     0.02  -0.03  -0.05    -0.02   0.09  -0.08     0.10  -0.01  -0.12
  24   1     0.03  -0.04  -0.07     0.03  -0.05   0.03     0.02  -0.03   0.03
  25   1    -0.05  -0.09  -0.18    -0.15   0.07  -0.06     0.03   0.02  -0.07
  26   1    -0.01   0.09  -0.00     0.04  -0.01  -0.04    -0.05   0.01  -0.01
  27   1    -0.05   0.14   0.07    -0.03  -0.05  -0.02     0.01   0.02   0.03
  28   1     0.03  -0.09  -0.02     0.06   0.03   0.02    -0.05  -0.01  -0.00
  29   1     0.00   0.14   0.08     0.00  -0.05  -0.01     0.03   0.02   0.02
  30   1     0.03   0.09   0.00     0.07  -0.01  -0.02    -0.03   0.02  -0.03
  31   1    -0.08  -0.06  -0.01     0.02  -0.06   0.04     0.31  -0.06   0.18
                     22                     23                     24
                        a                      a                      a 
 Frequencies --   544.1414               587.2244               600.8184
 Red. masses --    11.5529                11.1684                 9.7349
 Frc consts  --     0.0000                 0.0000                 0.0000
 IR Inten    --    11.5886                 1.6091                46.9488
 Raman Activ --     0.0000                 0.0000                 0.0000
 Depolar     --     0.0000                 0.0000                 0.0000
 Atom AN      X      Y      Z        X      Y      Z        X      Y      Z
   1   6    -0.01  -0.01  -0.01    -0.01  -0.00  -0.03    -0.05   0.01  -0.06
   2   6     0.03   0.09  -0.01     0.04   0.00  -0.03     0.15   0.01  -0.09
   3   1     0.02   0.02  -0.01     0.01  -0.00  -0.02     0.05  -0.02  -0.06
   4   6     0.01   0.00   0.05     0.02   0.01   0.07     0.13   0.09   0.47
   5   6     0.30  -0.14   0.08    -0.02   0.01   0.01     0.11  -0.06  -0.11
   6   6     0.28  -0.11   0.05    -0.02   0.01  -0.05     0.07   0.22  -0.03
   7   6    -0.00  -0.17   0.08    -0.02   0.04   0.04    -0.15   0.16   0.19
   8   6    -0.30  -0.06  -0.08     0.03  -0.03  -0.14    -0.01  -0.12  -0.27
   9   6    -0.30  -0.20   0.06     0.02   0.00   0.03     0.01  -0.21   0.01
  10   9    -0.05   0.32  -0.10    -0.03   0.01   0.02    -0.06  -0.02   0.08
  11   6    -0.04   0.29   0.04    -0.00   0.04  -0.16    -0.13  -0.04  -0.02
  12   6    -0.03   0.14  -0.05     0.32   0.14  -0.25    -0.06  -0.03  -0.10
  13   6    -0.01  -0.16  -0.08     0.33  -0.08   0.32    -0.07   0.10  -0.10
  14   6    -0.02   0.20   0.12     0.01  -0.10   0.16     0.14  -0.05  -0.04
  15   6     0.05  -0.16  -0.07    -0.34  -0.15   0.29     0.05   0.04   0.06
  16   6     0.01   0.15  -0.04    -0.31   0.07  -0.28     0.04  -0.09   0.07
  17   6     0.02  -0.02   0.05     0.04  -0.02  -0.01    -0.11  -0.12  -0.12
  18   8     0.03  -0.07  -0.07    -0.01  -0.01   0.04    -0.01  -0.03   0.15
  19   8    -0.01  -0.03   0.06     0.00   0.03  -0.00    -0.08   0.09  -0.06
  20   1    -0.00  -0.02   0.01    -0.01  -0.00   0.02    -0.02  -0.00   0.10
  21   1    -0.02  -0.01  -0.04    -0.02  -0.00  -0.02    -0.06  -0.00  -0.05
  22   1     0.00  -0.02   0.02    -0.02  -0.00  -0.02    -0.08  -0.01  -0.07
  23   1     0.11  -0.03   0.02    -0.02  -0.01  -0.01    -0.01  -0.10  -0.15
  24   1     0.10  -0.04   0.03    -0.01   0.00  -0.02     0.03   0.03  -0.07
  25   1    -0.10  -0.04   0.02     0.01   0.00   0.02     0.01  -0.08  -0.06
  26   1    -0.01  -0.04  -0.06     0.04   0.06  -0.10     0.01   0.01   0.00
  27   1    -0.01  -0.16  -0.06     0.04  -0.03   0.12    -0.05   0.06   0.00
  28   1    -0.01   0.05   0.04     0.00   0.04  -0.10     0.04  -0.01   0.02
  29   1     0.05  -0.16  -0.06    -0.05  -0.04   0.12    -0.02   0.05   0.02
  30   1     0.03  -0.03  -0.06    -0.03   0.05  -0.10     0.03   0.01   0.02
  31   1    -0.03  -0.02   0.01    -0.05   0.01  -0.04     0.32   0.17   0.01
                     25                     26                     27
                        a                      a                      a 
 Frequencies --   613.5522               636.4036               667.0674
 Red. masses --     7.8759                 9.8399                 9.9963
 Frc consts  --     0.0000                 0.0000                 0.0000
 IR Inten    --    93.9627                83.9317                 6.2264
 Raman Activ --     0.0000                 0.0000                 0.0000
 Depolar     --     0.0000                 0.0000                 0.0000
 Atom AN      X      Y      Z        X      Y      Z        X      Y      Z
   1   6    -0.08   0.00  -0.20    -0.04   0.02  -0.12    -0.02   0.00  -0.03
   2   6    -0.06   0.23  -0.07    -0.02   0.32  -0.01    -0.01   0.01  -0.01
   3   1    -0.05   0.05  -0.07    -0.03   0.08  -0.04    -0.01  -0.00  -0.02
   4   6    -0.09   0.10   0.32     0.09  -0.14  -0.13    -0.00   0.05   0.20
   5   6    -0.04  -0.06  -0.04     0.05  -0.04   0.05    -0.02  -0.04  -0.12
   6   6    -0.05  -0.03   0.02     0.03   0.19  -0.08    -0.03   0.12   0.09
   7   6     0.02   0.09   0.18    -0.05   0.07  -0.14     0.01  -0.01  -0.18
   8   6     0.06  -0.07  -0.22     0.04   0.06   0.10     0.04   0.08   0.13
   9   6     0.02   0.01  -0.03     0.05  -0.11   0.06     0.08  -0.03  -0.10
  10   9     0.02  -0.01   0.07    -0.01  -0.12   0.01    -0.01  -0.05   0.01
  11   6     0.06  -0.01   0.00    -0.08  -0.00   0.00     0.03  -0.41  -0.17
  12   6    -0.02  -0.08   0.02     0.02   0.01  -0.05    -0.02   0.26   0.13
  13   6    -0.05   0.05   0.02     0.03   0.02  -0.02     0.06  -0.29  -0.14
  14   6    -0.05  -0.06  -0.05     0.07  -0.01   0.00    -0.00   0.25   0.10
  15   6     0.05   0.09  -0.04    -0.05  -0.03   0.08    -0.00  -0.32  -0.10
  16   6     0.06  -0.04  -0.04    -0.05  -0.04   0.04    -0.06   0.23   0.16
  17   6     0.12   0.08   0.19    -0.07   0.15   0.25    -0.05  -0.01  -0.01
  18   8     0.09  -0.07  -0.22     0.06  -0.02  -0.37     0.03   0.01  -0.00
  19   8     0.11  -0.09   0.22    -0.17  -0.23   0.24     0.04   0.00   0.02
  20   1    -0.01  -0.06  -0.03     0.00  -0.06  -0.02    -0.01  -0.00   0.01
  21   1    -0.06  -0.04  -0.18    -0.05  -0.04  -0.17    -0.02  -0.00  -0.02
  22   1     0.00  -0.06   0.03     0.03  -0.06   0.07    -0.01  -0.01  -0.01
  23   1    -0.00  -0.05  -0.11    -0.05  -0.03   0.07    -0.02  -0.04  -0.08
  24   1    -0.02  -0.02  -0.06    -0.01   0.07   0.01    -0.02   0.04   0.01
  25   1     0.02  -0.02  -0.05     0.03  -0.03   0.05     0.04  -0.03  -0.07
  26   1    -0.02  -0.00   0.01     0.02   0.00  -0.00    -0.02   0.21   0.10
  27   1    -0.00   0.05   0.01    -0.01   0.00   0.00     0.01   0.01   0.00
  28   1    -0.01  -0.02   0.01     0.02   0.00  -0.02    -0.02   0.20   0.08
  29   1     0.02   0.06   0.01    -0.03  -0.00   0.01    -0.02   0.00   0.00
  30   1    -0.00   0.00   0.00     0.00  -0.01   0.01    -0.03   0.21   0.11
  31   1    -0.54  -0.22  -0.06     0.36  -0.07   0.32    -0.07  -0.02  -0.02
                     28                     29                     30
                        a                      a                      a 
 Frequencies --   683.8579               689.5609               727.9479
 Red. masses --     9.9826                10.2389                11.4643
 Frc consts  --     0.0000                 0.0000                 0.0000
 IR Inten    --    77.0492                30.2708                26.1836
 Raman Activ --     0.0000                 0.0000                 0.0000
 Depolar     --     0.0000                 0.0000                 0.0000
 Atom AN      X      Y      Z        X      Y      Z        X      Y      Z
   1   6    -0.03  -0.01   0.00    -0.01  -0.02   0.04    -0.02  -0.00  -0.05
   2   6    -0.15  -0.09   0.04    -0.18  -0.12   0.06    -0.03  -0.03  -0.01
   3   1    -0.02  -0.03   0.01    -0.03  -0.03   0.04    -0.03   0.00   0.01
   4   6    -0.01   0.02   0.14     0.00  -0.13  -0.31    -0.08   0.02   0.05
   5   6     0.19  -0.09  -0.10     0.16   0.02   0.20     0.03  -0.11   0.05
   6   6     0.16   0.24   0.08     0.20   0.09  -0.24    -0.00  -0.33   0.14
   7   6     0.00  -0.06  -0.36    -0.06   0.20   0.36     0.12  -0.11   0.06
   8   6     0.02   0.11   0.24     0.06  -0.08  -0.25     0.19   0.07  -0.04
   9   6     0.06  -0.08  -0.11     0.01   0.05   0.16     0.25   0.27  -0.07
  10   9     0.01  -0.08   0.00     0.03  -0.09   0.05    -0.12   0.20  -0.07
  11   6    -0.16   0.14   0.07    -0.10  -0.12  -0.06    -0.19  -0.03  -0.02
  12   6    -0.01  -0.01  -0.12    -0.07   0.06  -0.10    -0.12   0.08  -0.18
  13   6    -0.02   0.14  -0.05    -0.06  -0.03  -0.16    -0.13   0.10  -0.25
  14   6     0.15  -0.03  -0.01     0.12   0.03   0.01     0.27   0.04   0.02
  15   6    -0.10   0.03   0.18    -0.01  -0.11   0.05    -0.12  -0.11   0.23
  16   6    -0.07  -0.11   0.07    -0.03  -0.01   0.08    -0.11  -0.08   0.17
  17   6    -0.35  -0.05  -0.09    -0.24   0.01  -0.04     0.26   0.07   0.08
  18   8     0.11   0.09   0.02     0.06   0.09  -0.01    -0.08  -0.03  -0.02
  19   8     0.19   0.02   0.04     0.11  -0.01   0.03    -0.08  -0.02  -0.02
  20   1    -0.01   0.03  -0.05    -0.00   0.03  -0.10    -0.00  -0.00  -0.03
  21   1     0.03   0.01   0.05     0.06   0.02   0.09    -0.00  -0.00  -0.01
  22   1     0.00   0.02  -0.01     0.03   0.03   0.01     0.00  -0.00  -0.01
  23   1     0.04  -0.03  -0.00     0.04   0.03   0.11     0.09   0.00  -0.04
  24   1     0.04   0.08   0.07     0.05   0.03  -0.06     0.01  -0.11   0.02
  25   1     0.04  -0.03  -0.03     0.01   0.03   0.11     0.13   0.04  -0.03
  26   1     0.04  -0.11  -0.06    -0.02   0.13   0.03     0.02   0.00  -0.03
  27   1    -0.03  -0.07  -0.04    -0.07   0.09   0.02    -0.12  -0.02  -0.04
  28   1     0.05  -0.10  -0.07     0.02   0.11   0.07     0.07  -0.02  -0.00
  29   1    -0.06  -0.08  -0.02    -0.05   0.08   0.04    -0.12  -0.04   0.00
  30   1     0.02  -0.14  -0.04     0.01   0.11   0.05     0.02  -0.04   0.01
  31   1    -0.30  -0.11  -0.06    -0.18  -0.09  -0.01     0.08   0.02   0.02
                     31                     32                     33
                        a                      a                      a 
 Frequencies --   759.1062               765.4287               834.6424
 Red. masses --     5.9814                10.3998                 5.6545
 Frc consts  --     0.0000                 0.0000                 0.0000
 IR Inten    --    19.7624                45.9311                 4.8008
 Raman Activ --     0.0000                 0.0000                 0.0000
 Depolar     --     0.0000                 0.0000                 0.0000
 Atom AN      X      Y      Z        X      Y      Z        X      Y      Z
   1   6     0.03   0.02   0.02     0.07   0.03   0.05    -0.01   0.07   0.08
   2   6     0.14   0.11  -0.02     0.29   0.18  -0.05    -0.10   0.25   0.04
   3   1     0.06   0.01  -0.04     0.13   0.00  -0.08    -0.06   0.06  -0.02
   4   6     0.06   0.02   0.02     0.17  -0.06  -0.11    -0.10   0.05   0.13
   5   6    -0.02  -0.03  -0.04    -0.16   0.03   0.00     0.03  -0.14  -0.15
   6   6    -0.06  -0.20   0.04    -0.18  -0.26   0.04     0.03  -0.05  -0.20
   7   6     0.03  -0.11  -0.10     0.00  -0.04   0.15     0.02   0.10   0.15
   8   6    -0.00   0.01   0.09     0.07  -0.01  -0.04     0.00   0.06   0.07
   9   6     0.03  -0.02  -0.04     0.13   0.01   0.04    -0.00  -0.03  -0.22
  10   9    -0.06   0.10  -0.06    -0.12   0.17  -0.07     0.04  -0.07  -0.00
  11   6    -0.05   0.33   0.15     0.02  -0.17  -0.08     0.01  -0.08  -0.04
  12   6     0.01  -0.14  -0.08    -0.02   0.07   0.03    -0.02   0.02  -0.01
  13   6     0.00  -0.07  -0.05    -0.02   0.04   0.00    -0.03   0.03  -0.02
  14   6     0.04  -0.16  -0.07    -0.00   0.08   0.04     0.02   0.04   0.02
  15   6    -0.00  -0.09  -0.02     0.01   0.04   0.01    -0.00   0.01   0.02
  16   6     0.01  -0.16  -0.07    -0.00   0.07   0.03    -0.01  -0.01  -0.01
  17   6    -0.22  -0.06  -0.06    -0.52  -0.09  -0.10     0.08  -0.14  -0.07
  18   8     0.07   0.01   0.01     0.15   0.07  -0.01     0.02  -0.17   0.07
  19   8     0.05   0.01   0.04     0.11   0.02   0.12     0.03   0.02  -0.13
  20   1     0.01  -0.02   0.09     0.01  -0.04   0.17     0.01  -0.06   0.02
  21   1    -0.04  -0.01  -0.05    -0.07  -0.01  -0.09    -0.03  -0.03  -0.12
  22   1    -0.02  -0.02   0.00    -0.05  -0.03  -0.01     0.05  -0.05   0.16
  23   1    -0.00   0.03   0.08    -0.06   0.01   0.04    -0.04   0.12   0.41
  24   1    -0.02  -0.02   0.12    -0.04  -0.08   0.01    -0.06   0.15   0.35
  25   1    -0.00   0.02   0.06     0.04   0.01   0.04    -0.03   0.14   0.37
  26   1    -0.03   0.22   0.09     0.01  -0.10  -0.04    -0.00  -0.02  -0.01
  27   1    -0.05   0.31   0.14     0.01  -0.14  -0.06    -0.01  -0.05  -0.03
  28   1    -0.04   0.37   0.16     0.02  -0.17  -0.07     0.02  -0.08  -0.02
  29   1    -0.05   0.31   0.14     0.02  -0.14  -0.06     0.00  -0.04  -0.01
  30   1    -0.03   0.23   0.10     0.01  -0.09  -0.04    -0.01   0.02   0.01
  31   1    -0.02  -0.00  -0.01    -0.06  -0.04   0.03     0.02   0.11  -0.15
                     34                     35                     36
                        a                      a                      a 
 Frequencies --   851.3674               873.9296               877.9927
 Red. masses --     7.8686                 3.2846                 3.2768
 Frc consts  --     0.0000                 0.0000                 0.0000
 IR Inten    --    51.9969                 1.6961                 1.6602
 Raman Activ --     0.0000                 0.0000                 0.0000
 Depolar     --     0.0000                 0.0000                 0.0000
 Atom AN      X      Y      Z        X      Y      Z        X      Y      Z
   1   6     0.03   0.12   0.24    -0.00   0.00   0.01    -0.00   0.00  -0.00
   2   6    -0.11   0.40   0.04    -0.00   0.02  -0.00    -0.00   0.01   0.00
   3   1    -0.05   0.09  -0.03    -0.00   0.01   0.01    -0.00   0.01   0.01
   4   6    -0.12  -0.06  -0.18    -0.01   0.00   0.00     0.00   0.00   0.01
   5   6     0.02  -0.10   0.18     0.01  -0.05  -0.11    -0.00  -0.03  -0.11
   6   6    -0.01   0.07   0.13     0.02  -0.06  -0.15     0.00  -0.03  -0.09
   7   6     0.06   0.03  -0.11     0.01   0.00  -0.00     0.00   0.00   0.01
   8   6     0.01   0.04  -0.06     0.00  -0.01  -0.03     0.00  -0.01  -0.02
   9   6    -0.06   0.11   0.09    -0.03   0.11   0.30    -0.01   0.06   0.18
  10   9     0.07  -0.09   0.05     0.01  -0.00   0.02    -0.01   0.01   0.00
  11   6     0.01   0.02   0.01     0.01  -0.00  -0.00    -0.01  -0.01  -0.00
  12   6    -0.01  -0.01  -0.00    -0.02   0.10   0.04     0.03  -0.18  -0.08
  13   6    -0.01   0.00  -0.03    -0.02   0.11   0.04     0.03  -0.17  -0.07
  14   6     0.03  -0.01  -0.01     0.01   0.02   0.01     0.00   0.01   0.00
  15   6    -0.04  -0.02   0.04     0.01  -0.10  -0.03    -0.01   0.18   0.07
  16   6    -0.02   0.00   0.03     0.01  -0.14  -0.07    -0.02   0.17   0.07
  17   6    -0.04  -0.21  -0.11    -0.00  -0.01  -0.00     0.00  -0.01  -0.00
  18   8     0.07  -0.22   0.09     0.00  -0.01   0.00     0.00  -0.01   0.00
  19   8     0.06   0.03  -0.16     0.00   0.00  -0.01     0.00  -0.00  -0.00
  20   1     0.04  -0.09   0.04     0.00  -0.01   0.00    -0.00  -0.00  -0.00
  21   1    -0.03  -0.05  -0.17     0.00  -0.00  -0.01     0.00  -0.00  -0.00
  22   1     0.11  -0.09   0.29     0.01  -0.00   0.01     0.00  -0.00   0.01
  23   1     0.03  -0.13  -0.24    -0.02   0.06   0.17    -0.02   0.06   0.17
  24   1    -0.03  -0.06  -0.27    -0.04   0.13   0.35    -0.01   0.07   0.22
  25   1     0.02  -0.06  -0.20     0.06  -0.22  -0.58     0.04  -0.13  -0.35
  26   1    -0.00   0.01   0.01     0.03  -0.20  -0.08    -0.06   0.36   0.15
  27   1    -0.01   0.03   0.01     0.02  -0.22  -0.10    -0.04   0.32   0.15
  28   1     0.00   0.03   0.00     0.01  -0.04  -0.01     0.00  -0.02  -0.00
  29   1    -0.02  -0.00   0.00    -0.02   0.18   0.08     0.05  -0.34  -0.16
  30   1     0.00  -0.03  -0.01    -0.04   0.26   0.12     0.03  -0.34  -0.14
  31   1     0.02   0.15  -0.20     0.00   0.01  -0.01     0.00   0.00  -0.00
                     37                     38                     39
                        a                      a                      a 
 Frequencies --   903.4675               924.5273               928.9895
 Red. masses --     3.6933                 4.7470                 8.7368
 Frc consts  --     0.0000                 0.0000                 0.0000
 IR Inten    --     0.4709                24.7877                65.9447
 Raman Activ --     0.0000                 0.0000                 0.0000
 Depolar     --     0.0000                 0.0000                 0.0000
 Atom AN      X      Y      Z        X      Y      Z        X      Y      Z
   1   6    -0.01   0.00  -0.00    -0.09   0.02  -0.03    -0.17   0.05  -0.02
   2   6    -0.01   0.01   0.01    -0.11   0.04   0.06    -0.26   0.07   0.13
   3   1    -0.01   0.00   0.00    -0.05   0.03   0.04    -0.12   0.05   0.07
   4   6     0.01  -0.00   0.01     0.12  -0.02   0.02     0.25  -0.04   0.03
   5   6    -0.01  -0.00  -0.08     0.01   0.04  -0.30    -0.06   0.34   0.01
   6   6    -0.01   0.01   0.01    -0.01   0.07   0.23     0.02  -0.06  -0.09
   7   6    -0.01   0.00   0.04    -0.05  -0.05   0.02    -0.12  -0.12   0.03
   8   6     0.01   0.00  -0.01     0.07  -0.08  -0.02     0.15  -0.14   0.08
   9   6     0.02   0.00   0.03     0.09  -0.07   0.12     0.23  -0.22   0.07
  10   9    -0.00   0.01  -0.00    -0.08   0.09  -0.04    -0.17   0.21  -0.09
  11   6     0.01  -0.08  -0.04    -0.04   0.03   0.01    -0.08  -0.01  -0.00
  12   6    -0.03   0.22   0.10     0.03  -0.10  -0.07     0.04   0.07  -0.03
  13   6    -0.01  -0.02  -0.01     0.01   0.07   0.07     0.05  -0.06   0.06
  14   6     0.04  -0.29  -0.13    -0.05   0.07   0.03    -0.08  -0.03  -0.01
  15   6     0.01  -0.04  -0.02     0.04  -0.13  -0.10     0.05   0.10  -0.05
  16   6    -0.03   0.23   0.09     0.01   0.06   0.06     0.05  -0.06   0.02
  17   6     0.00  -0.01  -0.00     0.02  -0.03  -0.01     0.02  -0.06  -0.04
  18   8     0.00  -0.01   0.00     0.00  -0.03   0.01     0.01  -0.07   0.02
  19   8     0.00  -0.00  -0.01     0.01  -0.01  -0.03     0.03  -0.02  -0.06
  20   1    -0.00  -0.00  -0.01    -0.01  -0.00  -0.13    -0.02   0.00  -0.27
  21   1     0.00  -0.00  -0.01     0.04  -0.01  -0.00     0.07  -0.02  -0.03
  22   1     0.01  -0.00   0.01     0.05  -0.00   0.07     0.12  -0.02   0.17
  23   1    -0.02   0.05   0.12    -0.06   0.20   0.46    -0.01  -0.01  -0.27
  24   1     0.02  -0.01  -0.00     0.12  -0.19  -0.41     0.14  -0.01   0.22
  25   1     0.02  -0.02  -0.04     0.05  -0.06  -0.05     0.09  -0.06   0.06
  26   1     0.07  -0.43  -0.18    -0.02   0.17   0.07     0.02  -0.05  -0.03
  27   1    -0.01   0.09   0.04     0.03  -0.13  -0.05     0.01   0.03   0.03
  28   1    -0.06   0.45   0.21     0.01  -0.14  -0.06    -0.03   0.04   0.02
  29   1    -0.01   0.14   0.06    -0.02   0.25   0.10     0.04  -0.09  -0.06
  30   1     0.05  -0.43  -0.19     0.03  -0.10  -0.04     0.00   0.08   0.05
  31   1     0.00   0.00  -0.01     0.00   0.02  -0.04     0.00   0.05  -0.08
                     40                     41                     42
                        a                      a                      a 
 Frequencies --   929.9334               931.3125               961.3291
 Red. masses --     3.9467                 2.9794                11.2162
 Frc consts  --     0.0000                 0.0000                 0.0000
 IR Inten    --     0.2837                 0.1199                 7.7053
 Raman Activ --     0.0000                 0.0000                 0.0000
 Depolar     --     0.0000                 0.0000                 0.0000
 Atom AN      X      Y      Z        X      Y      Z        X      Y      Z
   1   6     0.01   0.00   0.01     0.00   0.00   0.00     0.05   0.00   0.02
   2   6     0.00  -0.00  -0.00    -0.00  -0.00   0.00     0.04  -0.00  -0.03
   3   1    -0.00  -0.00  -0.01    -0.00  -0.00  -0.00     0.02  -0.01  -0.04
   4   6    -0.01  -0.00   0.00     0.00  -0.00   0.00    -0.10  -0.01  -0.01
   5   6    -0.02   0.05   0.15    -0.01   0.02   0.04     0.11  -0.22   0.08
   6   6     0.01  -0.05  -0.15     0.00  -0.02  -0.04     0.03   0.02  -0.01
   7   6    -0.00   0.00  -0.00     0.00  -0.00  -0.00    -0.21  -0.03  -0.01
   8   6    -0.00   0.01   0.03    -0.00   0.00   0.01     0.04  -0.05   0.02
   9   6     0.00  -0.01  -0.04     0.00  -0.01  -0.01     0.10   0.24  -0.08
  10   9    -0.00  -0.00  -0.00     0.00   0.00   0.00    -0.01   0.02  -0.01
  11   6    -0.01  -0.01   0.00    -0.00   0.06   0.03    -0.29  -0.03  -0.02
  12   6     0.03  -0.20  -0.09    -0.01   0.08   0.04     0.17   0.18  -0.33
  13   6    -0.02   0.20   0.10     0.02  -0.23  -0.11     0.13  -0.10   0.24
  14   6     0.00   0.00   0.00    -0.02   0.23   0.11    -0.35  -0.04  -0.02
  15   6     0.04  -0.22  -0.11     0.02  -0.16  -0.07     0.14   0.12  -0.23
  16   6    -0.02   0.22   0.09    -0.01   0.03  -0.00     0.16  -0.14   0.35
  17   6    -0.01   0.00  -0.00    -0.00  -0.00  -0.00    -0.00   0.01   0.01
  18   8     0.00   0.00   0.00     0.00  -0.00   0.00    -0.00   0.01   0.00
  19   8     0.00  -0.00   0.00     0.00  -0.00  -0.00    -0.00   0.01   0.00
  20   1     0.00   0.00   0.01     0.00   0.00  -0.00     0.01  -0.01   0.09
  21   1    -0.01  -0.00  -0.01    -0.00  -0.00  -0.00    -0.03  -0.00  -0.02
  22   1    -0.00  -0.00   0.00     0.00  -0.00   0.00    -0.03  -0.01  -0.02
  23   1     0.02  -0.10  -0.28     0.01  -0.03  -0.08     0.04  -0.05   0.04
  24   1    -0.02   0.10   0.28    -0.00   0.03   0.09    -0.01   0.01   0.00
  25   1    -0.00   0.01   0.03     0.00   0.00   0.01     0.03   0.06  -0.03
  26   1    -0.05   0.31   0.13     0.04  -0.25  -0.10     0.03   0.03  -0.11
  27   1     0.04  -0.32  -0.14    -0.06   0.47   0.21     0.01  -0.02   0.08
  28   1     0.00  -0.01  -0.00     0.06  -0.47  -0.21    -0.09  -0.01  -0.00
  29   1    -0.04   0.36   0.16    -0.04   0.37   0.17     0.01   0.04  -0.07
  30   1     0.03  -0.36  -0.15     0.02  -0.16  -0.07     0.02  -0.05   0.10
  31   1    -0.00  -0.00   0.00    -0.00   0.00  -0.00     0.00  -0.01   0.01
                     43                     44                     45
                        a                      a                      a 
 Frequencies --  1025.8537              1031.4608              1066.2473
 Red. masses --     5.4505                10.5319                 4.6651
 Frc consts  --     0.0000                 0.0000                 0.0000
 IR Inten    --    56.9768                14.0255                64.3760
 Raman Activ --     0.0000                 0.0000                 0.0000
 Depolar     --     0.0000                 0.0000                 0.0000
 Atom AN      X      Y      Z        X      Y      Z        X      Y      Z
   1   6     0.17   0.17   0.22     0.05   0.04   0.07    -0.30   0.12   0.05
   2   6    -0.15  -0.30  -0.16    -0.04  -0.09  -0.05     0.22  -0.15  -0.02
   3   1    -0.20  -0.19  -0.43    -0.06  -0.05  -0.12     0.31  -0.18  -0.15
   4   6    -0.07  -0.07   0.01     0.01   0.00  -0.00     0.08   0.08   0.04
   5   6     0.01   0.10  -0.05    -0.12   0.28  -0.11     0.02  -0.13   0.04
   6   6     0.09   0.09  -0.02     0.00  -0.10   0.04    -0.06  -0.05   0.01
   7   6    -0.11  -0.09   0.03     0.36   0.09   0.00     0.02   0.04  -0.01
   8   6     0.06  -0.10   0.04    -0.07   0.23  -0.09    -0.06   0.02  -0.02
   9   6     0.08   0.03  -0.00    -0.18  -0.29   0.09    -0.03   0.04  -0.03
  10   9    -0.05   0.07  -0.03     0.07  -0.12   0.05     0.02  -0.03   0.01
  11   6    -0.05   0.00   0.01     0.19   0.02   0.01     0.01  -0.00  -0.00
  12   6    -0.03  -0.05   0.10     0.11   0.15  -0.30     0.00   0.00  -0.01
  13   6     0.02  -0.00   0.01    -0.09   0.02  -0.08    -0.00  -0.00   0.00
  14   6     0.06   0.01   0.01    -0.20  -0.02  -0.02     0.00  -0.00   0.00
  15   6     0.03   0.01  -0.01    -0.10  -0.04   0.07    -0.00   0.00  -0.00
  16   6    -0.03   0.04  -0.11     0.10  -0.13   0.32     0.00  -0.00   0.01
  17   6     0.05   0.06   0.05     0.02   0.02   0.01    -0.03   0.00   0.07
  18   8    -0.04   0.07   0.00    -0.01   0.02   0.00    -0.01  -0.01   0.05
  19   8    -0.02   0.08  -0.05    -0.01   0.02  -0.01     0.00   0.19  -0.17
  20   1     0.06  -0.16   0.29     0.02  -0.04   0.08    -0.03  -0.04  -0.42
  21   1    -0.15  -0.06  -0.29    -0.04  -0.01  -0.06     0.14  -0.05  -0.10
  22   1    -0.01  -0.13   0.20    -0.00  -0.03   0.05     0.23  -0.04   0.35
  23   1    -0.01   0.04   0.02     0.03   0.12  -0.04    -0.03  -0.06   0.03
  24   1     0.14  -0.03   0.01     0.01  -0.03   0.01    -0.13   0.04  -0.01
  25   1     0.04  -0.00   0.00     0.05  -0.12   0.05    -0.08   0.04  -0.01
  26   1     0.01  -0.01   0.04    -0.04   0.05  -0.13    -0.01   0.00  -0.01
  27   1     0.03   0.01  -0.01    -0.11  -0.02   0.01    -0.01  -0.00   0.00
  28   1     0.02  -0.00   0.01    -0.06  -0.00  -0.01     0.00   0.00  -0.00
  29   1     0.04  -0.00   0.01    -0.12  -0.00  -0.03    -0.01   0.00  -0.01
  30   1     0.02   0.04  -0.04    -0.04  -0.06   0.12    -0.02  -0.02   0.01
  31   1    -0.02  -0.12   0.14    -0.01  -0.03   0.04    -0.01  -0.22   0.28
                     46                     47                     48
                        a                      a                      a 
 Frequencies --  1084.3335              1097.5004              1114.8906
 Red. masses --     6.9160                 9.7089                 5.9972
 Frc consts  --     0.0000                 0.0000                 0.0000
 IR Inten    --     2.4747               170.8918                36.7763
 Raman Activ --     0.0000                 0.0000                 0.0000
 Depolar     --     0.0000                 0.0000                 0.0000
 Atom AN      X      Y      Z        X      Y      Z        X      Y      Z
   1   6    -0.01   0.01  -0.01    -0.07  -0.09   0.36     0.03  -0.13   0.11
   2   6     0.01  -0.00   0.02    -0.01   0.01  -0.48    -0.03   0.18  -0.21
   3   1    -0.00   0.00   0.01     0.08  -0.04  -0.18     0.13   0.02  -0.02
   4   6     0.00  -0.01   0.00     0.02   0.05   0.05    -0.14   0.02  -0.01
   5   6    -0.01  -0.04   0.01     0.01  -0.03  -0.00     0.03   0.06  -0.02
   6   6     0.00   0.04  -0.02    -0.03  -0.02  -0.00    -0.01  -0.12   0.04
   7   6    -0.03  -0.02   0.01    -0.01   0.03  -0.01    -0.12   0.05  -0.02
   8   6     0.02  -0.07   0.03     0.02  -0.01  -0.00    -0.08   0.22  -0.09
   9   6     0.02   0.05  -0.01     0.01  -0.03   0.00     0.01  -0.09   0.03
  10   9    -0.02   0.03  -0.01    -0.01   0.00  -0.00     0.06  -0.10   0.04
  11   6     0.03   0.00   0.00    -0.01  -0.00  -0.01    -0.21  -0.00  -0.07
  12   6     0.16   0.01   0.00    -0.00  -0.00   0.01    -0.10  -0.06   0.12
  13   6    -0.05   0.14  -0.33     0.01   0.00  -0.00     0.10  -0.03   0.09
  14   6    -0.44  -0.04  -0.03    -0.01  -0.00  -0.00    -0.00   0.03  -0.07
  15   6    -0.07  -0.16   0.33     0.00  -0.00   0.01     0.02  -0.01   0.02
  16   6     0.16   0.01   0.02     0.01   0.00   0.00     0.05   0.01  -0.02
  17   6    -0.00  -0.00   0.00     0.06   0.07  -0.15     0.00  -0.03   0.09
  18   8     0.00  -0.00   0.00    -0.04   0.24  -0.11     0.02  -0.13   0.05
  19   8     0.00   0.01  -0.01    -0.05  -0.26   0.36    -0.00   0.15  -0.13
  20   1    -0.00  -0.00  -0.01    -0.00   0.02  -0.15    -0.01   0.06   0.00
  21   1    -0.00  -0.00  -0.01     0.15  -0.01   0.20     0.06   0.02   0.19
  22   1     0.00  -0.00   0.00     0.13   0.02   0.17    -0.00   0.04  -0.06
  23   1    -0.04  -0.04   0.01     0.03   0.02   0.02     0.16   0.12  -0.02
  24   1     0.00   0.02   0.01    -0.05   0.01   0.00     0.16  -0.10   0.07
  25   1    -0.06   0.04  -0.02     0.01  -0.01   0.02     0.43  -0.20   0.13
  26   1     0.25  -0.00   0.13     0.01  -0.00   0.01    -0.05  -0.02   0.02
  27   1     0.25   0.13  -0.22     0.02   0.01  -0.01     0.18   0.04  -0.04
  28   1    -0.13  -0.01  -0.02    -0.00   0.00  -0.01     0.00   0.07  -0.15
  29   1     0.23  -0.08   0.25     0.01  -0.00   0.01    -0.01  -0.00  -0.00
  30   1     0.29   0.07  -0.11     0.01   0.00  -0.01     0.23   0.08  -0.11
  31   1    -0.00  -0.01   0.01     0.01   0.24  -0.27    -0.02  -0.14   0.18
                     49                     50                     51
                        a                      a                      a 
 Frequencies --  1122.2782              1127.1830              1166.4132
 Red. masses --     5.4905                 6.8290                 3.9120
 Frc consts  --     0.0000                 0.0000                 0.0000
 IR Inten    --    38.3487               117.3620                 8.0751
 Raman Activ --     0.0000                 0.0000                 0.0000
 Depolar     --     0.0000                 0.0000                 0.0000
 Atom AN      X      Y      Z        X      Y      Z        X      Y      Z
   1   6    -0.04   0.14  -0.13     0.06  -0.17   0.17    -0.01  -0.02   0.01
   2   6     0.07  -0.17   0.23    -0.13   0.18  -0.28     0.06   0.04  -0.01
   3   1     0.00  -0.05   0.04    -0.15   0.09  -0.05     0.22  -0.06  -0.02
   4   6     0.04  -0.01  -0.01     0.08  -0.01   0.03    -0.16  -0.04   0.01
   5   6     0.02  -0.02   0.01    -0.04  -0.03   0.00    -0.17  -0.01  -0.01
   6   6    -0.01  -0.04   0.01     0.02   0.09  -0.04     0.16   0.17  -0.05
   7   6     0.00   0.04   0.01     0.08  -0.02   0.03     0.04  -0.20   0.08
   8   6    -0.04   0.03  -0.01     0.15  -0.24   0.10    -0.07  -0.05   0.01
   9   6    -0.03   0.03  -0.01     0.04  -0.00   0.00    -0.03   0.15  -0.06
  10   9     0.02  -0.02   0.01    -0.08   0.13  -0.05     0.02   0.02  -0.00
  11   6    -0.01   0.06  -0.13     0.17   0.05  -0.06     0.17   0.03   0.04
  12   6    -0.19  -0.07   0.10    -0.08  -0.01  -0.00     0.03   0.02  -0.03
  13   6     0.09  -0.05   0.14    -0.01  -0.02   0.04    -0.05   0.01  -0.04
  14   6     0.02   0.07  -0.15     0.01   0.03  -0.07    -0.00   0.00  -0.00
  15   6    -0.09  -0.06   0.10    -0.09  -0.05   0.08    -0.05  -0.02   0.02
  16   6     0.18  -0.03   0.12     0.11  -0.03   0.11     0.03  -0.01   0.02
  17   6    -0.01   0.03  -0.06     0.01  -0.05   0.04    -0.03   0.03   0.12
  18   8    -0.02   0.12  -0.04     0.02  -0.15   0.05    -0.00   0.02  -0.02
  19   8     0.01  -0.14   0.10    -0.02   0.17  -0.10     0.02  -0.03  -0.05
  20   1     0.01  -0.06  -0.01    -0.01   0.07   0.02    -0.01   0.03  -0.04
  21   1    -0.05  -0.02  -0.20     0.05   0.02   0.22     0.02   0.00   0.03
  22   1     0.01  -0.05   0.07    -0.01   0.06  -0.09     0.01   0.02  -0.01
  23   1     0.01  -0.01   0.00    -0.12  -0.08   0.01    -0.54  -0.31   0.05
  24   1     0.01  -0.01   0.03    -0.08   0.07  -0.02     0.40  -0.11   0.07
  25   1    -0.07   0.04  -0.02    -0.34   0.14  -0.08     0.25  -0.07   0.05
  26   1    -0.30  -0.00  -0.12    -0.20   0.01  -0.12    -0.08   0.02  -0.06
  27   1     0.19   0.04  -0.03     0.02   0.01   0.00    -0.06  -0.01   0.01
  28   1     0.01   0.17  -0.37     0.01   0.09  -0.19    -0.00  -0.01   0.03
  29   1    -0.23   0.01  -0.09    -0.18   0.01  -0.07    -0.09   0.01  -0.04
  30   1     0.32   0.07  -0.10     0.09  -0.00   0.01     0.00   0.01   0.02
  31   1     0.02   0.14  -0.18    -0.03  -0.18   0.23     0.01   0.07  -0.09
                     52                     53                     54
                        a                      a                      a 
 Frequencies --  1179.8298              1187.5297              1199.8880
 Red. masses --     1.3760                 6.9806                 2.6229
 Frc consts  --     0.0000                 0.0000                 0.0000
 IR Inten    --     1.4236               124.7475                16.6355
 Raman Activ --     0.0000                 0.0000                 0.0000
 Depolar     --     0.0000                 0.0000                 0.0000
 Atom AN      X      Y      Z        X      Y      Z        X      Y      Z
   1   6    -0.01   0.01   0.01     0.04  -0.09  -0.04     0.01   0.05  -0.01
   2   6     0.01  -0.01  -0.01    -0.11   0.06   0.10     0.01  -0.01  -0.02
   3   1    -0.05   0.03   0.02     0.28  -0.22  -0.29     0.06   0.04   0.13
   4   6     0.02  -0.01   0.01    -0.06   0.07  -0.05    -0.09   0.02  -0.02
   5   6     0.01  -0.00   0.00     0.03   0.01  -0.00    -0.00   0.01  -0.00
   6   6    -0.01  -0.01   0.00    -0.02   0.03  -0.01     0.02   0.06  -0.02
   7   6     0.01   0.01  -0.01    -0.01   0.01  -0.00    -0.05  -0.07   0.02
   8   6     0.00   0.03  -0.01     0.07  -0.19   0.08    -0.01  -0.11   0.04
   9   6    -0.01   0.00  -0.00     0.04  -0.10   0.05     0.01   0.01  -0.01
  10   9     0.01  -0.01   0.00    -0.05   0.07  -0.03    -0.01   0.04  -0.01
  11   6    -0.02   0.03  -0.07     0.06   0.02  -0.02     0.08   0.03  -0.02
  12   6     0.08   0.00   0.01    -0.01   0.00  -0.01    -0.10   0.02  -0.07
  13   6     0.03   0.00   0.00     0.00   0.01  -0.02     0.07   0.03  -0.06
  14   6    -0.00  -0.03   0.07     0.00  -0.00   0.01     0.04   0.00   0.00
  15   6    -0.04   0.01  -0.03    -0.01  -0.01   0.03     0.05  -0.03   0.09
  16   6    -0.07  -0.01  -0.01     0.01  -0.01   0.02    -0.06  -0.04   0.07
  17   6     0.01  -0.01  -0.05    -0.12   0.10   0.50     0.06  -0.03  -0.18
  18   8     0.00  -0.00   0.01     0.00   0.01  -0.05    -0.01   0.00   0.02
  19   8    -0.01   0.01   0.03     0.09  -0.05  -0.29    -0.03   0.01   0.10
  20   1     0.00  -0.00  -0.00    -0.01   0.03   0.03     0.01  -0.02   0.02
  21   1     0.00  -0.00  -0.00    -0.00   0.01   0.06    -0.01  -0.00  -0.04
  22   1     0.00  -0.00   0.01    -0.04   0.02  -0.10     0.01  -0.02   0.04
  23   1     0.01   0.00  -0.00     0.16   0.10  -0.02     0.04   0.03  -0.00
  24   1     0.01  -0.01   0.01    -0.24   0.11  -0.06    -0.09   0.06  -0.04
  25   1    -0.04   0.02  -0.01     0.04  -0.05   0.02     0.18  -0.07   0.05
  26   1    -0.09   0.01  -0.06    -0.08   0.01  -0.05    -0.41   0.04  -0.26
  27   1     0.37   0.12  -0.17     0.09   0.03  -0.05     0.40   0.14  -0.19
  28   1    -0.01  -0.28   0.63    -0.00  -0.02   0.05     0.01  -0.01   0.02
  29   1    -0.43   0.06  -0.25    -0.03   0.00  -0.01     0.26  -0.04   0.17
  30   1     0.17   0.06  -0.09    -0.06  -0.03   0.03    -0.40  -0.13   0.20
  31   1    -0.00  -0.02   0.03     0.04   0.19  -0.29    -0.01  -0.06   0.09
                     55                     56                     57
                        a                      a                      a 
 Frequencies --  1207.7216              1249.3079              1255.7091
 Red. masses --     5.6557                 5.8375                 5.9892
 Frc consts  --     0.0000                 0.0000                 0.0000
 IR Inten    --    72.7575                 6.8483                68.8326
 Raman Activ --     0.0000                 0.0000                 0.0000
 Depolar     --     0.0000                 0.0000                 0.0000
 Atom AN      X      Y      Z        X      Y      Z        X      Y      Z
   1   6    -0.03  -0.09   0.03     0.07  -0.02   0.03    -0.13  -0.06   0.02
   2   6     0.01   0.01   0.01    -0.26  -0.02   0.00     0.42  -0.04   0.00
   3   1    -0.25  -0.01  -0.20    -0.08  -0.02  -0.05    -0.57   0.15  -0.12
   4   6     0.23  -0.08   0.05     0.39   0.18  -0.04    -0.07  -0.15   0.06
   5   6     0.02  -0.02   0.01     0.14   0.06  -0.01     0.05   0.10  -0.03
   6   6    -0.04  -0.16   0.06     0.01  -0.13   0.05    -0.04   0.13  -0.06
   7   6     0.01   0.11  -0.05     0.10  -0.15   0.07    -0.03  -0.24   0.09
   8   6    -0.04   0.33  -0.12    -0.20   0.10  -0.06    -0.09  -0.01  -0.00
   9   6    -0.01   0.04  -0.02    -0.01   0.07  -0.03    -0.06   0.17  -0.07
  10   9     0.06  -0.11   0.04     0.05  -0.05   0.02     0.02   0.00   0.00
  11   6    -0.16  -0.02  -0.01    -0.15  -0.01   0.02     0.08   0.00   0.06
  12   6    -0.07   0.00  -0.02    -0.04  -0.00  -0.01     0.03   0.00  -0.00
  13   6     0.08   0.00   0.02     0.03  -0.01   0.03    -0.02   0.01  -0.03
  14   6     0.04   0.00   0.01     0.01   0.00   0.00    -0.01   0.00  -0.01
  15   6     0.07   0.02  -0.01     0.02   0.02  -0.04    -0.02  -0.01   0.01
  16   6    -0.09  -0.02   0.01    -0.02   0.00  -0.01     0.02   0.01  -0.01
  17   6    -0.10   0.04   0.25     0.04  -0.01  -0.02    -0.14   0.02   0.16
  18   8     0.01  -0.02  -0.02    -0.01   0.01  -0.00     0.03  -0.03  -0.01
  19   8     0.04  -0.01  -0.13    -0.01   0.00   0.00     0.03  -0.00  -0.06
  20   1    -0.01   0.03  -0.07     0.01   0.02   0.04    -0.02   0.01  -0.16
  21   1     0.03  -0.00   0.08    -0.05   0.00  -0.00     0.08  -0.02   0.05
  22   1     0.00   0.03  -0.05    -0.04  -0.00  -0.05     0.06   0.04   0.01
  23   1    -0.13  -0.10   0.02    -0.38  -0.26   0.05     0.10   0.08  -0.02
  24   1     0.29  -0.18   0.09    -0.47   0.18  -0.10    -0.17   0.11  -0.05
  25   1    -0.32   0.15  -0.09     0.22  -0.07   0.05     0.24  -0.06   0.05
  26   1    -0.11   0.01  -0.06     0.01  -0.00   0.01    -0.08   0.02  -0.05
  27   1     0.21   0.06  -0.08     0.04   0.01  -0.01    -0.06  -0.01   0.02
  28   1     0.01  -0.01   0.02     0.00   0.00  -0.01    -0.00   0.00  -0.00
  29   1     0.23  -0.03   0.12     0.05   0.00   0.01    -0.02   0.00  -0.00
  30   1    -0.15  -0.04   0.06     0.09   0.02  -0.05     0.05   0.01  -0.02
  31   1     0.02   0.08  -0.12    -0.01  -0.02   0.01     0.02   0.05  -0.07
                     58                     59                     60
                        a                      a                      a 
 Frequencies --  1282.3190              1298.9175              1305.8051
 Red. masses --     3.4993                 7.7664                 9.0564
 Frc consts  --     0.0000                 0.0000                 0.0000
 IR Inten    --     1.3902                82.6314                49.2838
 Raman Activ --     0.0000                 0.0000                 0.0000
 Depolar     --     0.0000                 0.0000                 0.0000
 Atom AN      X      Y      Z        X      Y      Z        X      Y      Z
   1   6     0.01   0.01  -0.01     0.02   0.14   0.04    -0.05  -0.11  -0.04
   2   6    -0.03   0.02  -0.00     0.10  -0.19  -0.33     0.12   0.18   0.28
   3   1     0.11  -0.02   0.02     0.05   0.18   0.47     0.05  -0.14  -0.35
   4   6    -0.04  -0.04   0.01    -0.18  -0.03   0.03    -0.24  -0.15   0.01
   5   6    -0.03   0.02  -0.01    -0.06   0.12  -0.05    -0.06   0.14  -0.06
   6   6    -0.01   0.04  -0.01     0.11   0.03  -0.00     0.08   0.11  -0.02
   7   6     0.07  -0.03  -0.01     0.29  -0.06   0.05     0.34  -0.14   0.09
   8   6     0.07   0.02   0.00     0.15  -0.01   0.01     0.23   0.00   0.02
   9   6    -0.00  -0.03   0.01    -0.07  -0.10   0.02    -0.15  -0.05   0.01
  10   9    -0.01   0.01  -0.00    -0.02   0.03  -0.01    -0.02   0.04  -0.01
  11   6    -0.05  -0.14   0.28    -0.26  -0.02  -0.01    -0.29  -0.03   0.00
  12   6     0.11   0.01   0.02    -0.13   0.01  -0.05    -0.16   0.02  -0.07
  13   6     0.10   0.04  -0.07     0.04  -0.03   0.08     0.05  -0.03   0.09
  14   6     0.02   0.06  -0.14     0.05  -0.01   0.04     0.05  -0.02   0.07
  15   6    -0.07   0.04  -0.12     0.03   0.04  -0.08     0.03   0.05  -0.10
  16   6    -0.17  -0.04   0.04    -0.05  -0.01  -0.00    -0.05  -0.01  -0.01
  17   6     0.01  -0.00  -0.02    -0.13   0.05   0.30     0.10  -0.04  -0.26
  18   8    -0.00   0.00   0.00     0.02  -0.03  -0.02    -0.01   0.02   0.02
  19   8    -0.00   0.00   0.01     0.03   0.01  -0.11    -0.03  -0.01   0.10
  20   1     0.00  -0.00   0.02     0.02  -0.07   0.05    -0.03   0.07  -0.06
  21   1    -0.00   0.00  -0.00     0.01  -0.01  -0.09     0.03  -0.00   0.07
  22   1    -0.00  -0.00   0.00     0.03  -0.05   0.12     0.01   0.06  -0.08
  23   1     0.04   0.03  -0.01    -0.11  -0.02  -0.00    -0.08   0.00  -0.02
  24   1    -0.02   0.02  -0.00    -0.10   0.07  -0.04    -0.06   0.07  -0.04
  25   1    -0.08   0.02  -0.02    -0.10   0.01  -0.00    -0.09  -0.00  -0.02
  26   1    -0.42   0.05  -0.27     0.11  -0.02   0.08     0.13  -0.02   0.09
  27   1    -0.25  -0.08   0.11     0.14   0.03  -0.04     0.17   0.04  -0.05
  28   1     0.00  -0.10   0.21     0.02   0.02  -0.03     0.02   0.02  -0.05
  29   1     0.33  -0.04   0.17     0.07   0.00   0.01     0.07   0.01   0.01
  30   1     0.41   0.14  -0.20     0.05   0.02  -0.03     0.04   0.02  -0.03
  31   1    -0.00  -0.00   0.01     0.01   0.06  -0.08    -0.00  -0.04   0.07
                     61                     62                     63
                        a                      a                      a 
 Frequencies --  1316.6932              1326.9035              1398.8364
 Red. masses --    11.9176                10.9604                 5.2622
 Frc consts  --     0.0000                 0.0000                 0.0000
 IR Inten    --     0.1755                 5.0209                 7.0100
 Raman Activ --     0.0000                 0.0000                 0.0000
 Depolar     --     0.0000                 0.0000                 0.0000
 Atom AN      X      Y      Z        X      Y      Z        X      Y      Z
   1   6    -0.00  -0.00   0.00     0.03   0.03  -0.01     0.09  -0.01   0.34
   2   6     0.01  -0.00   0.00    -0.16   0.01  -0.07     0.05  -0.04  -0.00
   3   1    -0.05   0.01  -0.01     0.24  -0.04   0.09    -0.06   0.03   0.03
   4   6     0.01   0.08  -0.03     0.13  -0.32   0.14    -0.08   0.14  -0.06
   5   6    -0.11  -0.06   0.01     0.33   0.13  -0.01     0.19   0.00   0.02
   6   6     0.09  -0.04   0.03    -0.40   0.13  -0.09    -0.13  -0.08   0.01
   7   6    -0.03   0.10  -0.05    -0.11  -0.34   0.12    -0.03   0.15  -0.06
   8   6    -0.11  -0.04   0.01     0.24   0.25  -0.06     0.24  -0.09   0.06
   9   6     0.12  -0.02   0.02    -0.25   0.14  -0.08    -0.20  -0.06   0.00
  10   9     0.00  -0.01   0.00     0.02  -0.02   0.01    -0.03   0.03  -0.01
  11   6     0.02  -0.18   0.38     0.09  -0.03   0.10     0.01   0.01  -0.05
  12   6    -0.32   0.05  -0.20    -0.05   0.01  -0.04    -0.05  -0.02   0.03
  13   6     0.32   0.11  -0.16     0.04   0.03  -0.07     0.09   0.01  -0.00
  14   6    -0.01  -0.17   0.36    -0.03  -0.05   0.11    -0.00   0.01  -0.03
  15   6    -0.32   0.04  -0.18    -0.06  -0.01  -0.01    -0.09  -0.00  -0.01
  16   6     0.35   0.12  -0.17     0.13   0.04  -0.06     0.05  -0.01   0.03
  17   6    -0.00   0.00   0.00     0.01   0.00   0.02    -0.00   0.01   0.00
  18   8     0.00  -0.00   0.00    -0.00   0.00  -0.00     0.00  -0.01   0.00
  19   8     0.00  -0.00  -0.00    -0.00   0.00  -0.01    -0.00  -0.00   0.00
  20   1    -0.00  -0.00  -0.00     0.01  -0.01   0.04     0.03   0.04  -0.41
  21   1     0.00  -0.00   0.00    -0.02   0.01  -0.00    -0.13  -0.14  -0.41
  22   1     0.00   0.00  -0.00    -0.01  -0.03   0.02    -0.21   0.17  -0.35
  23   1     0.02   0.02  -0.00     0.07   0.02   0.00    -0.08  -0.08   0.03
  24   1     0.02  -0.01   0.00     0.02  -0.03   0.01     0.04  -0.06   0.03
  25   1     0.00   0.01  -0.00    -0.05   0.03  -0.02     0.07  -0.07   0.04
  26   1    -0.01   0.00  -0.01    -0.02   0.01  -0.01     0.00  -0.01   0.02
  27   1     0.02   0.01  -0.02    -0.01   0.00  -0.01    -0.04  -0.02   0.03
  28   1    -0.00   0.01  -0.02    -0.01   0.02  -0.05    -0.00  -0.03   0.07
  29   1    -0.05   0.01  -0.02    -0.08   0.01  -0.04     0.04  -0.01   0.03
  30   1    -0.00  -0.00  -0.00    -0.05  -0.01   0.02    -0.01  -0.01   0.02
  31   1     0.00   0.00  -0.00    -0.00  -0.00   0.00    -0.00   0.00  -0.00
                     64                     65                     66
                        a                      a                      a 
 Frequencies --  1404.5672              1432.9248              1460.2506
 Red. masses --     7.6515                 9.1793                 8.6968
 Frc consts  --     0.0000                 0.0000                 0.0000
 IR Inten    --    27.9642                 7.6017                18.0081
 Raman Activ --     0.0000                 0.0000                 0.0000
 Depolar     --     0.0000                 0.0000                 0.0000
 Atom AN      X      Y      Z        X      Y      Z        X      Y      Z
   1   6     0.07  -0.00   0.23    -0.01  -0.00  -0.01    -0.03  -0.02   0.01
   2   6    -0.09   0.05  -0.05     0.04  -0.03   0.02     0.06   0.01   0.01
   3   1     0.16  -0.02   0.05    -0.07   0.01  -0.01     0.03  -0.00   0.00
   4   6     0.09  -0.22   0.09    -0.05   0.17  -0.07    -0.26  -0.04  -0.01
   5   6    -0.28  -0.02  -0.02     0.11  -0.03   0.02     0.07   0.17  -0.06
   6   6     0.17   0.12  -0.03    -0.09  -0.06   0.01     0.21  -0.14   0.07
   7   6     0.05  -0.21   0.08    -0.03   0.12  -0.08    -0.16  -0.05   0.00
   8   6    -0.32   0.13  -0.08     0.17  -0.04   0.04     0.09   0.19  -0.06
   9   6     0.27   0.08  -0.00    -0.10  -0.08   0.02     0.13  -0.13   0.06
  10   9     0.04  -0.04   0.02    -0.02   0.02  -0.01    -0.00  -0.03   0.01
  11   6    -0.01  -0.02   0.10     0.00  -0.17   0.34    -0.24  -0.02  -0.02
  12   6     0.08   0.03  -0.05     0.25   0.08  -0.10     0.15  -0.07   0.20
  13   6    -0.15  -0.02   0.00    -0.32  -0.00  -0.08     0.19   0.10  -0.18
  14   6     0.00  -0.03   0.07    -0.01  -0.13   0.28    -0.21  -0.01  -0.03
  15   6     0.15   0.01   0.01     0.32   0.05  -0.02     0.17  -0.07   0.21
  16   6    -0.09   0.01  -0.05    -0.24   0.03  -0.14     0.17   0.10  -0.18
  17   6     0.00   0.01  -0.01    -0.00  -0.00   0.00     0.00   0.00  -0.02
  18   8     0.00  -0.02   0.00    -0.00   0.00  -0.00     0.00  -0.00   0.00
  19   8    -0.00   0.00   0.00     0.00  -0.00   0.00    -0.00  -0.00   0.01
  20   1     0.03   0.02  -0.27    -0.00   0.00   0.01    -0.01   0.04   0.05
  21   1    -0.10  -0.09  -0.26     0.01   0.00   0.01     0.05  -0.03  -0.06
  22   1    -0.16   0.10  -0.23     0.01   0.00   0.01     0.08   0.09  -0.03
  23   1     0.17   0.16  -0.03    -0.06  -0.07   0.02    -0.15  -0.06   0.00
  24   1    -0.04   0.08  -0.04     0.03  -0.04   0.01    -0.16   0.06  -0.04
  25   1    -0.10   0.10  -0.05     0.03  -0.05   0.02    -0.15   0.04  -0.03
  26   1    -0.01   0.02  -0.03    -0.10   0.04  -0.13    -0.21   0.01  -0.09
  27   1     0.07   0.03  -0.05     0.13   0.07  -0.13    -0.20  -0.05   0.06
  28   1     0.00   0.06  -0.12     0.00   0.14  -0.30    -0.06  -0.01   0.01
  29   1    -0.06   0.02  -0.06    -0.13   0.05  -0.15    -0.19   0.01  -0.08
  30   1     0.02   0.02  -0.03     0.07   0.06  -0.11    -0.20  -0.05   0.06
  31   1    -0.00  -0.00   0.00     0.00   0.00  -0.00     0.00   0.00   0.00
                     67                     68                     69
                        a                      a                      a 
 Frequencies --  1477.0461              1485.9604              1498.8363
 Red. masses --     1.8943                 1.5983                10.1152
 Frc consts  --     0.0000                 0.0000                 0.0000
 IR Inten    --     3.3985                 4.7420                44.6302
 Raman Activ --     0.0000                 0.0000                 0.0000
 Depolar     --     0.0000                 0.0000                 0.0000
 Atom AN      X      Y      Z        X      Y      Z        X      Y      Z
   1   6    -0.15  -0.14   0.02    -0.14   0.16   0.03    -0.02  -0.01   0.00
   2   6    -0.05  -0.03  -0.01    -0.04   0.04   0.02    -0.07  -0.02  -0.01
   3   1     0.02  -0.00   0.04     0.01  -0.01  -0.03    -0.03   0.00   0.01
   4   6     0.02  -0.01   0.00     0.01   0.00  -0.00     0.30   0.06   0.01
   5   6     0.02   0.00   0.00     0.01   0.01   0.00    -0.16  -0.20   0.06
   6   6    -0.02  -0.00  -0.00    -0.00  -0.01   0.00    -0.17   0.17  -0.07
   7   6    -0.04   0.00  -0.00    -0.01  -0.01   0.00     0.43   0.05   0.02
   8   6    -0.03  -0.00  -0.00    -0.00   0.01  -0.00    -0.05  -0.21   0.07
   9   6     0.02   0.01  -0.00     0.01  -0.01   0.00    -0.20   0.12  -0.07
  10   9     0.00  -0.00   0.00     0.00  -0.00   0.00    -0.00   0.04  -0.01
  11   6     0.09   0.01   0.00     0.02   0.00   0.00    -0.36  -0.04  -0.02
  12   6    -0.03   0.02  -0.05    -0.01   0.00  -0.01     0.06  -0.04   0.13
  13   6    -0.05  -0.03   0.04    -0.01  -0.00   0.01     0.17   0.07  -0.11
  14   6     0.05   0.00   0.01     0.01   0.00   0.00    -0.15  -0.01  -0.02
  15   6    -0.05   0.02  -0.05    -0.01   0.00  -0.01     0.17  -0.04   0.14
  16   6    -0.03  -0.02   0.05    -0.00  -0.00   0.01     0.06   0.06  -0.12
  17   6    -0.00   0.00   0.01     0.01   0.02  -0.01    -0.00  -0.01   0.02
  18   8    -0.00   0.00  -0.00     0.00  -0.02   0.01    -0.00   0.01  -0.00
  19   8     0.00   0.00  -0.01    -0.00   0.00   0.00     0.00   0.00  -0.01
  20   1    -0.09   0.29   0.36     0.10  -0.63   0.11    -0.01   0.01   0.06
  21   1     0.20  -0.18  -0.35     0.64  -0.11  -0.01     0.05  -0.03  -0.05
  22   1     0.50   0.47  -0.10    -0.17   0.11  -0.25     0.06   0.06  -0.02
  23   1     0.01   0.01  -0.00    -0.02  -0.02  -0.01     0.16   0.07  -0.01
  24   1    -0.00  -0.00   0.00    -0.01   0.00   0.00     0.18  -0.05   0.03
  25   1     0.00   0.00  -0.00    -0.00   0.00  -0.00     0.14  -0.05   0.03
  26   1     0.05  -0.00   0.02     0.01  -0.00   0.00    -0.12  -0.00  -0.05
  27   1     0.05   0.01  -0.02     0.01   0.00  -0.00    -0.11  -0.03   0.04
  28   1     0.02   0.00  -0.00     0.00   0.00   0.00    -0.04  -0.01   0.00
  29   1     0.05  -0.00   0.02     0.01  -0.00   0.00    -0.11   0.01  -0.05
  30   1     0.05   0.01  -0.01     0.01   0.00  -0.00    -0.12  -0.02   0.03
  31   1    -0.00   0.00  -0.00    -0.00  -0.00   0.00    -0.00  -0.00  -0.00
                     70                     71                     72
                        a                      a                      a 
 Frequencies --  1563.0523              1582.1859              1595.0967
 Red. masses --    11.6514                11.5127                11.5331
 Frc consts  --     0.0000                 0.0000                 0.0000
 IR Inten    --    28.7854                 2.0396                 9.3821
 Raman Activ --     0.0000                 0.0000                 0.0000
 Depolar     --     0.0000                 0.0000                 0.0000
 Atom AN      X      Y      Z        X      Y      Z        X      Y      Z
   1   6    -0.00   0.00   0.00     0.00  -0.00   0.00     0.00  -0.00   0.00
   2   6    -0.03   0.04  -0.02     0.01  -0.01   0.00     0.01   0.01   0.00
   3   1     0.09  -0.02   0.02    -0.02   0.00  -0.00     0.01  -0.00  -0.00
   4   6     0.06  -0.51   0.20    -0.02   0.10  -0.04    -0.15  -0.03  -0.00
   5   6     0.07   0.27  -0.09    -0.02  -0.06   0.02     0.25   0.10  -0.01
   6   6     0.19  -0.23   0.11    -0.04   0.06  -0.03    -0.25   0.03  -0.03
   7   6    -0.01   0.42  -0.16     0.02  -0.12   0.06     0.21   0.06  -0.00
   8   6    -0.11  -0.27   0.09    -0.01   0.06  -0.02    -0.25  -0.11   0.01
   9   6    -0.18   0.28  -0.12     0.06  -0.06   0.03     0.24  -0.04   0.04
  10   9     0.00   0.01  -0.00     0.00  -0.00   0.00     0.00   0.01  -0.00
  11   6    -0.01   0.01  -0.07    -0.00   0.20  -0.41    -0.26  -0.03  -0.01
  12   6     0.05  -0.02   0.06     0.15  -0.10   0.26     0.34  -0.00   0.11
  13   6     0.02   0.04  -0.07     0.12   0.13  -0.27    -0.34  -0.08   0.07
  14   6    -0.01  -0.06   0.13    -0.01  -0.22   0.50     0.16   0.02   0.00
  15   6     0.00   0.03  -0.06    -0.10   0.11  -0.28    -0.34   0.01  -0.11
  16   6    -0.06  -0.03   0.04    -0.16  -0.12   0.23     0.35   0.07  -0.07
  17   6    -0.01  -0.01   0.00     0.00   0.00  -0.00     0.00   0.02  -0.02
  18   8     0.00   0.00  -0.00     0.00  -0.00   0.00     0.00  -0.01   0.01
  19   8     0.00   0.00  -0.00    -0.00  -0.00   0.00    -0.00  -0.00   0.01
  20   1     0.00  -0.00  -0.00     0.00   0.00   0.00     0.00   0.00  -0.01
  21   1     0.00   0.00   0.01    -0.00  -0.00  -0.00    -0.00   0.00   0.00
  22   1    -0.01  -0.00   0.00     0.00   0.00  -0.00    -0.00  -0.00  -0.00
  23   1    -0.06   0.02  -0.02     0.01  -0.00   0.00    -0.05  -0.05   0.01
  24   1    -0.08   0.00  -0.01     0.01   0.01   0.00     0.05  -0.04   0.02
  25   1     0.09   0.02   0.00    -0.02   0.00  -0.00    -0.04   0.03  -0.01
  26   1    -0.03  -0.00  -0.01    -0.09  -0.01  -0.01    -0.06   0.02  -0.06
  27   1    -0.02   0.00  -0.01    -0.07   0.00  -0.02     0.06   0.03  -0.05
  28   1    -0.00   0.02  -0.04     0.00   0.06  -0.12     0.04   0.00   0.00
  29   1     0.01   0.01  -0.01     0.07   0.02  -0.02     0.06  -0.02   0.06
  30   1     0.03   0.00  -0.01     0.08   0.01   0.00    -0.07  -0.03   0.05
  31   1     0.00  -0.00   0.00    -0.00   0.00  -0.00     0.00   0.00  -0.00
                     73                     74                     75
                        a                      a                      a 
 Frequencies --  1603.4462              1718.4669              2974.5722
 Red. masses --    11.6097                13.2875                 1.7648
 Frc consts  --     0.0000                 0.0000                 0.0000
 IR Inten    --    10.8750               707.7512                24.5618
 Raman Activ --     0.0000                 0.0000                 0.0000
 Depolar     --     0.0000                 0.0000                 0.0000
 Atom AN      X      Y      Z        X      Y      Z        X      Y      Z
   1   6     0.00  -0.00   0.00     0.00  -0.00   0.01     0.01   0.01  -0.00
   2   6     0.02   0.01   0.00     0.00   0.06   0.02    -0.07  -0.23   0.10
   3   1     0.01  -0.00  -0.00    -0.04   0.03   0.04     0.27   0.85  -0.37
   4   6    -0.21  -0.04  -0.01    -0.04  -0.01  -0.00    -0.00  -0.01   0.00
   5   6     0.36   0.14  -0.02     0.02   0.01   0.00    -0.00   0.00  -0.00
   6   6    -0.35   0.05  -0.05    -0.01   0.00  -0.00     0.00  -0.00   0.00
   7   6     0.20   0.06  -0.00     0.00  -0.00   0.00     0.00   0.00  -0.00
   8   6    -0.34  -0.14   0.02    -0.02  -0.00  -0.00    -0.00  -0.00   0.00
   9   6     0.34  -0.06   0.06     0.02  -0.01   0.00     0.00   0.00  -0.00
  10   9     0.01   0.01  -0.00     0.00  -0.00   0.00    -0.00   0.00  -0.00
  11   6     0.12   0.00   0.02     0.00   0.00  -0.00     0.00   0.00  -0.00
  12   6    -0.27   0.01  -0.09    -0.00   0.00  -0.00     0.00   0.00  -0.00
  13   6     0.26   0.06  -0.05     0.00   0.00  -0.00     0.00  -0.00   0.00
  14   6    -0.13  -0.01  -0.02    -0.00  -0.00   0.00     0.00   0.00  -0.00
  15   6     0.27  -0.01   0.09     0.00   0.00  -0.00     0.00   0.00  -0.00
  16   6    -0.26  -0.06   0.05    -0.00  -0.00   0.00     0.00  -0.00   0.00
  17   6    -0.00   0.02  -0.02     0.14  -0.75   0.22    -0.00  -0.01   0.00
  18   8     0.00  -0.02   0.01    -0.10   0.55  -0.17    -0.00   0.00  -0.00
  19   8    -0.00  -0.00   0.01     0.00   0.05  -0.05    -0.00   0.00   0.00
  20   1     0.00   0.00  -0.01     0.00  -0.01  -0.01    -0.03  -0.00  -0.00
  21   1    -0.01   0.00   0.00     0.01  -0.01  -0.01    -0.01  -0.05   0.02
  22   1    -0.01  -0.00  -0.00    -0.01   0.01  -0.02     0.01  -0.01  -0.01
  23   1    -0.06  -0.06   0.02     0.01   0.00  -0.01     0.00  -0.00   0.00
  24   1     0.06  -0.05   0.02     0.00  -0.00   0.00    -0.00   0.00  -0.00
  25   1    -0.05   0.04  -0.02    -0.01   0.00  -0.00    -0.00  -0.01   0.00
  26   1     0.05  -0.01   0.05    -0.00  -0.00  -0.00    -0.00  -0.00   0.00
  27   1    -0.04  -0.02   0.04    -0.00  -0.00  -0.00    -0.00   0.00  -0.00
  28   1    -0.03  -0.00   0.00    -0.00  -0.00   0.00    -0.00  -0.00  -0.00
  29   1    -0.04   0.01  -0.04     0.00  -0.00   0.00    -0.00  -0.00   0.00
  30   1     0.04   0.02  -0.04     0.00  -0.00   0.00    -0.00   0.00  -0.00
  31   1    -0.00   0.00  -0.00    -0.01  -0.04   0.06     0.00  -0.01  -0.01
                     76                     77                     78
                        a                      a                      a 
 Frequencies --  3044.1514              3053.0753              3057.5035
 Red. masses --     1.8684                 1.8122                 1.4827
 Frc consts  --     0.0000                 0.0000                 0.0000
 IR Inten    --    49.9361                29.4662                21.2823
 Raman Activ --     0.0000                 0.0000                 0.0000
 Depolar     --     0.0000                 0.0000                 0.0000
 Atom AN      X      Y      Z        X      Y      Z        X      Y      Z
   1   6    -0.27  -0.07   0.02    -0.09   0.23   0.12    -0.01  -0.17   0.11
   2   6    -0.01  -0.01   0.00     0.00   0.01   0.00    -0.00  -0.01   0.01
   3   1     0.01   0.04  -0.02    -0.01  -0.02   0.01     0.01   0.04  -0.01
   4   6     0.00  -0.00  -0.00     0.00   0.00  -0.00    -0.00  -0.00   0.00
   5   6    -0.00   0.00  -0.00     0.00  -0.00   0.00    -0.01   0.01  -0.00
   6   6    -0.00  -0.00   0.00    -0.00   0.00   0.00    -0.00  -0.00   0.00
   7   6     0.00   0.00  -0.00    -0.00  -0.00   0.00    -0.00   0.00   0.00
   8   6     0.00  -0.00   0.00    -0.00   0.00   0.00    -0.00   0.00  -0.00
   9   6     0.00   0.00  -0.00    -0.00  -0.00   0.00     0.00   0.00  -0.00
  10   9    -0.00   0.00  -0.00     0.00  -0.00   0.00     0.00  -0.00   0.00
  11   6     0.00   0.00  -0.00    -0.00  -0.00  -0.00    -0.00   0.00  -0.00
  12   6     0.00   0.00  -0.00    -0.00  -0.00   0.00    -0.00  -0.00   0.00
  13   6    -0.00   0.00  -0.00    -0.00   0.00  -0.00    -0.00   0.00  -0.00
  14   6    -0.00  -0.00  -0.00    -0.00  -0.00  -0.00    -0.00  -0.00  -0.00
  15   6    -0.00  -0.00   0.00     0.00   0.00  -0.00    -0.00  -0.00   0.00
  16   6     0.00  -0.00   0.00    -0.00   0.00  -0.00    -0.00   0.00  -0.00
  17   6    -0.00  -0.00   0.00     0.00  -0.00  -0.00     0.00  -0.00   0.00
  18   8     0.00  -0.00   0.00     0.00  -0.00   0.00    -0.00   0.00  -0.00
  19   8    -0.00   0.00   0.00     0.00  -0.00   0.00     0.00  -0.00  -0.00
  20   1     0.91   0.18   0.06    -0.09   0.02   0.01    -0.24  -0.07  -0.00
  21   1    -0.00   0.19  -0.06    -0.06  -0.21   0.10     0.16   0.85  -0.30
  22   1     0.03  -0.10  -0.07     0.48  -0.60  -0.52     0.11  -0.17  -0.12
  23   1     0.01  -0.01   0.00    -0.00   0.00  -0.00     0.02  -0.03   0.01
  24   1     0.00   0.00  -0.00    -0.00  -0.00   0.00     0.00   0.01  -0.00
  25   1    -0.00  -0.00   0.00     0.00   0.00  -0.00    -0.00  -0.00   0.00
  26   1    -0.00  -0.00   0.00     0.00   0.00  -0.00     0.00   0.00  -0.00
  27   1     0.00  -0.00   0.00     0.00  -0.00   0.00     0.00  -0.00   0.00
  28   1     0.00   0.00   0.00     0.00   0.00   0.00     0.00   0.00   0.00
  29   1     0.00   0.00  -0.00    -0.00  -0.00   0.00     0.00   0.00  -0.00
  30   1    -0.00   0.00  -0.00     0.00  -0.00   0.00     0.00  -0.00   0.00
  31   1     0.00  -0.00  -0.00    -0.00   0.00   0.00    -0.00   0.00   0.00
                     79                     80                     81
                        a                      a                      a 
 Frequencies --  3076.1862              3077.5858              3084.7444
 Red. masses --     1.7436                 1.7785                 1.8314
 Frc consts  --     0.0000                 0.0000                 0.0000
 IR Inten    --     6.0097                 2.0606                87.5478
 Raman Activ --     0.0000                 0.0000                 0.0000
 Depolar     --     0.0000                 0.0000                 0.0000
 Atom AN      X      Y      Z        X      Y      Z        X      Y      Z
   1   6    -0.00  -0.00   0.00    -0.00  -0.00  -0.00     0.00   0.00  -0.00
   2   6     0.00   0.00   0.00     0.00   0.00  -0.00    -0.00  -0.00  -0.00
   3   1    -0.00  -0.00   0.00    -0.00  -0.00   0.00     0.00   0.00  -0.00
   4   6     0.00  -0.00   0.00     0.00   0.00  -0.00    -0.00   0.00  -0.00
   5   6     0.00  -0.00   0.00     0.00  -0.00   0.00    -0.00   0.00  -0.00
   6   6     0.00   0.00  -0.00     0.00   0.01  -0.00    -0.00  -0.01   0.00
   7   6     0.00  -0.00   0.00     0.00   0.00  -0.00     0.00   0.00   0.00
   8   6    -0.00  -0.00   0.00     0.00  -0.00   0.00     0.00   0.00  -0.00
   9   6     0.00   0.00  -0.00    -0.00  -0.00   0.00    -0.00  -0.00   0.00
  10   9     0.00   0.00   0.00    -0.00  -0.00  -0.00    -0.00  -0.00  -0.00
  11   6     0.01   0.00  -0.00     0.00  -0.00   0.00    -0.01  -0.00  -0.00
  12   6     0.05   0.04  -0.08    -0.05  -0.04   0.08    -0.08  -0.06   0.12
  13   6     0.08  -0.05   0.14    -0.05   0.03  -0.08     0.00  -0.00   0.01
  14   6    -0.13  -0.01  -0.01    -0.05  -0.00  -0.01    -0.16  -0.02  -0.01
  15   6     0.05   0.04  -0.07     0.09   0.07  -0.13    -0.01  -0.01   0.01
  16   6     0.02  -0.01   0.03     0.07  -0.04   0.11    -0.07   0.04  -0.12
  17   6    -0.00  -0.00   0.00    -0.00   0.00  -0.00    -0.00   0.00   0.00
  18   8     0.00   0.00  -0.00     0.00  -0.00   0.00     0.00  -0.00   0.00
  19   8     0.00  -0.00  -0.00     0.00  -0.00   0.00    -0.00   0.00  -0.00
  20   1    -0.00  -0.00   0.00     0.00   0.00   0.00     0.00   0.00   0.00
  21   1     0.00   0.00  -0.00     0.00   0.00  -0.00    -0.00  -0.00   0.00
  22   1     0.00  -0.00  -0.00    -0.00   0.00   0.00    -0.00   0.00   0.00
  23   1    -0.00   0.00  -0.00    -0.00   0.01  -0.00     0.01  -0.01   0.00
  24   1    -0.00  -0.00   0.00    -0.01  -0.02   0.01     0.01   0.02  -0.01
  25   1    -0.00  -0.00   0.00     0.00   0.00  -0.00     0.00   0.00  -0.00
  26   1    -0.19  -0.15   0.29     0.20   0.15  -0.29     0.28   0.22  -0.43
  27   1    -0.31   0.20  -0.52     0.17  -0.10   0.28    -0.02   0.01  -0.03
  28   1     0.49   0.05   0.03     0.17   0.02   0.01     0.57   0.06   0.03
  29   1    -0.18  -0.14   0.27    -0.32  -0.25   0.48     0.03   0.03  -0.05
  30   1    -0.06   0.04  -0.11    -0.24   0.14  -0.40     0.25  -0.16   0.44
  31   1    -0.00   0.00   0.00    -0.00   0.00   0.00     0.00  -0.00  -0.00
                     82                     83                     84
                        a                      a                      a 
 Frequencies --  3088.9589              3095.9618              3098.1622
 Red. masses --     1.8807                 1.7860                 1.9228
 Frc consts  --     0.0000                 0.0000                 0.0000
 IR Inten    --   215.1839                 5.5150                85.1827
 Raman Activ --     0.0000                 0.0000                 0.0000
 Depolar     --     0.0000                 0.0000                 0.0000
 Atom AN      X      Y      Z        X      Y      Z        X      Y      Z
   1   6     0.00   0.00  -0.00    -0.00  -0.01   0.00    -0.00  -0.00   0.00
   2   6    -0.00   0.00  -0.00    -0.00  -0.00   0.00     0.00  -0.00   0.00
   3   1    -0.00  -0.00  -0.00     0.00   0.00  -0.00     0.00   0.00  -0.00
   4   6    -0.00  -0.00  -0.00     0.01  -0.00   0.00     0.00  -0.00   0.00
   5   6    -0.00   0.01  -0.00     0.11  -0.16   0.07     0.01  -0.02   0.01
   6   6    -0.01  -0.01   0.00     0.07   0.14  -0.04     0.00   0.00  -0.00
   7   6    -0.00   0.00  -0.00     0.01   0.00  -0.00    -0.00   0.00  -0.00
   8   6    -0.00   0.00  -0.00    -0.00  -0.00   0.00     0.00  -0.00   0.00
   9   6     0.00   0.00  -0.00    -0.00  -0.01   0.00     0.00   0.00  -0.00
  10   9     0.00   0.00   0.00     0.00   0.00  -0.00    -0.00   0.00  -0.00
  11   6    -0.00  -0.00   0.00     0.00  -0.00  -0.00    -0.01  -0.00  -0.00
  12   6     0.07   0.06  -0.11     0.01   0.00  -0.01    -0.05  -0.04   0.07
  13   6    -0.07   0.04  -0.11    -0.01   0.00  -0.01     0.06  -0.04   0.11
  14   6    -0.01  -0.00   0.00    -0.01  -0.00  -0.00     0.17   0.02   0.01
  15   6     0.07   0.05  -0.10    -0.00  -0.00   0.01     0.07   0.06  -0.11
  16   6    -0.08   0.05  -0.13    -0.00   0.00  -0.01    -0.05   0.03  -0.08
  17   6     0.00  -0.00   0.00    -0.00   0.00   0.00    -0.00   0.00   0.00
  18   8    -0.00   0.00  -0.00     0.00  -0.00  -0.00     0.00  -0.00  -0.00
  19   8     0.00   0.00  -0.00     0.00  -0.00  -0.00     0.00  -0.00  -0.00
  20   1    -0.00   0.00  -0.00     0.00  -0.00   0.00     0.00   0.00   0.00
  21   1    -0.00  -0.00   0.00     0.01   0.03  -0.01     0.00   0.00  -0.00
  22   1     0.00   0.00  -0.00     0.00  -0.01  -0.00    -0.00  -0.00  -0.00
  23   1     0.01  -0.02   0.01    -0.40   0.58  -0.25    -0.04   0.06  -0.02
  24   1     0.02   0.04  -0.01    -0.27  -0.51   0.15    -0.00  -0.01   0.00
  25   1    -0.00  -0.00   0.00     0.01   0.02  -0.01    -0.00  -0.00   0.00
  26   1    -0.24  -0.19   0.37    -0.02  -0.01   0.03     0.15   0.12  -0.23
  27   1     0.22  -0.14   0.38     0.02  -0.01   0.04    -0.21   0.13  -0.36
  28   1     0.05   0.01   0.00     0.05   0.00   0.00    -0.56  -0.05  -0.03
  29   1    -0.22  -0.18   0.33     0.01   0.01  -0.02    -0.23  -0.18   0.35
  30   1     0.26  -0.16   0.44     0.01  -0.01   0.03     0.16  -0.10   0.27
  31   1     0.00  -0.00  -0.00    -0.00   0.00   0.00    -0.00   0.00   0.00
                     85                     86                     87
                        a                      a                      a 
 Frequencies --  3106.3965              3107.9820              3330.7965
 Red. masses --     1.8775                 1.8446                 1.8499
 Frc consts  --     0.0000                 0.0000                 0.0000
 IR Inten    --    50.0044                 8.6071               187.7963
 Raman Activ --     0.0000                 0.0000                 0.0000
 Depolar     --     0.0000                 0.0000                 0.0000
 Atom AN      X      Y      Z        X      Y      Z        X      Y      Z
   1   6     0.00   0.00  -0.00    -0.00   0.00   0.00    -0.00  -0.00  -0.00
   2   6     0.00   0.00  -0.00     0.00   0.00  -0.00    -0.00  -0.00   0.00
   3   1    -0.00  -0.00   0.00    -0.00  -0.01   0.00     0.00   0.01  -0.00
   4   6    -0.00  -0.00   0.00     0.01   0.00   0.00     0.00   0.00   0.00
   5   6    -0.09   0.13  -0.06     0.03  -0.04   0.02    -0.00   0.00  -0.00
   6   6     0.10   0.18  -0.05    -0.02  -0.05   0.01     0.00   0.00  -0.00
   7   6     0.01  -0.00   0.00    -0.00  -0.00   0.00     0.00   0.00  -0.00
   8   6    -0.00   0.00  -0.00    -0.01   0.01  -0.00     0.00  -0.00  -0.00
   9   6     0.03   0.06  -0.02     0.11   0.23  -0.07    -0.00  -0.00   0.00
  10   9     0.00   0.00  -0.00     0.00  -0.00   0.00    -0.00   0.00  -0.00
  11   6    -0.00   0.00  -0.00     0.00   0.00  -0.00    -0.00   0.00  -0.00
  12   6    -0.00  -0.00   0.00     0.00   0.00  -0.00    -0.00  -0.00   0.00
  13   6     0.00  -0.00   0.00    -0.00   0.00  -0.00    -0.00  -0.00  -0.00
  14   6     0.00   0.00   0.00    -0.00  -0.00  -0.00    -0.00  -0.00  -0.00
  15   6     0.00   0.00  -0.00    -0.00  -0.00   0.00    -0.00  -0.00   0.00
  16   6    -0.00   0.00  -0.01     0.00  -0.00   0.00    -0.00   0.00  -0.00
  17   6     0.00   0.00   0.00     0.00  -0.00  -0.00     0.00   0.00  -0.01
  18   8    -0.00  -0.00   0.00    -0.00   0.00  -0.00     0.00  -0.00   0.00
  19   8     0.00   0.00  -0.00     0.00  -0.00  -0.00     0.09  -0.17  -0.13
  20   1    -0.00   0.00  -0.00    -0.00  -0.00  -0.00     0.00   0.00   0.00
  21   1    -0.00  -0.02   0.01     0.00   0.00  -0.00    -0.00  -0.00   0.00
  22   1    -0.00   0.00   0.00     0.00  -0.00  -0.00    -0.00   0.00   0.00
  23   1     0.30  -0.44   0.19    -0.09   0.14  -0.06     0.00  -0.00   0.00
  24   1    -0.33  -0.62   0.19     0.08   0.16  -0.05     0.00   0.00  -0.00
  25   1    -0.11  -0.22   0.07    -0.40  -0.80   0.25     0.00   0.00  -0.00
  26   1     0.00   0.00  -0.01    -0.00  -0.00   0.00     0.00  -0.00  -0.00
  27   1    -0.01   0.00  -0.01     0.00  -0.00   0.01     0.00  -0.00   0.00
  28   1    -0.02  -0.00  -0.00     0.01   0.00   0.00     0.00   0.00   0.00
  29   1    -0.01  -0.01   0.01     0.00   0.00  -0.01     0.00   0.00  -0.00
  30   1     0.02  -0.01   0.03    -0.01   0.00  -0.01     0.00  -0.00   0.00
  31   1     0.00  -0.00   0.00    -0.00   0.00   0.00    -0.35   0.69   0.58
