17
 energy: -20.870212730707 gnorm: 0.024975779557 xtb: 6.7.1 (edcfbbe)
C            2.14116478103834       -0.88070428004686        0.60122757626049
C            1.73498026089367       -0.12693284497317       -0.66266500563669
C            1.18114923409392        1.27515101462758       -0.39110506223092
C           -0.08119639405334        1.36242231752624        0.47226117855865
C           -1.35292533977617        0.81634065614234       -0.14419520409178
Cl          -1.52084729173508       -1.02282530942120        0.00862797329481
H            2.87595960876727       -0.30782769182296        1.17929222268107
H            2.59083512010485       -1.84844050335215        0.35508993577219
H            1.28144232660469       -1.07350976419525        1.25018487020909
H            2.61194302997565       -0.02159659285696       -1.31380345132968
H            1.00311758031565       -0.71652341321210       -1.22636462084412
H            0.97618058841009        1.77204909992612       -1.34839997323225
H            1.96329537426856        1.86638565222521        0.10356934707015
H           -0.29091555314293        2.42658842229158        0.64894774847813
H            0.07600025924187        0.91986796231535        1.46211822400879
H           -2.23998366635597        1.20576473135780        0.35672516385552
H           -1.41618524660500        1.02579537541967       -1.21472888266203
17
 energy: -20.871373434420 gnorm: 0.013678199141 xtb: 6.7.1 (edcfbbe)
C            2.13422435749962       -0.87224833059863        0.60262165998674
C            1.71937142511862       -0.12752803126821       -0.65876762550432
C            1.17911438152584        1.27694138274171       -0.38672897356235
C           -0.08016266803153        1.36701231150765        0.47693426151891
C           -1.34395554231071        0.81671343512361       -0.15129821534616
Cl          -1.47978676684183       -1.00255387996951        0.00231326111055
H            2.86604048444141       -0.29607420363842        1.16969052148769
H            2.58123725988702       -1.83225609107104        0.34588190504297
H            1.27573077863940       -1.06648053544235        1.24332145238978
H            2.59363541152850       -0.02832245558891       -1.30988898624632
H            0.97690339385592       -0.71693687180578       -1.20258558564051
H            0.97461641770051        1.76106748454235       -1.34641451002601
H            1.96336810271749        1.85690239423735        0.10954918201431
H           -0.27721731776720        2.42931616279487        0.65850399230018
H            0.08521813254759        0.90174240892487        1.45080579966236
H           -2.23390505644910        1.18800401078063        0.35288637711829
H           -1.40041812201548        1.01670564068104       -1.22004247614471
17
 energy: -20.871697383340 gnorm: 0.004876134006 xtb: 6.7.1 (edcfbbe)
C            2.12925282438468       -0.86731062816057        0.60527253961477
C            1.70691058777096       -0.12756855576915       -0.65737193350413
C            1.17878873426056        1.28176240356614       -0.38710018537076
C           -0.07829911015321        1.36903199822566        0.48097196728967
C           -1.33570297725623        0.80790611003711       -0.15565441166169
Cl          -1.45482332871253       -0.99231892866374       -0.00266773812639
H            2.85682035727798       -0.28521340291403        1.16481530906511
H            2.57841300945813       -1.82219721705777        0.34537160878089
H            1.27364037917283       -1.06469778011572        1.24405866397166
H            2.57330029966758       -0.03712429108618       -1.31715000380778
H            0.95326240903914       -0.71450548092528       -1.18382099279022
H            0.97370250520631        1.76181516021076       -1.34608932281778
H            1.96569136280854        1.85303361053978        0.10935820197433
H           -0.27122738854611        2.42747555593134        0.67194045539918
H            0.09201897136780        0.88633196863485        1.44294970946371
H           -2.22652155166048        1.18057874792765        0.34352263937404
H           -1.38121241203985        1.01500556157037       -1.22162446669321
17
 energy: -20.871748594791 gnorm: 0.002017474557 xtb: 6.7.1 (edcfbbe)
C            2.12990455745651       -0.86555332254203        0.60559107786128
C            1.70322972157409       -0.12840242776925       -0.65844228717954
C            1.17966391934706        1.28287074401750       -0.38652676963551
C           -0.07738913525439        1.36754049216962        0.48311325021718
C           -1.33441438234888        0.80394496837696       -0.15761368938014
Cl          -1.45426864510474       -0.98898072080950       -0.00062135865045
H            2.85453075310756       -0.27882387468023        1.16455349428069
H            2.58343736948836       -1.81879082355835        0.34639697264572
H            1.27511491514054       -1.06659041628535        1.24497462892810
H            2.56559137837152       -0.04319456242552       -1.32392204988842
H            0.94479374704669       -0.71404733219677       -1.17873585170061
H            0.97365482798163        1.76512893242159       -1.34410511604742
H            1.96800098031042        1.85243012312318        0.10945669402495
H           -0.27240656337146        2.42409411391170        0.67873574764113
H            0.09442059429275        0.88115714445113        1.44266214566504
H           -2.22648574571807        1.18394997756439        0.33517876965495
H           -1.37336362027349        1.01527181618216       -1.22391361827553
17
 energy: -20.871768909120 gnorm: 0.001056004018 xtb: 6.7.1 (edcfbbe)
C            2.13254597073529       -0.86481109734519        0.60482276592691
C            1.70111761286584       -0.12920670263320       -0.65915036519140
C            1.17996956457832        1.28278234699203       -0.38562570102756
C           -0.07691050033880        1.36575358322032        0.48479245017898
C           -1.33435515992922        0.80195244277353       -0.15911458684341
Cl          -1.46222755927454       -0.98653964574834        0.00397156816383
H            2.85345955751760       -0.27307829132962        1.16460331975578
H            2.59266247440725       -1.81587253115986        0.34678742152861
H            1.27879817538540       -1.07122681448067        1.24507940911336
H            2.56002835266428       -0.04728089940013       -1.32966188857693
H            0.93929169335098       -0.71427105298515       -1.17516604377728
H            0.97386194972733        1.76873023767929       -1.34179918247729
H            1.96933173305968        1.85125985338093        0.11075993643402
H           -0.27398947313524        2.42136068809694        0.68362942292228
H            0.09480116789864        0.87767192290491        1.44368639878468
H           -2.22766782258582        1.19148747727093        0.32588398855101
H           -1.36670306488089        1.01329331471450       -1.22671687330417
17
 energy: -20.871778836254 gnorm: 0.001492173206 xtb: 6.7.1 (edcfbbe)
C            2.13631169285570       -0.86433392511306        0.60340607233140
C            1.69922350325069       -0.13012915665103       -0.65932572961226
C            1.17990428184711        1.28183460561312       -0.38363098436862
C           -0.07730768802876        1.36406332338502        0.48583683504391
C           -1.33503945726016        0.80266929031355       -0.16131242470196
Cl          -1.47294198747192       -0.98361738625268        0.01223512203560
H            2.85297487508479       -0.26782136666000        1.16444802200167
H            2.60426422592221       -1.81190339561238        0.34513114091780
H            1.28429539567698       -1.07810461565372        1.24430011500833
H            2.55482244328018       -0.04936330596789       -1.33438503147166
H            0.93460465602914       -0.71530027970618       -1.17154149911484
H            0.97479697488375        1.77118130838088       -1.33871384946220
H            1.96988404925568        1.84904089784318        0.11406897338510
H           -0.27480491307917        2.41937064482464        0.68713497133080
H            0.09269656964708        0.87422396718012        1.44446129408739
H           -2.22932568709606        1.20152430214927        0.31539400448582
H           -1.36034426275115        1.00866992387842       -1.23072499173486
17
 energy: -20.871786879291 gnorm: 0.000943191422 xtb: 6.7.1 (edcfbbe)
C            2.13938242421540       -0.86409030653946        0.60228490535155
C            1.69740731963258       -0.13070660672395       -0.65880187014688
C            1.17945856271422        1.28125268453987       -0.38184300318069
C           -0.07816901602471        1.36373763101839        0.48636644646754
C           -1.33522421145789        0.80478322313103       -0.16339558928813
Cl          -1.48111573686217       -0.98126992444074        0.01923227360873
H            2.85260164508324       -0.26415928318083        1.16386570576884
H            2.61318452189200       -1.80819348243942        0.34254281174288
H            1.28910571011033       -1.08391628366173        1.24321703392158
H            2.55037201821584       -0.05007023126290       -1.33719754871410
H            0.93068772735437       -0.71630055792866       -1.16760860025335
H            0.97597335968668        1.77220798101260       -1.33645888671406
H            1.96974848376624        1.84662045915164        0.11747772246372
H           -0.27401118813020        2.41903119143594        0.68986052902441
H            0.08994993624226        0.87126869684755        1.44408719149251
H           -2.23010326478519        1.20862698641602        0.30723305068841
H           -1.35523361960689        1.00318265457587       -1.23408013207151
17
 energy: -20.871789943322 gnorm: 0.000225323772 xtb: 6.7.1 (edcfbbe)
C            2.14184713106102       -0.86385628949386        0.60163072233241
C            1.69523814576092       -0.13120687918169       -0.65834734731229
C            1.17930702171186        1.28132004663817       -0.38009420084163
C           -0.07919366412238        1.36353320073489        0.48703209842053
C           -1.33520258471683        0.80654442167001       -0.16563710549939
Cl          -1.48536575459785       -0.97903600787662        0.02560794668705
H            2.85290474718630       -0.26136996148035        1.16276566299524
H            2.61941507413369       -1.80521915068479        0.33988944180459
H            1.29329773956189       -1.08810318072608        1.24295448480642
H            2.54546504681158       -0.05133545583268       -1.34013549123649
H            0.92603981250380       -0.71670209548342       -1.16331912312278
H            0.97702505173504        1.77308573641226       -1.33430868093691
H            1.96989343933368        1.84479324444851        0.12047409376794
H           -0.27354947222382        2.41845976689610        0.69275124237959
H            0.08769281380141        0.86846770509444        1.44343874610039
H           -2.23102118527559        1.21403878322197        0.29931075143830
H           -1.34977869061861        0.99859094759437       -1.23723120162157
17
 energy: -20.871790288115 gnorm: 0.000158834449 xtb: 6.7.1 (edcfbbe)
C            2.14255500791132       -0.86399061418198        0.60137617994149
C            1.69475689556020       -0.13112709380521       -0.65813892862955
C            1.17922402828005        1.28155504392053       -0.37962952752009
C           -0.07947497465509        1.36396318220947        0.48736357386708
C           -1.33478302701820        0.80649946320423       -0.16610366013879
Cl          -1.48754081868312       -0.97894382639422        0.02695515323924
H            2.85396818113967       -0.26144354816698        1.16188237469532
H            2.61998721087997       -1.80521173591037        0.33903834212913
H            1.29459116726493       -1.08832489895536        1.24336145516807
H            2.54426020942017       -0.05163579457541       -1.34077227001852
H            0.92488704042811       -0.71643148534212       -1.16207714539750
H            0.97729535378019        1.77365164466255       -1.33370787352320
H            1.96980096187591        1.84448710165770        0.12138726178490
H           -0.27369809378032        2.41884291275238        0.69334978783250
H            0.08719000438050        0.86848154776532        1.44352388931831
H           -2.23108910556940        1.21487727583370        0.29688638285353
H           -1.34791536916877        0.99675565727701       -1.23791295544051
17
 energy: -20.871790572750 gnorm: 0.000137123644 xtb: 6.7.1 (edcfbbe)
C            2.14272363039884       -0.86403765065911        0.60123098714297
C            1.69453364175956       -0.13100762719244       -0.65807316007840
C            1.17931005407086        1.28172188641719       -0.37928760336666
C           -0.07965867752949        1.36391196964152        0.48741136995849
C           -1.33474626147090        0.80643972411260       -0.16638822018834
Cl          -1.48745472908722       -0.97900029871579        0.02789429792508
H            2.85516887236644       -0.26207064011973        1.16104636680693
H            2.61907282487733       -1.80572211303639        0.33859937744191
H            1.29510631440010       -1.08750054750896        1.24397578200757
H            2.54378936048384       -0.05159349804244       -1.34098087887689
H            0.92435408590480       -0.71614335355309       -1.16169187058113
H            0.97757522793617        1.77405266734810       -1.33328343034142
H            1.96985468667376        1.84444364603454        0.12201343167298
H           -0.27407084123374        2.41878239654829        0.69321361828348
H            0.08688036182441        0.86858346019021        1.44367356214189
H           -2.23128051027296        1.21523493394651        0.29576254059861
H           -1.34714336905568        0.99590987654022       -1.23833413038569
17
 energy: -20.871791045006 gnorm: 0.000149492878 xtb: 6.7.1 (edcfbbe)
C            2.14289562969677       -0.86406999007428        0.60087568663619
C            1.69425274361863       -0.13068442090083       -0.65804837149423
C            1.17950735110156        1.28202838425905       -0.37848743470382
C           -0.08004132507963        1.36400068446018        0.48742178829293
C           -1.33457686171250        0.80593189745892       -0.16695311907178
Cl          -1.48716323365769       -0.97925684262675        0.02985850707235
H            2.85824055436955       -0.26380979295449        1.15890538636989
H            2.61598601453694       -1.80731487637656        0.33781557203104
H            1.29592646324983       -1.08473585470201        1.24548625154982
H            2.54318944798465       -0.05136689928925       -1.34135209896919
H            0.92361024907731       -0.71547540308193       -1.16133801209620
H            0.97837785839850        1.77501921622136       -1.33226440842143
H            1.96993423825156        1.84426617034173        0.12356022512443
H           -0.27500010367041        2.41886817338810        0.69274212323732
H            0.08618440894920        0.86914220392714        1.44399007108909
H           -2.23155583909495        1.21540699874531        0.29373563298913
H           -1.34575292397320        0.99405518315555       -1.23916575947411
17
 energy: -20.871791351484 gnorm: 0.000107509358 xtb: 6.7.1 (edcfbbe)
C            2.14319244856256       -0.86422871636958        0.60042199847992
C            1.69376256185863       -0.13029141345198       -0.65787532654947
C            1.17966129582713        1.28251722887212       -0.37764981381263
C           -0.08042844550833        1.36424052750048        0.48748035662261
C           -1.33428358915818        0.80524059012943       -0.16755316655964
Cl          -1.48719565860616       -0.97950023596245        0.03197865201350
H            2.86165251458034       -0.26571541488523        1.15634861071195
H            2.61283082720452       -1.80913383679582        0.33699024235926
H            1.29707242302636       -1.08183822871745        1.24720853815934
H            2.54220720855889       -0.05110760374976       -1.34182119650599
H            0.92255760430998       -0.71472350119355       -1.16075542104050
H            0.97940333060869        1.77643096923758       -1.33115980213752
H            1.97003097266038        1.84394749502522        0.12541317481667
H           -0.27591398286092        2.41909911039756        0.69228973482855
H            0.08530595929530        0.86984640123064        1.44439341814206
H           -2.23183266391311        1.21570940782869        0.29119554481093
H           -1.34400813439997        0.99151205285531       -1.24012350417764
17
 energy: -20.871791445835 gnorm: 0.000055003204 xtb: 6.7.1 (edcfbbe)
C            2.14345736135128       -0.86424512046855        0.60009889024575
C            1.69347512336515       -0.13013579222091       -0.65785867995471
C            1.17976968757687        1.28268101582448       -0.37692080521694
C           -0.08073463229808        1.36453576299179        0.48754958489765
C           -1.33402777447815        0.80483208228107       -0.16805588706960
Cl          -1.48756671597606       -0.97961875966729        0.03360737695709
H            2.86368480145088       -0.26671580405076        1.15478194274653
H            2.61117801822711       -1.80998647093979        0.33631051146768
H            1.29794641691887       -1.08028389794747        1.24820737690918
H            2.54151434503815       -0.05110382593212       -1.34235768630219
H            0.92179571991703       -0.71430511796774       -1.16036058025481
H            0.98011329733836        1.77717814178251       -1.33024196442069
H            1.97011880671619        1.84357340335975        0.12677034896839
H           -0.27656895063791        2.41939074998169        0.69207650055732
H            0.08459952325660        0.87036932956034        1.44465480423867
H           -2.23195208146870        1.21592740220156        0.28935966681738
H           -1.34278827425147        0.98991173316267       -1.24083936042528
