      -----------------------------------------------------------      
     |                   =====================                   |     
     |                           x T B                           |     
     |                   =====================                   |     
     |                         S. Grimme                         |     
     |          Mulliken Center for Theoretical Chemistry        |     
     |                    University of Bonn                     |     
      -----------------------------------------------------------      

   * xtb version 6.7.1 (edcfbbe) compiled by 'albert@albert-system' on 2024-07-22

   xtb is free software: you can redistribute it and/or modify it under
   the terms of the GNU Lesser General Public License as published by
   the Free Software Foundation, either version 3 of the License, or
   (at your option) any later version.
   
   xtb is distributed in the hope that it will be useful,
   but WITHOUT ANY WARRANTY; without even the implied warranty of
   MERCHANTABILITY or FITNESS FOR A PARTICULAR PURPOSE.  See the
   GNU Lesser General Public License for more details.
   
   Cite this work as:
   * C. Bannwarth, E. Caldeweyher, S. Ehlert, A. Hansen, P. Pracht,
     J. Seibert, S. Spicher, S. Grimme, WIREs Comput. Mol. Sci., 2020, 11,
     e01493. DOI: 10.1002/wcms.1493
   
   for GFN2-xTB:
   * C. Bannwarth, S. Ehlert and S. Grimme., J. Chem. Theory Comput., 2019,
     15, 1652-1671. DOI: 10.1021/acs.jctc.8b01176
   for GFN1-xTB:
   * S. Grimme, C. Bannwarth, P. Shushkov, J. Chem. Theory Comput., 2017,
     13, 1989-2009. DOI: 10.1021/acs.jctc.7b00118
   for GFN0-xTB:
   * P. Pracht, E. Caldeweyher, S. Ehlert, S. Grimme, ChemRxiv, 2019, preprint.
     DOI: 10.26434/chemrxiv.8326202.v1
   for GFN-FF:
   * S. Spicher and S. Grimme, Angew. Chem. Int. Ed., 2020, 59, 15665-15673.
     DOI: 10.1002/anie.202004239
   
   for ALPB and GBSA implicit solvation:
   * S. Ehlert, M. Stahn, S. Spicher, S. Grimme, J. Chem. Theory Comput.,
     2021, 17, 4250-4261. DOI: 10.1021/acs.jctc.1c00471
   
   for ddCOSMO and CPCM-X implicit solvation:
   * M. Stahn, S. Ehlert, S. Grimme, J. Phys. Chem. A,
     2023, XX, XXXX-XXXX. DOI: 10.1021/acs.jpca.3c04382
   
   for DFT-D4:
   * E. Caldeweyher, C. Bannwarth and S. Grimme, J. Chem. Phys., 2017,
     147, 034112. DOI: 10.1063/1.4993215
   * E. Caldeweyher, S. Ehlert, A. Hansen, H. Neugebauer, S. Spicher,
     C. Bannwarth and S. Grimme, J. Chem. Phys., 2019, 150, 154122.
     DOI: 10.1063/1.5090222
   * E. Caldeweyher, J.-M. Mewes, S. Ehlert and S. Grimme, Phys. Chem. Chem. Phys.
     2020, 22, 8499-8512. DOI: 10.1039/D0CP00502A
   
   for sTDA-xTB:
   * S. Grimme and C. Bannwarth, J. Chem. Phys., 2016, 145, 054103.
     DOI: 10.1063/1.4959605
   
   in the mass-spec context:
   * V. Asgeirsson, C. Bauer and S. Grimme, Chem. Sci., 2017, 8, 4879.
     DOI: 10.1039/c7sc00601b
   * J. Koopman and S. Grimme, ACS Omega 2019, 4, 12, 15120-15133.
     DOI: 10.1021/acsomega.9b02011
   
   for metadynamics refer to:
   * S. Grimme, J. Chem. Theory Comput., 2019, 155, 2847-2862
     DOI: 10.1021/acs.jctc.9b00143
   
   for SPH calculations refer to:
   * S. Spicher and S. Grimme, J. Chem. Theory Comput., 2021, 17, 1701-1714
     DOI: 10.1021/acs.jctc.0c01306
   
   for ONIOM refer to:
   * C. Plett, A. Katbashev, S. Ehlert, S. Grimme, M. Bursch,
     Phys. Chem. Chem. Phys., 2023, 25, 17860-17868. DOI: 10.1039/D3CP02178E
   
   for DIPRO refer to:
   * J. Kohn, N. Gildemeister, S. Grimme, D. Fazzi, A. Hansen,
     J. Chem. Phys., 2023, just accepted.
   
   for PTB refer to:
   * S. Grimme, M. Mueller, A. Hansen, J. Chem. Phys., 2023, 158, 124111.
     DOI: 10.1063/5.0137838
   
   with help from (in alphabetical order)
   P. Atkinson, C. Bannwarth, F. Bohle, G. Brandenburg, E. Caldeweyher
   M. Checinski, S. Dohm, S. Ehlert, S. Ehrlich, I. Gerasimov, C. Hölzer
   A. Katbashev, J. Kohn, J. Koopman, C. Lavigne, S. Lehtola, F. März, M. Müller,
   F. Musil, H. Neugebauer, J. Pisarek, C. Plett, P. Pracht, F. Pultar,
   J. Seibert, P. Shushkov, S. Spicher, M. Stahn, M. Steiner, T. Strunk,
   J. Stückrath, T. Rose, and J. Unsleber
   
 * started run on 2025/04/11 at 16:50:56.021     
   ID    Z sym.   atoms
    1    6 C      1-4, 7, 8
    2    8 O      5, 6
    3    1 H      9-20

           -------------------------------------------------
          |                Calculation Setup                |
           -------------------------------------------------

          program call               : /srv/scratch/z5358697/.xtb/bin/xtb xtb_opt.coord --opt normal --orca -I xtb_opt-xcontrol-inp
          hostname                   : k061
          coordinate file            : xtb_opt.coord
          omp threads                :                    16

           -------------------------------------------------
          |                   Orca driver                   |
           -------------------------------------------------
orca executable           : /apps/z_install_tree/linux-rocky8-ivybridge/gcc-12.2.0/orca-6.0.0-srtngmq3qlimg2qxbl6avaaiffipurdx/bin/orca
orca input file           : xtb_opt.inp
orca input line           : 
orca parallel             : true
orca number of threads    : 16
                         * ORCA takes the control...
  ------------------------------------------------------------------------

                                 *****************
                                 * O   R   C   A *
                                 *****************

                                            #,                                       
                                            ###                                      
                                            ####                                     
                                            #####                                    
                                            ######                                   
                                           ########,                                 
                                     ,,################,,,,,                         
                               ,,#################################,,                 
                          ,,##########################################,,             
                       ,#########################################, ''#####,          
                    ,#############################################,,   '####,        
                  ,##################################################,,,,####,       
                ,###########''''           ''''###############################       
              ,#####''   ,,,,##########,,,,          '''####'''          '####       
            ,##' ,,,,###########################,,,                        '##       
           ' ,,###''''                  '''############,,,                           
         ,,##''                                '''############,,,,        ,,,,,,###''
      ,#''                                            '''#######################'''  
     '                                                          ''''####''''         
             ,#######,   #######,   ,#######,      ##                                
            ,#'     '#,  ##    ##  ,#'     '#,    #''#        ,####,   ,####,        
            ##       ##  ##   ,#'  ##            #'  '#       #'       #'  '#        
            ##       ##  #######   ##           ,######,      #####,   #    #        
            '#,     ,#'  ##    ##  '#,     ,#' ,#      #,     #,   #   #,  ,#        
             '#######'   ##     ##  '#######'  #'      '#     '####' # '####'        



                #########################################################
                #                        -***-                          #
                #          Department of theory and spectroscopy        #
                #                                                       #
                #                      Frank Neese                      #
                #                                                       #
                #     Directorship, Architecture, Infrastructure        #
                #                    SHARK, DRIVERS                     #
                #        Core code/Algorithms in most modules           #
                #                                                       #
                #        Max Planck Institute fuer Kohlenforschung      #
                #                Kaiser Wilhelm Platz 1                 #
                #                 D-45470 Muelheim/Ruhr                 #
                #                      Germany                          #
                #                                                       #
                #                  All rights reserved                  #
                #                        -***-                          #
                #########################################################


                         Program Version 6.0.0  -   RELEASE  -


 With contributions from (in alphabetic order):
   Daniel Aravena         : Magnetic Suceptibility
   Michael Atanasov       : Ab Initio Ligand Field Theory (pilot matlab implementation)
   Alexander A. Auer      : GIAO ZORA, VPT2 properties, NMR spectrum
   Ute Becker             : All parallelization in ORCA, NUMFREQ, NUMCALC
   Giovanni Bistoni       : ED, misc. LED, open-shell LED, HFLD
   Martin Brehm           : Molecular dynamics
   Dmytro Bykov           : pre 5.0 version of the SCF Hessian
   Marcos Casanova-Páez   : Triplet and SCS-CIS(D). UHF-(DLPNO)-IP/EA/STEOM-CCSD. UHF-CVS-IP/STEOM-CCSD
   Vijay G. Chilkuri      : MRCI spin determinant printing, contributions to CSF-ICE
   Pauline Colinet        : FMM embedding
   Dipayan Datta          : RHF DLPNO-CCSD density
   Achintya Kumar Dutta   : EOM-CC, STEOM-CC
   Nicolas Foglia         : Exact transition moments, OPA infrastructure, MCD improvements
   Dmitry Ganyushin       : Spin-Orbit,Spin-Spin,Magnetic field MRCI
   Miquel Garcia          : C-PCM and meta-GGA Hessian, CCSD/C-PCM, Gaussian charge scheme
   Tiago L. C. Gouveia    : GS-ROHF, GS-ROCIS
   Yang Guo               : DLPNO-NEVPT2, F12-NEVPT2, CIM, IAO-localization
   Andreas Hansen         : Spin unrestricted coupled pair/coupled cluster methods
   Ingolf Harden          : AUTO-CI MPn and infrastructure 
   Benjamin Helmich-Paris : MC-RPA, TRAH-(SCF,CASSCF), AVAS, COSX integrals, SCF dyn. polar.
   Lee Huntington         : MR-EOM, pCC
   Robert Izsak           : Overlap fitted RIJCOSX, COSX-SCS-MP3, EOM
   Riya Kayal             : Wick's Theorem for AUTO-CI, AUTO-CI UHF-CCSDT
   Emily Kempfer          : AUTO-CI, RHF CISDT and CCSDT
   Christian Kollmar      : KDIIS, OOCD, Brueckner-CCSD(T), CCSD density, CASPT2, CASPT2-K, improved NEVPT2
   Axel Koslowski         : Symmetry handling
   Simone Kossmann        : Meta GGA functionals, TD-DFT gradient, OOMP2, (MP2 Hessian; deprecated post 5.0)
   Lucas Lang             : DCDCAS
   Marvin Lechner         : AUTO-CI (C++ implementation), FIC-MRCC
   Spencer Leger          : CASSCF response
   Dagmar Lenk            : GEPOL surface, SMD, ORCA-2-JSON
   Dimitrios Liakos       : Extrapolation schemes; Compound Job, initial MDCI parallelization
   Dimitrios Manganas     : Further ROCIS development; embedding schemes. LFT, Crystal Embedding
   Dimitrios Pantazis     : SARC Basis sets
   Anastasios Papadopoulos: AUTO-CI, single reference methods and gradients
   Taras Petrenko         : pre 6.0 DFT Hessian and TD-DFT gradient, (ASA, deprecated), ECA, 1-Electron XAS/XES, NRVS
   Peter Pinski           : DLPNO-MP2, DLPNO-MP2 Gradient
   Christoph Reimann      : Effective Core Potentials
   Marius Retegan         : Local ZFS, SOC
   Christoph Riplinger    : Optimizer, TS searches, QM/MM, DLPNO-CCSD(T), (RO)-DLPNO pert. Triples
   Michael Roemelt        : Original ROCIS implementation
   Masaaki Saitow         : Open-shell DLPNO-CCSD energy and density
   Barbara Sandhoefer     : DKH picture change effects
   Kantharuban Sivalingam : CASSCF convergence/infrastructure, NEVPT2 and variants, FIC-MRCI
   Bernardo de Souza      : ESD, SOC TD-DFT
   Georgi Stoychev        : AutoAux, RI-MP2 NMR, DLPNO-MP2 response, X2C
   Van Anh Tran           : RI-MP2 g-tensors
   Willem Van den Heuvel  : Paramagnetic NMR
   Zikuan Wang            : NOTCH, Electric field optimization 
   Frank Wennmohs         : Technical directorship and infrastructure
   Hang Xu                : AUTO-CI-Response properties 


 We gratefully acknowledge several colleagues who have allowed us to
 interface, adapt or use parts of their codes:
   Stefan Grimme, W. Hujo, H. Kruse, P. Pracht,  : VdW corrections, initial TS optimization,
                  C. Bannwarth, S. Ehlert,         DFT functionals, gCP, sTDA/sTD-DF
                  L. Wittmann, M. Mueller
   Ed Valeev, F. Pavosevic, A. Kumar             : LibInt (2-el integral package), F12 methods
   Garnet Chan, S. Sharma, J. Yang, R. Olivares  : DMRG
   Ulf Ekstrom                                   : XCFun DFT Library
   Mihaly Kallay                                 : mrcc  (arbitrary order and MRCC methods)
   Frank Weinhold                                : gennbo (NPA and NBO analysis)
   Simon Mueller                                 : openCOSMO-RS
   Christopher J. Cramer and Donald G. Truhlar   : smd solvation model
   Lars Goerigk                                  : TD-DFT with DH, B97 family of functionals
   V. Asgeirsson, H. Jonsson                     : NEB implementation
   FAccTs GmbH                                   : IRC, NEB, NEB-TS, DLPNO-Multilevel, CI-OPT
                                                   MM, QMMM, 2- and 3-layer-ONIOM, Crystal-QMMM,
                                                   LR-CPCM, SF, NACMEs, symmetry and pop. for TD-DFT,
                                                   nearIR, NL-DFT gradient (VV10), updates on ESD,
                                                   ML-optimized integration grids, MBIS, APM,
                                                   GOAT, DOCKER, SOLVATOR, interface openCOSMO-RS
   S Lehtola, MJT Oliveira, MAL Marques          : LibXC Library
   Liviu Ungur et al                             : ANISO software


 Your calculation uses the libint2 library for the computation of 2-el integrals
 For citations please refer to: http://libint.valeyev.net

 Your ORCA version has been built with support for libXC version: 6.2.2
 For citations please refer to: https://libxc.gitlab.io

 This ORCA versions uses:
   CBLAS   interface :  Fast vector & matrix operations
   LAPACKE interface :  Fast linear algebra routines
   SCALAPACK package :  Parallel linear algebra routines
   Shared memory     :  Shared parallel matrices
   BLAS/LAPACK       :  OpenBLAS 0.3.27  USE64BITINT DYNAMIC_ARCH NO_AFFINITY SkylakeX SINGLE_THREADED
        Core in use  :  SkylakeX
   Copyright (c) 2011-2014, The OpenBLAS Project




***************************************
The coordinates will be read from file: xtb_opt.xyz
***************************************


Your calculation utilizes the geometrical counterpoise correction gCP
Please cite in your paper:
H.Kruse, S. Grimme J.Chem.Phys., 136, (2012), 154101 
   

Your calculation utilizes the atom-pairwise dispersion correction
based on EEQ partial charges (D4)


Your calculation utilizes the SMD solvation module
Please cite in your paper:
A.V. Marenich, C.J. Cramer, D.G. Truhlar J. Phys. Chem. B, 113, (2009), 6378 

================================================================================

----- Orbital basis set information -----
Your calculation utilizes the basis: def2-mTZVPP
   Stefan Grimme, Andreas Hansen, Sebastian Ehlert, and Jan-Michael Mewes 
   J. Chem. Phys. 154, 064103 (2021). DOI: 10.1063/5.0040021

----- AuxJ basis set information -----
Your calculation utilizes the auxiliary basis: def2/J
   F. Weigend, Phys. Chem. Chem. Phys. 8, 1057 (2006).

================================================================================
                                        WARNINGS
                       Please study these warnings very carefully!
================================================================================

WARNING: Old DensityContainer found on disk!
         Will remove this file - 
         If you want to keep old densities, please start your calculation with a different basename. 

Using LibXC functional ID 497 : Re-regularized SCAN exchange by Furness et al
[ 1]  J. W. Furness, A. D. Kaplan, J. Ning, J. P. Perdew, and J. Sun.,  J. Phys. Chem. Lett. 11, 8208-8215 (2020)
[ 2]  J. W. Furness, A. D. Kaplan, J. Ning, J. P. Perdew, and J. Sun.,  J. Phys. Chem. Lett. 11, 9248-9248 (2020)
Using LibXC functional ID 498 : Re-regularized SCAN correlation by Furness et al
[ 1]  J. W. Furness, A. D. Kaplan, J. Ning, J. P. Perdew, and J. Sun.,  J. Phys. Chem. Lett. 11, 8208-8215 (2020)
[ 2]  J. W. Furness, A. D. Kaplan, J. Ning, J. P. Perdew, and J. Sun.,  J. Phys. Chem. Lett. 11, 9248-9248 (2020)
Using LibXC functional ID 497 : Re-regularized SCAN exchange by Furness et al
[ 1]  J. W. Furness, A. D. Kaplan, J. Ning, J. P. Perdew, and J. Sun.,  J. Phys. Chem. Lett. 11, 8208-8215 (2020)
[ 2]  J. W. Furness, A. D. Kaplan, J. Ning, J. P. Perdew, and J. Sun.,  J. Phys. Chem. Lett. 11, 9248-9248 (2020)
Using LibXC functional ID 498 : Re-regularized SCAN correlation by Furness et al
[ 1]  J. W. Furness, A. D. Kaplan, J. Ning, J. P. Perdew, and J. Sun.,  J. Phys. Chem. Lett. 11, 8208-8215 (2020)
[ 2]  J. W. Furness, A. D. Kaplan, J. Ning, J. P. Perdew, and J. Sun.,  J. Phys. Chem. Lett. 11, 9248-9248 (2020)

================================================================================
                                       INPUT FILE
================================================================================
NAME = xtb_opt.inp
|  1> ! r2scan-3c def2/J RI DEFGRID2 scfconv7 ENGRAD tightSCF miniprint
|  2> %cpcm
|  3>     smd true
|  4>     smdsolvent "water"
|  5> end
|  6> * xyzfile 0 1 xtb_opt.xyz
|  7> 
|  8>                          ****END OF INPUT****
================================================================================

                     *******************************
                     * Energy+Gradient Calculation *
                     *******************************

---------------------------------
CARTESIAN COORDINATES (ANGSTROEM)
---------------------------------
  C     -2.648735   -1.010805   -0.464155
  C     -2.251083   -0.232171    0.786344
  C     -1.299081    0.936560    0.480919
  C     -0.038032    0.476423   -0.195792
  O      0.263586    0.722491   -1.353332
  O      0.723429   -0.270659    0.626019
  C      1.986668   -0.778424    0.088813
  C      3.069441    0.274074    0.169635
  H     -3.365831   -1.799797   -0.218777
  H     -3.113114   -0.351873   -1.206570
  H     -1.779602   -1.485996   -0.934152
  H     -1.782980   -0.902196    1.514946
  H     -3.143157    0.186304    1.263839
  H     -1.027228    1.444965    1.412074
  H     -1.783138    1.655500   -0.184323
  H      2.216112   -1.636062    0.723609
  H      1.820634   -1.121484   -0.935315
  H      3.206947    0.611213    1.201051
  H      4.012439   -0.159064   -0.178549
  H      2.835529    1.137079   -0.459421

----------------------------
CARTESIAN COORDINATES (A.U.)
----------------------------
  NO LB      ZA    FRAG     MASS         X           Y           Z
   0 C     6.0000    0    12.011   -5.005383   -1.910144   -0.877125
   1 C     6.0000    0    12.011   -4.253930   -0.438739    1.485974
   2 C     6.0000    0    12.011   -2.454907    1.769843    0.908806
   3 C     6.0000    0    12.011   -0.071871    0.900310   -0.369994
   4 O     8.0000    0    15.999    0.498106    1.365310   -2.557427
   5 O     8.0000    0    15.999    1.367082   -0.511471    1.183004
   6 C     6.0000    0    12.011    3.754257   -1.471009    0.167832
   7 C     6.0000    0    12.011    5.800403    0.517925    0.320564
   8 H     1.0000    0     1.008   -6.360499   -3.401124   -0.413429
   9 H     1.0000    0     1.008   -5.882933   -0.664944   -2.280088
  10 H     1.0000    0     1.008   -3.362961   -2.808126   -1.765291
  11 H     1.0000    0     1.008   -3.369344   -1.704904    2.862834
  12 H     1.0000    0     1.008   -5.939706    0.352064    2.388310
  13 H     1.0000    0     1.008   -1.941179    2.730588    2.668432
  14 H     1.0000    0     1.008   -3.369643    3.128443   -0.348319
  15 H     1.0000    0     1.008    4.187845   -3.091708    1.367423
  16 H     1.0000    0     1.008    3.440499   -2.119298   -1.767490
  17 H     1.0000    0     1.008    6.060251    1.155026    2.269657
  18 H     1.0000    0     1.008    7.582410   -0.300587   -0.337409
  19 H     1.0000    0     1.008    5.358373    2.148768   -0.868180

------------------------------------------------------------------------------
                   ___                                                        
                  /   \      - P O W E R E D   B Y -                         
                 /     \                                                     
                 |  |  |   _    _      __       _____    __    __             
                 |  |  |  | |  | |    /  \     |  _  \  |  |  /  |          
                  \  \/   | |  | |   /    \    | | | |  |  | /  /          
                 / \  \   | |__| |  /  /\  \   | |_| |  |  |/  /          
                |  |  |   |  __  | /  /__\  \  |    /   |      \           
                |  |  |   | |  | | |   __   |  |    \   |  |\   \          
                \     /   | |  | | |  |  |  |  | |\  \  |  | \   \       
                 \___/    |_|  |_| |__|  |__|  |_| \__\ |__|  \__/        
                                                                              
                      - O R C A' S   B I G   F R I E N D -                    
                                      &                                       
                       - I N T E G R A L  F E E D E R -                       
                                                                              
 v1 FN, 2020, v2 2021, v3 2022-2024                                           
------------------------------------------------------------------------------


----------------------
SHARK INTEGRAL PACKAGE
----------------------

Number of atoms                             ...     20
Number of basis functions                   ...    222
Number of shells                            ...    110
Maximum angular momentum                    ...      2
Integral batch strategy                     ... SHARK/LIBINT Hybrid
RI-J (if used) integral strategy            ... SPLIT-RIJ (Revised 2003 algorithm where possible)
Printlevel                                  ...      1
Contraction scheme used                     ... SEGMENTED contraction
Prescreening option                         ... SCHWARTZ
   Thresh                                   ... 3.000e-11
   Tcut                                     ... 1.000e-12
   Tpresel                                  ... 1.000e-12 
Coulomb Range Separation                    ... NOT USED
Exchange Range Separation                   ... NOT USED
Multipole approximations                    ... NOT USED
Finite Nucleus Model                        ... NOT USED
CABS basis                                  ... NOT available
Auxiliary Coulomb fitting basis             ... AVAILABLE
   # of basis functions in Aux-J            ...    524
   # of shells in Aux-J                     ...    180
   Maximum angular momentum in Aux-J        ...      4
Auxiliary J/K fitting basis                 ... NOT available
Auxiliary Correlation fitting basis         ... NOT available
Auxiliary 'external' fitting basis          ... NOT available

Checking pre-screening integrals            ... done (  0.0 sec) Dimension = 110
Check shell pair data                       ... done (  0.0 sec)
Shell pair information
Shell pair cut-off parameter TPreSel        ...   1.0e-12
Total number of shell pairs                 ...      6105
Shell pairs after pre-screening             ...      5414
Total number of primitive shell pairs       ...     21533
Primitive shell pairs kept                  ...     13590
          la=0 lb=0:   1812 shell pairs
          la=1 lb=0:   2042 shell pairs
          la=1 lb=1:    592 shell pairs
          la=2 lb=0:    581 shell pairs
          la=2 lb=1:    334 shell pairs
          la=2 lb=2:     53 shell pairs

Calculating one electron integrals          ... done (  0.0 sec)
Calculating RI/J V-Matrix + Cholesky decomp.... done (  0.1 sec)
Calculating Nuclear repulsion               ... done (  0.0 sec) ENN=    395.753665744231 Eh

Diagonalization of the overlap matrix:
Smallest eigenvalue                        ... 1.707e-04
Time for diagonalization                   ...    0.005 sec
Threshold for overlap eigenvalues          ... 1.000e-07
Number of eigenvalues below threshold      ... 0
Time for construction of square roots      ...    0.017 sec
Total time needed                          ...    0.031 sec

-------------------
DFT GRID GENERATION
-------------------

General Integration Accuracy     IntAcc      ... 4.388
Radial Grid Type                 RadialGrid  ... OptM3 with GC (2021)
Angular Grid (max. ang.)         AngularGrid ... 4 (Lebedev-302)
Angular grid pruning method      GridPruning ... 4 (adaptive)
Weight generation scheme         WeightScheme... mBecke (2022)
Basis function cutoff            BFCut       ... 1.0000e-11
Integration weight cutoff        WCut        ... 1.0000e-14
Partially contracted basis set               ... off
Rotationally invariant grid construction     ... off
Angular grids for H and He will be reduced by one unit
Diffuse basis detected: some atoms will have their outermost
                        angular grid increased by 1.

Total number of grid points                  ...    87427
Total number of batches                      ...     1375
Average number of points per batch           ...       63
Average number of grid points per atom       ...     4371
Initializing property integral containers    ... done (  0.0 sec)

SHARK setup successfully completed in   1.7 seconds

Maximum memory used throughout the entire STARTUP-calculation: 39.6 MB
Occupation numbers will be reassigned to an Aufbau configuration
             **** ENERGY FILE WAS UPDATED (xtb_opt.en.tmp) ****
Finished Guess after   0.3 sec
Maximum memory used throughout the entire GUESS-calculation: 15.3 MB
--------------------
CPCM SOLVATION MODEL
--------------------
CPCM parameters:
  Epsilon                                         ...      78.3550
  Refrac                                          ...       1.3328
  Rsolv                                           ...       1.3000
  Surface type                                    ... GAUSSIAN VDW
  Discretization scheme                           ... Constant charge density
    Threshold for H atoms                         ...       5.0000 (charges/Ang^2)
    Threshold for non-H atoms                     ...       5.0000 (charges/Ang^2)
  Epsilon function type                           ...         CPCM
Solvent:                                          ... WATER
SMD-CDS solvent descriptors:
  Soln                                            ...       1.3328
  Soln25                                          ...       1.3323
  Sola                                            ...       0.0000
  Solb                                            ...       0.0000
  Solg                                            ...       0.0000
  Solc                                            ...       0.0000
  Solh                                            ...       0.0000
Radii:
  Scheme                                          ... Element-dependent radii
  Radius for C  used is    3.4960 Bohr (=   1.8500 Ang.)
  Radius for O  used is    2.8724 Bohr (=   1.5200 Ang.)
  Radius for H  used is    2.2677 Bohr (=   1.2000 Ang.)
Calculating surface                               ...        done! (  0.0s)
Cavity surface points                             ...         1516
Cavity Volume                                     ...     882.4748
Cavity Surface-area                               ...     587.4937
Calculating surface distance matrix               ...        done! (  0.0s)
Performing Cholesky decomposition & store         ...        done! (  0.1s)
Overall time for CPCM initialization              ...                 0.2s

----------------------------------------D-I-I-S--------------------------------------------
Iteration    Energy (Eh)           Delta-E    RMSDP     MaxDP     DIISErr   Damp  Time(sec)
-------------------------------------------------------------------------------------------
               ***  Starting incremental Fock matrix formation  ***
                              *** Initializing SOSCF ***
---------------------------------------S-O-S-C-F--------------------------------------
Iteration    Energy (Eh)           Delta-E    RMSDP     MaxDP     MaxGrad    Time(sec)
--------------------------------------------------------------------------------------
    1    -386.2566005653223442     0.00e+00  3.31e-07  8.53e-06  1.62e-06     3.6
               *** Restarting incremental Fock matrix formation ***
    2    -386.2566005652819854     4.04e-11  4.97e-07  1.49e-05  4.75e-06     3.5
                  *** Gradient check signals convergence ***

               *****************************************************
               *                     SUCCESS                       *
               *           SCF CONVERGED AFTER   2 CYCLES          *
               *****************************************************


SMD CDS free energy correction energy :                 4.78511     Kcal/mol
Total Energy after SMD CDS correction =              -386.248975003 Eh
             **** ENERGY FILE WAS UPDATED (xtb_opt.en.tmp) ****

----------------
TOTAL SCF ENERGY
----------------

Total Energy       :       -386.24897500283532 Eh          -10510.36895 eV

Components:
Nuclear Repulsion  :        395.75366574423089 Eh           10769.00473 eV
Electronic Energy  :       -781.99422657432422 Eh          -21279.14472 eV
One Electron Energy:      -1309.01501354507718 Eh          -35620.10941 eV
Two Electron Energy:        527.02078697075297 Eh           14340.96469 eV
CPCM Dielectric    :         -0.01603973518868 Eh              -0.43646 eV
SMD CDS (Gcds)     :          0.00762556244664 Eh               0.20750 eV

Virial components:
Potential Energy   :       -770.69552904112288 Eh          -20971.69153 eV
Kinetic Energy     :        384.44655403828756 Eh           10461.32258 eV
Virial Ratio       :          2.00468835250470

DFT components:
N(Alpha)           :       31.999988482299 electrons
N(Beta)            :       31.999988482299 electrons
N(Total)           :       63.999976964598 electrons
E(X)               :      -52.036562305646 Eh       
E(C)               :       -2.035460036543 Eh       
E(XC)              :      -54.072022342189 Eh       

CPCM Solvation Model Properties:
Surface-charge          :         -0.04717210269598
Corrected charge        :          0.00000000000000
Outlying charge corr.   :          0.00016832595945 Eh               0.00458 eV
Free-energy (cav+disp)  :          0.00762556244664 Eh               0.20750 eV

---------------
SCF CONVERGENCE
---------------

  Last Energy change         ...   -4.0359e-11  Tolerance :   1.0000e-07
  Last MAX-Density change    ...    1.4929e-05  Tolerance :   1.0000e-07
  Last RMS-Density change    ...    4.9697e-07  Tolerance :   5.0000e-09
  Last DIIS Error            ...    1.1915e-05  Tolerance :   1.0000e-07
  Last Orbital Gradient      ...    4.7526e-06  Tolerance :   1.0000e-04
  Last Orbital Rotation      ...    1.1487e-05  Tolerance :   1.0000e-04


----------------
ORBITAL ENERGIES
----------------

  NO   OCC          E(Eh)            E(eV) 
   0   2.0000     -19.000354      -517.0259 
   1   2.0000     -18.945267      -515.5269 
   2   2.0000     -10.164139      -276.5803 
   3   2.0000     -10.084715      -274.4191 
   4   2.0000     -10.037359      -273.1304 
   5   2.0000     -10.031914      -272.9823 
   6   2.0000     -10.020364      -272.6680 
   7   2.0000     -10.015088      -272.5244 
   8   2.0000      -1.067962       -29.0607 
   9   2.0000      -0.983245       -26.7555 
  10   2.0000      -0.768599       -20.9147 
  11   2.0000      -0.729310       -19.8455 
  12   2.0000      -0.671993       -18.2859 
  13   2.0000      -0.613505       -16.6943 
  14   2.0000      -0.565134       -15.3781 
  15   2.0000      -0.518305       -14.1038 
  16   2.0000      -0.466342       -12.6898 
  17   2.0000      -0.455454       -12.3935 
  18   2.0000      -0.441816       -12.0224 
  19   2.0000      -0.415477       -11.3057 
  20   2.0000      -0.403204       -10.9717 
  21   2.0000      -0.394051       -10.7227 
  22   2.0000      -0.364024        -9.9056 
  23   2.0000      -0.360982        -9.8228 
  24   2.0000      -0.351381        -9.5616 
  25   2.0000      -0.332984        -9.0610 
  26   2.0000      -0.319612        -8.6971 
  27   2.0000      -0.309572        -8.4239 
  28   2.0000      -0.303785        -8.2664 
  29   2.0000      -0.300414        -8.1747 
  30   2.0000      -0.278332        -7.5738 
  31   2.0000      -0.248282        -6.7561 
  32   0.0000      -0.028074        -0.7639 
  33   0.0000       0.073836         2.0092 
  34   0.0000       0.091401         2.4871 
  35   0.0000       0.121038         3.2936 
  36   0.0000       0.125152         3.4055 
  37   0.0000       0.134486         3.6596 
  38   0.0000       0.139825         3.8048 
  39   0.0000       0.148198         4.0327 
  40   0.0000       0.154078         4.1927 
  41   0.0000       0.158300         4.3075 
  42   0.0000       0.173898         4.7320 
*Only the first 10 virtual orbitals were printed.
Total SCF time: 0 days 0 hours 0 min 7 sec 
Finished LeanSCF after   7.9 sec

Maximum memory used throughout the entire LEANSCF-calculation: 31.0 MB


-------------------------------------------------------------------------------
                          DFT DISPERSION CORRECTION                            
                                                                               
                                DFTD4 V3.4.0                                   
-------------------------------------------------------------------------------
-------------------------   ----------------
Dispersion correction           -0.005176353
-------------------------   ----------------

------------------   -----------------
gCP correction             0.011478146
------------------   -----------------

-------------------------   --------------------
FINAL SINGLE POINT ENERGY      -386.242673210016
-------------------------   --------------------

------------------------------------------------------------------------------
                         ORCA SCF GRADIENT CALCULATION
------------------------------------------------------------------------------

Nuc. rep. gradient        (SHARK) ... done (  0.0 sec)
HCore & Overlap gradient  (SHARK) ... done (  0.3 sec)
Split-RIJ-J gradient      (SHARK) ... done (  1.8 sec)
XC gradient                       ... done (  6.7 sec)
CPCM gradient                     ... done (  1.0 sec)
SMD gradient                      ... done (  0.0 sec)
Dispersion correction             ... done (  0.0 sec)

-------------------
DISPERSION GRADIENT
-------------------

   1   C   :   -0.000081024   -0.000041636   -0.000022483
   2   C   :   -0.000070872   -0.000004128    0.000032893
   3   C   :   -0.000056933    0.000050862    0.000023072
   4   C   :    0.000003322    0.000027100   -0.000011616
   5   O   :    0.000018886    0.000043996   -0.000074727
   6   O   :    0.000048786   -0.000010847    0.000019213
   7   C   :    0.000082652   -0.000031290   -0.000003535
   8   C   :    0.000085011    0.000003347    0.000004310
   9   H   :   -0.000029343   -0.000023664   -0.000005667
  10   H   :   -0.000033205   -0.000012405   -0.000014172
  11   H   :   -0.000035858   -0.000023479   -0.000014772
  12   H   :   -0.000029007   -0.000009562    0.000020979
  13   H   :   -0.000027022    0.000000287    0.000014382
  14   H   :   -0.000016885    0.000028282    0.000024236
  15   H   :   -0.000015895    0.000027022   -0.000001600
  16   H   :    0.000030880   -0.000021390    0.000009069
  17   H   :    0.000031146   -0.000012113   -0.000008217
  18   H   :    0.000034243    0.000003336    0.000011278
  19   H   :    0.000029045   -0.000000679    0.000000811
  20   H   :    0.000032073    0.000006960   -0.000003454

Difference to translation invariance:
           :   -0.0000000000   -0.0000000000   -0.0000000000

Difference to rotation invariance:
           :   -0.0000000000   -0.0000000000   -0.0000000000

Norm of the Dispersion gradient    ...    0.0002526770
RMS gradient                       ...    0.0000326205
MAX gradient                       ...    0.0000850108
gCP correction                   ... done

------------------
CARTESIAN GRADIENT
------------------

   1   C   :   -0.000168217   -0.000464936   -0.000185249
   2   C   :    0.000191598    0.000294624    0.000461150
   3   C   :   -0.000507075    0.000099369    0.000125264
   4   C   :    0.000617051   -0.000414695    0.000064268
   5   O   :   -0.000037328    0.000034349    0.000185368
   6   O   :   -0.000032798    0.000078410   -0.000311266
   7   C   :   -0.000415535   -0.000366695    0.000093083
   8   C   :    0.000428619    0.000282220    0.000120095
   9   H   :   -0.000028498    0.000179290    0.000007491
  10   H   :   -0.000149702    0.000109424   -0.000101210
  11   H   :    0.000015448   -0.000010012   -0.000087842
  12   H   :   -0.000142997    0.000042481   -0.000071233
  13   H   :    0.000087803    0.000046347   -0.000152601
  14   H   :    0.000047338   -0.000119453   -0.000008447
  15   H   :    0.000147601   -0.000100015    0.000006702
  16   H   :    0.000061618    0.000124492   -0.000041620
  17   H   :    0.000057920    0.000108405    0.000050692
  18   H   :    0.000008492    0.000058154   -0.000036852
  19   H   :   -0.000083501    0.000004758   -0.000039743
  20   H   :   -0.000097836    0.000013483   -0.000078049

Difference to translation invariance:
           :    0.0000000000   -0.0000000000   -0.0000000000

Difference to rotation invariance:
           :    0.0000827362   -0.0002241037   -0.0002251872

Norm of the Cartesian gradient     ...    0.0015657726
RMS gradient                       ...    0.0002021404
MAX gradient                       ...    0.0006170509

-------
TIMINGS
-------

Total SCF gradient time     ....       10.766 sec

Densities                   ....       0.001 sec  (  0.0%)
One electron gradient       ....       0.340 sec  (  3.2%)
RI-J Coulomb gradient       ....       1.793 sec  ( 16.6%)
XC gradient                 ....       6.678 sec  ( 62.0%)
CPCM gradient               ....       1.038 sec  (  9.6%)
   A-Matrix (El+Nuc)        ....       0.079 sec  (  0.7%)
   Potential                ....       0.959 sec  (  8.9%)
SMD gradient                ....       0.012 sec  (  0.1%)

Maximum memory used throughout the entire SCFGRAD-calculation: 35.5 MB

------------------------------------------------------------------------------
                              ORCA PROPERTY CALCULATIONS
------------------------------------------------------------------------------

GBWName                                 ... xtb_opt.gbw
Number of atoms                         ...     20
Number of basis functions               ...    222
Max core memory                         ...   1024 MB

Electric properties:
Dipole moment                           ... YES
Quadrupole moment                       ...  NO
Static polarizability (Dipole/Dipole)   ...  NO
Static polarizability (Dipole/Quad.)    ...  NO
Static polarizability (Quad./Quad.)     ...  NO
Static polarizability (Velocity)        ...  NO

Atomic electric properties:
Dipole moment                           ...  NO
Quadrupole moment                       ...  NO
Static polarizability                   ...  NO

Choice of electric origin               ... Center of mass
Position of electric origin             ...    -0.005047     0.012564     0.012637

General magnetic properties:
Magnetizability                         ...  NO

EPR properties:
g-Tensor (aka g-matrix)                 ...  NO
Zero-Field splitting spin-orbit         ...  NO
Zero-field splitting spin-spin          ...  NO
Hyperfine couplings                     ...  NO (   0 nuclei)
Quadrupole couplings                    ...  NO (   0 nuclei)
Contact density                         ...  NO (   0 nuclei)

NMR properties:
Chemical shifts                         ...  NO (   0 nuclei)
Spin-rotation constants                 ...  NO (   0 nuclei)
Spin-spin couplings                     ...  NO (   0 nuclei,    0 pairs)

Choice of magnetic origin               ... GIAO
Position of magnetic origin             ...     0.000000     0.000000     0.000000

Properties with geometric perturbations:
SCF Hessian                             ...  NO
IR spectrum                             ...  NO
VCD spectrum                            ...  NO
X-ray spectroscopy properties:
SCF XES/XAS/RIXS spectra                ...  NO


-------------
DIPOLE MOMENT
-------------

Method             : SCF
Type of density    : Electron Density
Multiplicity       :   1
Irrep              :   0
Energy             :  -386.2489750028353228 Eh
Relativity type    : 
Basis              : AO
                                X                 Y                 Z
Electronic contribution:      1.820454737       1.894479130      -0.730895956
Nuclear contribution   :     -1.740973283      -2.340075194       1.788620262
                        -----------------------------------------
Total Dipole Moment    :      0.079481453      -0.445596064       1.057724307
                        -----------------------------------------
Magnitude (a.u.)       :      1.150501570
Magnitude (Debye)      :      2.924342590



--------------------
Rotational spectrum 
--------------------
 
Rotational constants in cm-1:             0.139991             0.035569             0.034444 
Rotational constants in MHz :          4196.820265          1066.331018          1032.597022 

Dipole components along the rotational axes: 
x,y,z [a.u.] :     0.041376    -1.078668     0.398016 
x,y,z [Debye]:     0.105169    -2.741757     1.011677 

 

Dipole moment calculation done in   0.0 sec 

Maximum memory used throughout the entire PROP-calculation: 14.0 MB

--------------------------------
SUGGESTED CITATIONS FOR THIS RUN
--------------------------------

Below you find a list of papers that are relevant to this ORCA run
We neither can nor want to force you to cite these papers, but we appreciate if you do
You receive ORCA, which is the product of decades of hard work by many enthusiastic individuals, for free
The only thing we kindly ask in return is that you cite our papers,
We deeply appreciate it, if you show your appreciation for ORCA by not just citing the generic ORCA reference.

Please note that relegating all ORCA citations to the supporting information does *not* help us.
SI sections are not indexed - citations you put there will not count into any citation statistics
But we need these citations in order to attract the funding resources that allow us to do what we are doing

Therefore, if you are a happy ORCA user, please consider citing a few of the papers listed below in the main body of your paper

In addition to the list printed below, the program has created the file xtb_opt.bibtex that contains the list in bibtex format
You can import this file easily into all common literature databanks and citation aid programs


List of essential papers. We consider these as the minimum necessary citations

  1. Neese,F.
     Software update: the ORCA program system, version 5.0
     WIRES Comput. Molec. Sci., 2022 12(1)e1606
     doi.org/10.1002/wcms.1606
  2. Grimme,S.; Hansen,A.; Ehlert,S.; Mewes,J.
     r2SCAN-3c: A 'Swiss army knife' composite electronic-structure method
     J. Chem. Phys., 2021 154 064103
     doi.org/10.1063/5.0040021

List of papers to cite with high priority. The work reported in these papers was absolutely
necessary for this run to complete.
Our perspective: the developers of density functionals and basis sets usually get cited in chemistry papers
Good! But without the algorithms to do something with them, the functionals or basis sets would not do anything.
Hence, in our opinion, the algorithm design and method developments papers are equally worthy of getting cited

  1. Neese,F.
     An improvement of the resolution of the identity approximation for the formation of the Coulomb matrix
     J. Comp. Chem., 2003 24(14)1740-1747
     doi.org/10.1002/jcc.10318
  2. Garcia-Rates,M.; Neese,F.
     Effect of the Solute Cavity on the Solvation Energy and its Derivatives within the Framework of the Gaussian Charge Scheme
     J. Comput. Chem., 2020 41 922-939
     doi.org/10.1002/jcc.26139
  3. Neese,F.
     The SHARK Integral Generation and Digestion System
     J. Comp. Chem., 2022  1-16
     doi.org/10.1002/jcc.26942
  4. Lehtola,S.; Steigemann,C.; Oliveira,M.; Marques,M.
     Recent developments in Libxc - A comprehensive library of functionals for density functional theory
     Software X, 2018 7 
     doi.org/10.1016/j.softx.2017.11.002
  5. Caldeweyher,E.; Bannwarth,C.; Grimme,S.
     Extension of the D3 dispersion coefficient model
     J. Chem. Phys., 2017 147 034112-XXXX
     doi.org/10.1063/1.4993215
  6. Caldeweyher,E.; Ehlert,S.; Hansen,A.; Neugebauer,H.; Spicher,S.; Bannwarth,C.; Grimme,S.
     A generally applicable atomic-charge dependent London dispersion correction
     J. Chem. Phys., 2019 150 154122-XXXX
     doi.org/10.1063/1.5090222
  7. Caldeweyher,E.; Mewes,J.; Ehlert,S.; Grimme,S.
     Extension and evaluation of the D4 London-dispersion model for periodic systems
     Phys. Chem. Chem. Phys., 2020 22(16)8499-8512
     doi.org/10.1039/D0CP00502A

List of suggested additional citations. These are papers that are important in the 'surrounding' of 
of this run, or papers that preceded the highly important papers. If you like your results we are grateful for a citation.

  1. Neese,F.
     The ORCA program system
     WIRES Comput. Molec. Sci., 2012 2(1)73-78
     doi.org/10.1002/wcms.81
  2. Neese,F.
     Software update: the ORCA program system, version 4.0
     WIRES Comput. Molec. Sci., 2018 8(1)1-6
     doi.org/10.1002/wcms.1327
  3. Neese,F.; Wennmohs,F.; Becker,U.; Riplinger,C.
     The ORCA quantum chemistry program package
     J. Chem. Phys., 2020 152 Art. No. L224108
     doi.org/10.1063/5.0004608

List of optional additional citations

  1. Neese,F.
     Approximate second-order SCF convergence for spin unrestricted wavefunctions
     Chem. Phys. Lett., 2000 325(1-3)93-98
     doi.org/10.1016/s0009-2614(00)00662-x

Timings for individual modules:

Sum of individual times          ...       21.066 sec (=   0.351 min)
Startup calculation              ...        1.704 sec (=   0.028 min)   8.1 %
SCF iterations                   ...        8.343 sec (=   0.139 min)  39.6 %
Property calculations            ...        0.121 sec (=   0.002 min)   0.6 %
SCF Gradient evaluation          ...       10.898 sec (=   0.182 min)  51.7 %
                             ****ORCA TERMINATED NORMALLY****
TOTAL RUN TIME: 0 days 0 hours 0 minutes 22 seconds 7 msec
  ------------------------------------------------------------------------
          * successful ORCA run, taking over control again...

         :::::::::::::::::::::::::::::::::::::::::::::::::::::
         ::                  ORCA SUMMARY                   ::
         :::::::::::::::::::::::::::::::::::::::::::::::::::::
         :: total energy            -386.242673210016 Eh    ::
         :: gradient norm              0.001565772625 Eh/a0 ::
         :: HOMO-LUMO gap              0.000000000000 eV    ::
         :::::::::::::::::::::::::::::::::::::::::::::::::::::

      ----------------------------------------------------------- 
     |                       L-ANC optimizer                     |
      ----------------------------------------------------------- 
          low memory version by Sebastian Ehlert

          ...................................................
          :                      SETUP                      :
          :.................................................:
          :   energy convergence        0.5000000E-05 Eh    :
          :   grad. convergence         0.1000000E-02 Eh/a0 :
          :   optimization log               true           :
          :   writing optlog all                1     steps :
          :   Hessian reset                     8     steps :
          :   maximium step len.        1.0000000     a0    :
          :   LBFGS images                      8           :
          ...................................................
 * calculating model hessian...
Using Lindh-Hessian (1995)
 Shifting diagonal of input Hessian by   1.000000000000000E-002
 Lowest  eigenvalues of input Hessian
    0.000000    0.000000    0.000000    0.000000    0.000000    0.000000
    0.011179    0.011851    0.014005    0.015424    0.018720    0.019956
    0.021984    0.030017    0.034492    0.047489    0.050263    0.054131
 Highest eigenvalues
    1.203742    1.226050    1.249985    1.287075    1.725429    2.270320
 

........................................................................
.............................. CYCLE    1 ..............................
........................................................................
                         * ORCA takes the control...
  ------------------------------------------------------------------------

                                 *****************
                                 * O   R   C   A *
                                 *****************

                                            #,                                       
                                            ###                                      
                                            ####                                     
                                            #####                                    
                                            ######                                   
                                           ########,                                 
                                     ,,################,,,,,                         
                               ,,#################################,,                 
                          ,,##########################################,,             
                       ,#########################################, ''#####,          
                    ,#############################################,,   '####,        
                  ,##################################################,,,,####,       
                ,###########''''           ''''###############################       
              ,#####''   ,,,,##########,,,,          '''####'''          '####       
            ,##' ,,,,###########################,,,                        '##       
           ' ,,###''''                  '''############,,,                           
         ,,##''                                '''############,,,,        ,,,,,,###''
      ,#''                                            '''#######################'''  
     '                                                          ''''####''''         
             ,#######,   #######,   ,#######,      ##                                
            ,#'     '#,  ##    ##  ,#'     '#,    #''#        ,####,   ,####,        
            ##       ##  ##   ,#'  ##            #'  '#       #'       #'  '#        
            ##       ##  #######   ##           ,######,      #####,   #    #        
            '#,     ,#'  ##    ##  '#,     ,#' ,#      #,     #,   #   #,  ,#        
             '#######'   ##     ##  '#######'  #'      '#     '####' # '####'        



                #########################################################
                #                        -***-                          #
                #          Department of theory and spectroscopy        #
                #                                                       #
                #                      Frank Neese                      #
                #                                                       #
                #     Directorship, Architecture, Infrastructure        #
                #                    SHARK, DRIVERS                     #
                #        Core code/Algorithms in most modules           #
                #                                                       #
                #        Max Planck Institute fuer Kohlenforschung      #
                #                Kaiser Wilhelm Platz 1                 #
                #                 D-45470 Muelheim/Ruhr                 #
                #                      Germany                          #
                #                                                       #
                #                  All rights reserved                  #
                #                        -***-                          #
                #########################################################


                         Program Version 6.0.0  -   RELEASE  -


 With contributions from (in alphabetic order):
   Daniel Aravena         : Magnetic Suceptibility
   Michael Atanasov       : Ab Initio Ligand Field Theory (pilot matlab implementation)
   Alexander A. Auer      : GIAO ZORA, VPT2 properties, NMR spectrum
   Ute Becker             : All parallelization in ORCA, NUMFREQ, NUMCALC
   Giovanni Bistoni       : ED, misc. LED, open-shell LED, HFLD
   Martin Brehm           : Molecular dynamics
   Dmytro Bykov           : pre 5.0 version of the SCF Hessian
   Marcos Casanova-Páez   : Triplet and SCS-CIS(D). UHF-(DLPNO)-IP/EA/STEOM-CCSD. UHF-CVS-IP/STEOM-CCSD
   Vijay G. Chilkuri      : MRCI spin determinant printing, contributions to CSF-ICE
   Pauline Colinet        : FMM embedding
   Dipayan Datta          : RHF DLPNO-CCSD density
   Achintya Kumar Dutta   : EOM-CC, STEOM-CC
   Nicolas Foglia         : Exact transition moments, OPA infrastructure, MCD improvements
   Dmitry Ganyushin       : Spin-Orbit,Spin-Spin,Magnetic field MRCI
   Miquel Garcia          : C-PCM and meta-GGA Hessian, CCSD/C-PCM, Gaussian charge scheme
   Tiago L. C. Gouveia    : GS-ROHF, GS-ROCIS
   Yang Guo               : DLPNO-NEVPT2, F12-NEVPT2, CIM, IAO-localization
   Andreas Hansen         : Spin unrestricted coupled pair/coupled cluster methods
   Ingolf Harden          : AUTO-CI MPn and infrastructure 
   Benjamin Helmich-Paris : MC-RPA, TRAH-(SCF,CASSCF), AVAS, COSX integrals, SCF dyn. polar.
   Lee Huntington         : MR-EOM, pCC
   Robert Izsak           : Overlap fitted RIJCOSX, COSX-SCS-MP3, EOM
   Riya Kayal             : Wick's Theorem for AUTO-CI, AUTO-CI UHF-CCSDT
   Emily Kempfer          : AUTO-CI, RHF CISDT and CCSDT
   Christian Kollmar      : KDIIS, OOCD, Brueckner-CCSD(T), CCSD density, CASPT2, CASPT2-K, improved NEVPT2
   Axel Koslowski         : Symmetry handling
   Simone Kossmann        : Meta GGA functionals, TD-DFT gradient, OOMP2, (MP2 Hessian; deprecated post 5.0)
   Lucas Lang             : DCDCAS
   Marvin Lechner         : AUTO-CI (C++ implementation), FIC-MRCC
   Spencer Leger          : CASSCF response
   Dagmar Lenk            : GEPOL surface, SMD, ORCA-2-JSON
   Dimitrios Liakos       : Extrapolation schemes; Compound Job, initial MDCI parallelization
   Dimitrios Manganas     : Further ROCIS development; embedding schemes. LFT, Crystal Embedding
   Dimitrios Pantazis     : SARC Basis sets
   Anastasios Papadopoulos: AUTO-CI, single reference methods and gradients
   Taras Petrenko         : pre 6.0 DFT Hessian and TD-DFT gradient, (ASA, deprecated), ECA, 1-Electron XAS/XES, NRVS
   Peter Pinski           : DLPNO-MP2, DLPNO-MP2 Gradient
   Christoph Reimann      : Effective Core Potentials
   Marius Retegan         : Local ZFS, SOC
   Christoph Riplinger    : Optimizer, TS searches, QM/MM, DLPNO-CCSD(T), (RO)-DLPNO pert. Triples
   Michael Roemelt        : Original ROCIS implementation
   Masaaki Saitow         : Open-shell DLPNO-CCSD energy and density
   Barbara Sandhoefer     : DKH picture change effects
   Kantharuban Sivalingam : CASSCF convergence/infrastructure, NEVPT2 and variants, FIC-MRCI
   Bernardo de Souza      : ESD, SOC TD-DFT
   Georgi Stoychev        : AutoAux, RI-MP2 NMR, DLPNO-MP2 response, X2C
   Van Anh Tran           : RI-MP2 g-tensors
   Willem Van den Heuvel  : Paramagnetic NMR
   Zikuan Wang            : NOTCH, Electric field optimization 
   Frank Wennmohs         : Technical directorship and infrastructure
   Hang Xu                : AUTO-CI-Response properties 


 We gratefully acknowledge several colleagues who have allowed us to
 interface, adapt or use parts of their codes:
   Stefan Grimme, W. Hujo, H. Kruse, P. Pracht,  : VdW corrections, initial TS optimization,
                  C. Bannwarth, S. Ehlert,         DFT functionals, gCP, sTDA/sTD-DF
                  L. Wittmann, M. Mueller
   Ed Valeev, F. Pavosevic, A. Kumar             : LibInt (2-el integral package), F12 methods
   Garnet Chan, S. Sharma, J. Yang, R. Olivares  : DMRG
   Ulf Ekstrom                                   : XCFun DFT Library
   Mihaly Kallay                                 : mrcc  (arbitrary order and MRCC methods)
   Frank Weinhold                                : gennbo (NPA and NBO analysis)
   Simon Mueller                                 : openCOSMO-RS
   Christopher J. Cramer and Donald G. Truhlar   : smd solvation model
   Lars Goerigk                                  : TD-DFT with DH, B97 family of functionals
   V. Asgeirsson, H. Jonsson                     : NEB implementation
   FAccTs GmbH                                   : IRC, NEB, NEB-TS, DLPNO-Multilevel, CI-OPT
                                                   MM, QMMM, 2- and 3-layer-ONIOM, Crystal-QMMM,
                                                   LR-CPCM, SF, NACMEs, symmetry and pop. for TD-DFT,
                                                   nearIR, NL-DFT gradient (VV10), updates on ESD,
                                                   ML-optimized integration grids, MBIS, APM,
                                                   GOAT, DOCKER, SOLVATOR, interface openCOSMO-RS
   S Lehtola, MJT Oliveira, MAL Marques          : LibXC Library
   Liviu Ungur et al                             : ANISO software


 Your calculation uses the libint2 library for the computation of 2-el integrals
 For citations please refer to: http://libint.valeyev.net

 Your ORCA version has been built with support for libXC version: 6.2.2
 For citations please refer to: https://libxc.gitlab.io

 This ORCA versions uses:
   CBLAS   interface :  Fast vector & matrix operations
   LAPACKE interface :  Fast linear algebra routines
   SCALAPACK package :  Parallel linear algebra routines
   Shared memory     :  Shared parallel matrices
   BLAS/LAPACK       :  OpenBLAS 0.3.27  USE64BITINT DYNAMIC_ARCH NO_AFFINITY SkylakeX SINGLE_THREADED
        Core in use  :  SkylakeX
   Copyright (c) 2011-2014, The OpenBLAS Project




***************************************
The coordinates will be read from file: xtb_opt.xyz
***************************************


Your calculation utilizes the geometrical counterpoise correction gCP
Please cite in your paper:
H.Kruse, S. Grimme J.Chem.Phys., 136, (2012), 154101 
   

Your calculation utilizes the atom-pairwise dispersion correction
based on EEQ partial charges (D4)


Your calculation utilizes the SMD solvation module
Please cite in your paper:
A.V. Marenich, C.J. Cramer, D.G. Truhlar J. Phys. Chem. B, 113, (2009), 6378 

================================================================================

----- Orbital basis set information -----
Your calculation utilizes the basis: def2-mTZVPP
   Stefan Grimme, Andreas Hansen, Sebastian Ehlert, and Jan-Michael Mewes 
   J. Chem. Phys. 154, 064103 (2021). DOI: 10.1063/5.0040021

----- AuxJ basis set information -----
Your calculation utilizes the auxiliary basis: def2/J
   F. Weigend, Phys. Chem. Chem. Phys. 8, 1057 (2006).

================================================================================
                                        WARNINGS
                       Please study these warnings very carefully!
================================================================================

WARNING: Old DensityContainer found on disk!
         Will remove this file - 
         If you want to keep old densities, please start your calculation with a different basename. 

Using LibXC functional ID 497 : Re-regularized SCAN exchange by Furness et al
[ 1]  J. W. Furness, A. D. Kaplan, J. Ning, J. P. Perdew, and J. Sun.,  J. Phys. Chem. Lett. 11, 8208-8215 (2020)
[ 2]  J. W. Furness, A. D. Kaplan, J. Ning, J. P. Perdew, and J. Sun.,  J. Phys. Chem. Lett. 11, 9248-9248 (2020)
Using LibXC functional ID 498 : Re-regularized SCAN correlation by Furness et al
[ 1]  J. W. Furness, A. D. Kaplan, J. Ning, J. P. Perdew, and J. Sun.,  J. Phys. Chem. Lett. 11, 8208-8215 (2020)
[ 2]  J. W. Furness, A. D. Kaplan, J. Ning, J. P. Perdew, and J. Sun.,  J. Phys. Chem. Lett. 11, 9248-9248 (2020)
Using LibXC functional ID 497 : Re-regularized SCAN exchange by Furness et al
[ 1]  J. W. Furness, A. D. Kaplan, J. Ning, J. P. Perdew, and J. Sun.,  J. Phys. Chem. Lett. 11, 8208-8215 (2020)
[ 2]  J. W. Furness, A. D. Kaplan, J. Ning, J. P. Perdew, and J. Sun.,  J. Phys. Chem. Lett. 11, 9248-9248 (2020)
Using LibXC functional ID 498 : Re-regularized SCAN correlation by Furness et al
[ 1]  J. W. Furness, A. D. Kaplan, J. Ning, J. P. Perdew, and J. Sun.,  J. Phys. Chem. Lett. 11, 8208-8215 (2020)
[ 2]  J. W. Furness, A. D. Kaplan, J. Ning, J. P. Perdew, and J. Sun.,  J. Phys. Chem. Lett. 11, 9248-9248 (2020)

================================================================================
                                       INPUT FILE
================================================================================
NAME = xtb_opt.inp
|  1> ! r2scan-3c def2/J RI DEFGRID2 scfconv7 ENGRAD tightSCF miniprint
|  2> %cpcm
|  3>     smd true
|  4>     smdsolvent "water"
|  5> end
|  6> * xyzfile 0 1 xtb_opt.xyz
|  7> 
|  8>                          ****END OF INPUT****
================================================================================

                     *******************************
                     * Energy+Gradient Calculation *
                     *******************************

---------------------------------
CARTESIAN COORDINATES (ANGSTROEM)
---------------------------------
  C     -2.645423   -1.010939   -0.463344
  C     -2.249630   -0.232327    0.786792
  C     -1.300199    0.938748    0.480285
  C     -0.039663    0.479883   -0.197078
  O      0.260801    0.723810   -1.355506
  O      0.721915   -0.267663    0.624974
  C      1.984422   -0.778068    0.087676
  C      3.068653    0.271834    0.169995
  H     -3.360796   -1.802128   -0.218948
  H     -3.110022   -0.352978   -1.206023
  H     -1.775267   -1.484663   -0.932558
  H     -1.778601   -0.901453    1.514683
  H     -3.142399    0.183298    1.266029
  H     -1.028753    1.448448    1.410950
  H     -1.786848    1.656705   -0.184445
  H      2.211593   -1.636487    0.722634
  H      1.817936   -1.121582   -0.936364
  H      3.205561    0.607482    1.202023
  H      4.011854   -0.162123   -0.176946
  H      2.837669    1.136283   -0.457971

----------------------------
CARTESIAN COORDINATES (A.U.)
----------------------------
  NO LB      ZA    FRAG     MASS         X           Y           Z
   0 C     6.0000    0    12.011   -4.999125   -1.910398   -0.875593
   1 C     6.0000    0    12.011   -4.251185   -0.439035    1.486822
   2 C     6.0000    0    12.011   -2.457020    1.773976    0.907608
   3 C     6.0000    0    12.011   -0.074953    0.906848   -0.372423
   4 O     8.0000    0    15.999    0.492843    1.367803   -2.561536
   5 O     8.0000    0    15.999    1.364221   -0.505811    1.181030
   6 C     6.0000    0    12.011    3.750013   -1.470335    0.165684
   7 C     6.0000    0    12.011    5.798914    0.513692    0.321245
   8 H     1.0000    0     1.008   -6.350985   -3.405529   -0.413752
   9 H     1.0000    0     1.008   -5.877091   -0.667032   -2.279053
  10 H     1.0000    0     1.008   -3.354768   -2.805606   -1.762279
  11 H     1.0000    0     1.008   -3.361069   -1.703499    2.862337
  12 H     1.0000    0     1.008   -5.938274    0.346384    2.392447
  13 H     1.0000    0     1.008   -1.944061    2.737169    2.666310
  14 H     1.0000    0     1.008   -3.376653    3.130719   -0.348551
  15 H     1.0000    0     1.008    4.179304   -3.092512    1.365581
  16 H     1.0000    0     1.008    3.435401   -2.119483   -1.769471
  17 H     1.0000    0     1.008    6.057633    1.147975    2.271495
  18 H     1.0000    0     1.008    7.581306   -0.306368   -0.334379
  19 H     1.0000    0     1.008    5.362418    2.147263   -0.865439

------------------------------------------------------------------------------
                   ___                                                        
                  /   \      - P O W E R E D   B Y -                         
                 /     \                                                     
                 |  |  |   _    _      __       _____    __    __             
                 |  |  |  | |  | |    /  \     |  _  \  |  |  /  |          
                  \  \/   | |  | |   /    \    | | | |  |  | /  /          
                 / \  \   | |__| |  /  /\  \   | |_| |  |  |/  /          
                |  |  |   |  __  | /  /__\  \  |    /   |      \           
                |  |  |   | |  | | |   __   |  |    \   |  |\   \          
                \     /   | |  | | |  |  |  |  | |\  \  |  | \   \       
                 \___/    |_|  |_| |__|  |__|  |_| \__\ |__|  \__/        
                                                                              
                      - O R C A' S   B I G   F R I E N D -                    
                                      &                                       
                       - I N T E G R A L  F E E D E R -                       
                                                                              
 v1 FN, 2020, v2 2021, v3 2022-2024                                           
------------------------------------------------------------------------------


----------------------
SHARK INTEGRAL PACKAGE
----------------------

Number of atoms                             ...     20
Number of basis functions                   ...    222
Number of shells                            ...    110
Maximum angular momentum                    ...      2
Integral batch strategy                     ... SHARK/LIBINT Hybrid
RI-J (if used) integral strategy            ... SPLIT-RIJ (Revised 2003 algorithm where possible)
Printlevel                                  ...      1
Contraction scheme used                     ... SEGMENTED contraction
Prescreening option                         ... SCHWARTZ
   Thresh                                   ... 3.000e-11
   Tcut                                     ... 1.000e-12
   Tpresel                                  ... 1.000e-12 
Coulomb Range Separation                    ... NOT USED
Exchange Range Separation                   ... NOT USED
Multipole approximations                    ... NOT USED
Finite Nucleus Model                        ... NOT USED
CABS basis                                  ... NOT available
Auxiliary Coulomb fitting basis             ... AVAILABLE
   # of basis functions in Aux-J            ...    524
   # of shells in Aux-J                     ...    180
   Maximum angular momentum in Aux-J        ...      4
Auxiliary J/K fitting basis                 ... NOT available
Auxiliary Correlation fitting basis         ... NOT available
Auxiliary 'external' fitting basis          ... NOT available

Checking pre-screening integrals            ... done (  0.0 sec) Dimension = 110
Check shell pair data                       ... done (  0.0 sec)
Shell pair information
Shell pair cut-off parameter TPreSel        ...   1.0e-12
Total number of shell pairs                 ...      6105
Shell pairs after pre-screening             ...      5416
Total number of primitive shell pairs       ...     21533
Primitive shell pairs kept                  ...     13595
          la=0 lb=0:   1814 shell pairs
          la=1 lb=0:   2042 shell pairs
          la=1 lb=1:    592 shell pairs
          la=2 lb=0:    581 shell pairs
          la=2 lb=1:    334 shell pairs
          la=2 lb=2:     53 shell pairs

Calculating one electron integrals          ... done (  0.0 sec)
Calculating RI/J V-Matrix + Cholesky decomp.... done (  0.1 sec)
Calculating Nuclear repulsion               ... done (  0.0 sec) ENN=    395.803733505429 Eh

Diagonalization of the overlap matrix:
Smallest eigenvalue                        ... 1.703e-04
Time for diagonalization                   ...    0.008 sec
Threshold for overlap eigenvalues          ... 1.000e-07
Number of eigenvalues below threshold      ... 0
Time for construction of square roots      ...    0.020 sec
Total time needed                          ...    0.040 sec

-------------------
DFT GRID GENERATION
-------------------

General Integration Accuracy     IntAcc      ... 4.388
Radial Grid Type                 RadialGrid  ... OptM3 with GC (2021)
Angular Grid (max. ang.)         AngularGrid ... 4 (Lebedev-302)
Angular grid pruning method      GridPruning ... 4 (adaptive)
Weight generation scheme         WeightScheme... mBecke (2022)
Basis function cutoff            BFCut       ... 1.0000e-11
Integration weight cutoff        WCut        ... 1.0000e-14
Partially contracted basis set               ... off
Rotationally invariant grid construction     ... off
Angular grids for H and He will be reduced by one unit
Diffuse basis detected: some atoms will have their outermost
                        angular grid increased by 1.

Total number of grid points                  ...    87427
Total number of batches                      ...     1375
Average number of points per batch           ...       63
Average number of grid points per atom       ...     4371
Initializing property integral containers    ... done (  0.0 sec)

SHARK setup successfully completed in   1.3 seconds

Maximum memory used throughout the entire STARTUP-calculation: 39.6 MB
Occupation numbers will be reassigned to an Aufbau configuration
             **** ENERGY FILE WAS UPDATED (xtb_opt.en.tmp) ****
Finished Guess after   0.4 sec
Maximum memory used throughout the entire GUESS-calculation: 15.3 MB
--------------------
CPCM SOLVATION MODEL
--------------------
CPCM parameters:
  Epsilon                                         ...      78.3550
  Refrac                                          ...       1.3328
  Rsolv                                           ...       1.3000
  Surface type                                    ... GAUSSIAN VDW
  Discretization scheme                           ... Constant charge density
    Threshold for H atoms                         ...       5.0000 (charges/Ang^2)
    Threshold for non-H atoms                     ...       5.0000 (charges/Ang^2)
  Epsilon function type                           ...         CPCM
Solvent:                                          ... WATER
SMD-CDS solvent descriptors:
  Soln                                            ...       1.3328
  Soln25                                          ...       1.3323
  Sola                                            ...       0.0000
  Solb                                            ...       0.0000
  Solg                                            ...       0.0000
  Solc                                            ...       0.0000
  Solh                                            ...       0.0000
Radii:
  Scheme                                          ... Element-dependent radii
  Radius for C  used is    3.4960 Bohr (=   1.8500 Ang.)
  Radius for O  used is    2.8724 Bohr (=   1.5200 Ang.)
  Radius for H  used is    2.2677 Bohr (=   1.2000 Ang.)
Calculating surface                               ...        done! (  0.0s)
Cavity surface points                             ...         1517
Cavity Volume                                     ...     882.4228
Cavity Surface-area                               ...     587.4727
Calculating surface distance matrix               ...        done! (  0.0s)
Performing Cholesky decomposition & store         ...        done! (  0.1s)
Overall time for CPCM initialization              ...                 0.1s

----------------------------------------D-I-I-S--------------------------------------------
Iteration    Energy (Eh)           Delta-E    RMSDP     MaxDP     DIISErr   Damp  Time(sec)
-------------------------------------------------------------------------------------------
               ***  Starting incremental Fock matrix formation  ***
                              *** Initializing SOSCF ***
---------------------------------------S-O-S-C-F--------------------------------------
Iteration    Energy (Eh)           Delta-E    RMSDP     MaxDP     MaxGrad    Time(sec)
--------------------------------------------------------------------------------------
    1    -386.2565899242775345     0.00e+00  3.01e-05  4.60e-04  9.80e-05     3.7
               *** Restarting incremental Fock matrix formation ***
    2    -386.2566009157229132    -1.10e-05  1.29e-05  2.42e-04  8.69e-05     3.7
    3    -386.2566015890450331    -6.73e-07  5.06e-06  1.43e-04  3.58e-05     2.8
    4    -386.2566015349170243     5.41e-08  3.09e-06  8.55e-05  5.74e-05     2.7
                 **** Energy Check signals convergence ****

               *****************************************************
               *                     SUCCESS                       *
               *           SCF CONVERGED AFTER   4 CYCLES          *
               *****************************************************


SMD CDS free energy correction energy :                 4.78179     Kcal/mol
Total Energy after SMD CDS correction =              -386.248981263 Eh
             **** ENERGY FILE WAS UPDATED (xtb_opt.en.tmp) ****

----------------
TOTAL SCF ENERGY
----------------

Total Energy       :       -386.24898126276599 Eh          -10510.36912 eV

Components:
Nuclear Repulsion  :        395.80373350542931 Eh           10770.36714 eV
Electronic Energy  :       -782.04428242141717 Eh          -21280.50680 eV
One Electron Energy:      -1309.11546888038538 Eh          -35622.84294 eV
Two Electron Energy:        527.07118645896821 Eh           14342.33613 eV
CPCM Dielectric    :         -0.01605261892914 Eh              -0.43681 eV
SMD CDS (Gcds)     :          0.00762027215100 Eh               0.20736 eV

Virial components:
Potential Energy   :       -770.69457549698291 Eh          -20971.66558 eV
Kinetic Energy     :        384.44559423421697 Eh           10461.29646 eV
Virial Ratio       :          2.00469087708533

DFT components:
N(Alpha)           :       31.999990634243 electrons
N(Beta)            :       31.999990634243 electrons
N(Total)           :       63.999981268485 electrons
E(X)               :      -52.036193736302 Eh       
E(C)               :       -2.035479263702 Eh       
E(XC)              :      -54.071673000004 Eh       

CPCM Solvation Model Properties:
Surface-charge          :         -0.04716925655231
Corrected charge        :          0.00000000000000
Outlying charge corr.   :          0.00016832054665 Eh               0.00458 eV
Free-energy (cav+disp)  :          0.00762027215100 Eh               0.20736 eV

---------------
SCF CONVERGENCE
---------------

  Last Energy change         ...   -5.4128e-08  Tolerance :   1.0000e-07
  Last MAX-Density change    ...    8.5495e-05  Tolerance :   1.0000e-07
  Last RMS-Density change    ...    3.0884e-06  Tolerance :   5.0000e-09
  Last DIIS Error            ...    1.0766e-03  Tolerance :   1.0000e-07
  Last Orbital Gradient      ...    5.7354e-05  Tolerance :   1.0000e-04
  Last Orbital Rotation      ...    8.2525e-05  Tolerance :   1.0000e-04


----------------
ORBITAL ENERGIES
----------------

  NO   OCC          E(Eh)            E(eV) 
   0   2.0000     -19.000703      -517.0354 
   1   2.0000     -18.945340      -515.5289 
   2   2.0000     -10.164114      -276.5796 
   3   2.0000     -10.084705      -274.4188 
   4   2.0000     -10.037390      -273.1313 
   5   2.0000     -10.031952      -272.9833 
   6   2.0000     -10.020293      -272.6660 
   7   2.0000     -10.014925      -272.5200 
   8   2.0000      -1.067829       -29.0571 
   9   2.0000      -0.983213       -26.7546 
  10   2.0000      -0.768696       -20.9173 
  11   2.0000      -0.729373       -19.8472 
  12   2.0000      -0.672064       -18.2878 
  13   2.0000      -0.613426       -16.6922 
  14   2.0000      -0.565114       -15.3775 
  15   2.0000      -0.518336       -14.1046 
  16   2.0000      -0.466345       -12.6899 
  17   2.0000      -0.455472       -12.3940 
  18   2.0000      -0.441821       -12.0226 
  19   2.0000      -0.415458       -11.3052 
  20   2.0000      -0.403255       -10.9731 
  21   2.0000      -0.394052       -10.7227 
  22   2.0000      -0.363978        -9.9043 
  23   2.0000      -0.361001        -9.8233 
  24   2.0000      -0.351429        -9.5629 
  25   2.0000      -0.332968        -9.0605 
  26   2.0000      -0.319611        -8.6971 
  27   2.0000      -0.309557        -8.4235 
  28   2.0000      -0.303774        -8.2661 
  29   2.0000      -0.300368        -8.1734 
  30   2.0000      -0.278411        -7.5760 
  31   2.0000      -0.248363        -6.7583 
  32   0.0000      -0.028182        -0.7669 
  33   0.0000       0.073729         2.0063 
  34   0.0000       0.091315         2.4848 
  35   0.0000       0.121060         3.2942 
  36   0.0000       0.125098         3.4041 
  37   0.0000       0.134472         3.6592 
  38   0.0000       0.139855         3.8057 
  39   0.0000       0.148225         4.0334 
  40   0.0000       0.154097         4.1932 
  41   0.0000       0.158292         4.3073 
  42   0.0000       0.173864         4.7311 
*Only the first 10 virtual orbitals were printed.
Total SCF time: 0 days 0 hours 0 min 13 sec 
Finished LeanSCF after  13.9 sec

Maximum memory used throughout the entire LEANSCF-calculation: 31.1 MB


-------------------------------------------------------------------------------
                          DFT DISPERSION CORRECTION                            
                                                                               
                                DFTD4 V3.4.0                                   
-------------------------------------------------------------------------------
-------------------------   ----------------
Dispersion correction           -0.005178026
-------------------------   ----------------

------------------   -----------------
gCP correction             0.011476996
------------------   -----------------

-------------------------   --------------------
FINAL SINGLE POINT ENERGY      -386.242682292605
-------------------------   --------------------

[...]
  Last RMS-Density change    ...    9.3015e-07  Tolerance :   5.0000e-09
  Last DIIS Error            ...    2.0129e-05  Tolerance :   1.0000e-07
  Last Orbital Gradient      ...    9.2435e-06  Tolerance :   1.0000e-04
  Last Orbital Rotation      ...    3.6899e-05  Tolerance :   1.0000e-04


----------------
ORBITAL ENERGIES
----------------

  NO   OCC          E(Eh)            E(eV) 
   0   2.0000     -19.000213      -517.0221 
   1   2.0000     -18.945332      -515.5287 
   2   2.0000     -10.164284      -276.5842 
   3   2.0000     -10.084689      -274.4183 
   4   2.0000     -10.037448      -273.1329 
   5   2.0000     -10.031715      -272.9768 
   6   2.0000     -10.020336      -272.6672 
   7   2.0000     -10.015122      -272.5253 
   8   2.0000      -1.067870       -29.0582 
   9   2.0000      -0.983267       -26.7560 
  10   2.0000      -0.768901       -20.9229 
  11   2.0000      -0.729317       -19.8457 
  12   2.0000      -0.671964       -18.2851 
  13   2.0000      -0.613422       -16.6921 
  14   2.0000      -0.565229       -15.3807 
  15   2.0000      -0.518533       -14.1100 
  16   2.0000      -0.466273       -12.6879 
  17   2.0000      -0.455236       -12.3876 
  18   2.0000      -0.442306       -12.0358 
  19   2.0000      -0.415312       -11.3012 
  20   2.0000      -0.403282       -10.9739 
  21   2.0000      -0.393827       -10.7166 
  22   2.0000      -0.364349        -9.9144 
  23   2.0000      -0.360697        -9.8151 
  24   2.0000      -0.351433        -9.5630 
  25   2.0000      -0.333076        -9.0635 
  26   2.0000      -0.319654        -8.6982 
  27   2.0000      -0.309391        -8.4190 
  28   2.0000      -0.303873        -8.2688 
  29   2.0000      -0.300177        -8.1682 
  30   2.0000      -0.278433        -7.5765 
  31   2.0000      -0.248416        -6.7598 
  32   0.0000      -0.027915        -0.7596 
  33   0.0000       0.073558         2.0016 
  34   0.0000       0.091608         2.4928 
  35   0.0000       0.121106         3.2955 
  36   0.0000       0.124362         3.3841 
  37   0.0000       0.134751         3.6668 
  38   0.0000       0.139987         3.8092 
  39   0.0000       0.148566         4.0427 
  40   0.0000       0.153820         4.1856 
  41   0.0000       0.159177         4.3314 
  42   0.0000       0.173220         4.7136 
*Only the first 10 virtual orbitals were printed.
Total SCF time: 0 days 0 hours 0 min 8 sec 
Finished LeanSCF after   8.2 sec

Maximum memory used throughout the entire LEANSCF-calculation: 31.1 MB


-------------------------------------------------------------------------------
                          DFT DISPERSION CORRECTION                            
                                                                               
                                DFTD4 V3.4.0                                   
-------------------------------------------------------------------------------
-------------------------   ----------------
Dispersion correction           -0.005189843
-------------------------   ----------------

------------------   -----------------
gCP correction             0.011482086
------------------   -----------------

-------------------------   --------------------
FINAL SINGLE POINT ENERGY      -386.242719391791
-------------------------   --------------------

------------------------------------------------------------------------------
                         ORCA SCF GRADIENT CALCULATION
------------------------------------------------------------------------------

Nuc. rep. gradient        (SHARK) ... done (  0.0 sec)
HCore & Overlap gradient  (SHARK) ... done (  0.3 sec)
Split-RIJ-J gradient      (SHARK) ... done (  2.0 sec)
XC gradient                       ... done (  6.5 sec)
CPCM gradient                     ... done (  1.0 sec)
SMD gradient                      ... done (  0.0 sec)
Dispersion correction             ... done (  0.0 sec)

-------------------
DISPERSION GRADIENT
-------------------

   1   C   :   -0.000081192   -0.000043530   -0.000022002
   2   C   :   -0.000071258   -0.000004298    0.000033348
   3   C   :   -0.000057164    0.000051593    0.000022638
   4   C   :    0.000002149    0.000029300   -0.000012038
   5   O   :    0.000018590    0.000047610   -0.000074453
   6   O   :    0.000047809   -0.000009972    0.000018451
   7   C   :    0.000083825   -0.000031403   -0.000004326
   8   C   :    0.000085774    0.000001882    0.000004935
   9   H   :   -0.000029486   -0.000024647   -0.000005465
  10   H   :   -0.000033421   -0.000013342   -0.000014216
  11   H   :   -0.000035919   -0.000024051   -0.000014274
  12   H   :   -0.000029064   -0.000009304    0.000021385
  13   H   :   -0.000027225   -0.000000004    0.000014403
  14   H   :   -0.000016833    0.000028880    0.000023771
  15   H   :   -0.000015938    0.000027150   -0.000001734
  16   H   :    0.000032022   -0.000021949    0.000008827
  17   H   :    0.000031893   -0.000011694   -0.000008791
  18   H   :    0.000034229    0.000002527    0.000011504
  19   H   :    0.000028964   -0.000001350    0.000000999
  20   H   :    0.000032246    0.000006602   -0.000002960

Difference to translation invariance:
           :    0.0000000000    0.0000000000    0.0000000000

Difference to rotation invariance:
           :    0.0000000000    0.0000000000    0.0000000000

Norm of the Dispersion gradient    ...    0.0002551034
RMS gradient                       ...    0.0000329337
MAX gradient                       ...    0.0000857736
gCP correction                   ... done

------------------
CARTESIAN GRADIENT
------------------

   1   C   :   -0.000024271   -0.000149702   -0.000117040
   2   C   :    0.000096846    0.000137931    0.000150814
   3   C   :   -0.000163924    0.000079295    0.000039898
   4   C   :    0.000060903   -0.000351999    0.000065037
   5   O   :    0.000017515    0.000110679   -0.000083942
   6   O   :    0.000191341    0.000162403   -0.000052472
   7   C   :   -0.000315347   -0.000087446    0.000120126
   8   C   :    0.000209617    0.000043214   -0.000006748
   9   H   :    0.000023034    0.000034730    0.000002133
  10   H   :   -0.000027406    0.000015207   -0.000026045
  11   H   :   -0.000018329    0.000020493   -0.000014513
  12   H   :   -0.000023447   -0.000002281   -0.000033936
  13   H   :    0.000010088   -0.000031137   -0.000044346
  14   H   :   -0.000046205   -0.000042636    0.000023834
  15   H   :    0.000036893   -0.000009707    0.000018298
  16   H   :   -0.000021225    0.000044888   -0.000009827
  17   H   :    0.000015015    0.000068206    0.000011126
  18   H   :    0.000024552    0.000025280   -0.000011828
  19   H   :   -0.000063008   -0.000031576    0.000008319
  20   H   :    0.000017357   -0.000035843   -0.000038888

Difference to translation invariance:
           :    0.0000000000    0.0000000000    0.0000000000

Difference to rotation invariance:
           :   -0.0000560341   -0.0002366401   -0.0001472668

Norm of the Cartesian gradient     ...    0.0007346145
RMS gradient                       ...    0.0000948383
MAX gradient                       ...    0.0003519988

-------
TIMINGS
-------

Total SCF gradient time     ....       10.716 sec

Densities                   ....       0.001 sec  (  0.0%)
One electron gradient       ....       0.324 sec  (  3.0%)
RI-J Coulomb gradient       ....       1.952 sec  ( 18.2%)
XC gradient                 ....       6.529 sec  ( 60.9%)
CPCM gradient               ....       1.001 sec  (  9.3%)
   A-Matrix (El+Nuc)        ....       0.083 sec  (  0.8%)
   Potential                ....       0.919 sec  (  8.6%)
SMD gradient                ....       0.016 sec  (  0.1%)

Maximum memory used throughout the entire SCFGRAD-calculation: 35.5 MB

------------------------------------------------------------------------------
                              ORCA PROPERTY CALCULATIONS
------------------------------------------------------------------------------

GBWName                                 ... xtb_opt.gbw
Number of atoms                         ...     20
Number of basis functions               ...    222
Max core memory                         ...   1024 MB

Electric properties:
Dipole moment                           ... YES
Quadrupole moment                       ...  NO
Static polarizability (Dipole/Dipole)   ...  NO
Static polarizability (Dipole/Quad.)    ...  NO
Static polarizability (Quad./Quad.)     ...  NO
Static polarizability (Velocity)        ...  NO

Atomic electric properties:
Dipole moment                           ...  NO
Quadrupole moment                       ...  NO
Static polarizability                   ...  NO

Choice of electric origin               ... Center of mass
Position of electric origin             ...    -0.012440     0.042639     0.009161

General magnetic properties:
Magnetizability                         ...  NO

EPR properties:
g-Tensor (aka g-matrix)                 ...  NO
Zero-Field splitting spin-orbit         ...  NO
Zero-field splitting spin-spin          ...  NO
Hyperfine couplings                     ...  NO (   0 nuclei)
Quadrupole couplings                    ...  NO (   0 nuclei)
Contact density                         ...  NO (   0 nuclei)

NMR properties:
Chemical shifts                         ...  NO (   0 nuclei)
Spin-rotation constants                 ...  NO (   0 nuclei)
Spin-spin couplings                     ...  NO (   0 nuclei,    0 pairs)

Choice of magnetic origin               ... GIAO
Position of magnetic origin             ...     0.000000     0.000000     0.000000

Properties with geometric perturbations:
SCF Hessian                             ...  NO
IR spectrum                             ...  NO
VCD spectrum                            ...  NO
X-ray spectroscopy properties:
SCF XES/XAS/RIXS spectra                ...  NO


-------------
DIPOLE MOMENT
-------------

Method             : SCF
Type of density    : Electron Density
Multiplicity       :   1
Irrep              :   0
Energy             :  -386.2490116345660454 Eh
Relativity type    : 
Basis              : AO
                                X                 Y                 Z
Electronic contribution:      1.726334968       2.143661128      -0.778081781
Nuclear contribution   :     -1.665507531      -2.641390598       1.823703933
                        -----------------------------------------
Total Dipole Moment    :      0.060827437      -0.497729470       1.045622153
                        -----------------------------------------
Magnitude (a.u.)       :      1.159637999
Magnitude (Debye)      :      2.947565547



--------------------
Rotational spectrum 
--------------------
 
Rotational constants in cm-1:             0.137010             0.036039             0.034722 
Rotational constants in MHz :          4107.454580          1080.420607          1040.933421 

Dipole components along the rotational axes: 
x,y,z [a.u.] :     0.015447    -1.055944     0.479065 
x,y,z [Debye]:     0.039262    -2.683997     1.217687 

 

Dipole moment calculation done in   0.0 sec 

Maximum memory used throughout the entire PROP-calculation: 14.0 MB

--------------------------------
SUGGESTED CITATIONS FOR THIS RUN
--------------------------------

Below you find a list of papers that are relevant to this ORCA run
We neither can nor want to force you to cite these papers, but we appreciate if you do
You receive ORCA, which is the product of decades of hard work by many enthusiastic individuals, for free
The only thing we kindly ask in return is that you cite our papers,
We deeply appreciate it, if you show your appreciation for ORCA by not just citing the generic ORCA reference.

Please note that relegating all ORCA citations to the supporting information does *not* help us.
SI sections are not indexed - citations you put there will not count into any citation statistics
But we need these citations in order to attract the funding resources that allow us to do what we are doing

Therefore, if you are a happy ORCA user, please consider citing a few of the papers listed below in the main body of your paper

In addition to the list printed below, the program has created the file xtb_opt.bibtex that contains the list in bibtex format
You can import this file easily into all common literature databanks and citation aid programs


List of essential papers. We consider these as the minimum necessary citations

  1. Neese,F.
     Software update: the ORCA program system, version 5.0
     WIRES Comput. Molec. Sci., 2022 12(1)e1606
     doi.org/10.1002/wcms.1606
  2. Grimme,S.; Hansen,A.; Ehlert,S.; Mewes,J.
     r2SCAN-3c: A 'Swiss army knife' composite electronic-structure method
     J. Chem. Phys., 2021 154 064103
     doi.org/10.1063/5.0040021

List of papers to cite with high priority. The work reported in these papers was absolutely
necessary for this run to complete.
Our perspective: the developers of density functionals and basis sets usually get cited in chemistry papers
Good! But without the algorithms to do something with them, the functionals or basis sets would not do anything.
Hence, in our opinion, the algorithm design and method developments papers are equally worthy of getting cited

  1. Neese,F.
     An improvement of the resolution of the identity approximation for the formation of the Coulomb matrix
     J. Comp. Chem., 2003 24(14)1740-1747
     doi.org/10.1002/jcc.10318
  2. Garcia-Rates,M.; Neese,F.
     Effect of the Solute Cavity on the Solvation Energy and its Derivatives within the Framework of the Gaussian Charge Scheme
     J. Comput. Chem., 2020 41 922-939
     doi.org/10.1002/jcc.26139
  3. Neese,F.
     The SHARK Integral Generation and Digestion System
     J. Comp. Chem., 2022  1-16
     doi.org/10.1002/jcc.26942
  4. Lehtola,S.; Steigemann,C.; Oliveira,M.; Marques,M.
     Recent developments in Libxc - A comprehensive library of functionals for density functional theory
     Software X, 2018 7 
     doi.org/10.1016/j.softx.2017.11.002
  5. Caldeweyher,E.; Bannwarth,C.; Grimme,S.
     Extension of the D3 dispersion coefficient model
     J. Chem. Phys., 2017 147 034112-XXXX
     doi.org/10.1063/1.4993215
  6. Caldeweyher,E.; Ehlert,S.; Hansen,A.; Neugebauer,H.; Spicher,S.; Bannwarth,C.; Grimme,S.
     A generally applicable atomic-charge dependent London dispersion correction
     J. Chem. Phys., 2019 150 154122-XXXX
     doi.org/10.1063/1.5090222
  7. Caldeweyher,E.; Mewes,J.; Ehlert,S.; Grimme,S.
     Extension and evaluation of the D4 London-dispersion model for periodic systems
     Phys. Chem. Chem. Phys., 2020 22(16)8499-8512
     doi.org/10.1039/D0CP00502A

List of suggested additional citations. These are papers that are important in the 'surrounding' of 
of this run, or papers that preceded the highly important papers. If you like your results we are grateful for a citation.

  1. Neese,F.
     The ORCA program system
     WIRES Comput. Molec. Sci., 2012 2(1)73-78
     doi.org/10.1002/wcms.81
  2. Neese,F.
     Software update: the ORCA program system, version 4.0
     WIRES Comput. Molec. Sci., 2018 8(1)1-6
     doi.org/10.1002/wcms.1327
  3. Neese,F.; Wennmohs,F.; Becker,U.; Riplinger,C.
     The ORCA quantum chemistry program package
     J. Chem. Phys., 2020 152 Art. No. L224108
     doi.org/10.1063/5.0004608

List of optional additional citations

  1. Neese,F.
     Approximate second-order SCF convergence for spin unrestricted wavefunctions
     Chem. Phys. Lett., 2000 325(1-3)93-98
     doi.org/10.1016/s0009-2614(00)00662-x

Timings for individual modules:

Sum of individual times          ...       21.086 sec (=   0.351 min)
Startup calculation              ...        1.389 sec (=   0.023 min)   6.6 %
SCF iterations                   ...        8.566 sec (=   0.143 min)  40.6 %
Property calculations            ...        0.133 sec (=   0.002 min)   0.6 %
SCF Gradient evaluation          ...       10.998 sec (=   0.183 min)  52.2 %
                             ****ORCA TERMINATED NORMALLY****
TOTAL RUN TIME: 0 days 0 hours 0 minutes 22 seconds 66 msec
  ------------------------------------------------------------------------
          * successful ORCA run, taking over control again...

         :::::::::::::::::::::::::::::::::::::::::::::::::::::
         ::                  ORCA SUMMARY                   ::
         :::::::::::::::::::::::::::::::::::::::::::::::::::::
         :: total energy            -386.242719391791 Eh    ::
         :: gradient norm              0.000734614549 Eh/a0 ::
         :: HOMO-LUMO gap              0.000000000000 eV    ::
         :::::::::::::::::::::::::::::::::::::::::::::::::::::

           -------------------------------------------------
          |                Property Printout                |
           -------------------------------------------------
           -------------------------------------------------
          |                Geometry Summary                 |
           -------------------------------------------------

      molecular mass/u    :      116.1585142
   center of mass at/Å    :       -0.0065762       0.0225677       0.0048425
  moments of inertia/u·Å² :        0.1230380E+03   0.4677486E+03   0.4854943E+03
rotational constants/cm⁻¹ :        0.1370116E+00   0.3603994E-01   0.3472262E-01

 * 17 selected distances

     #   Z          #   Z                                           value/Å
     1   6 C        2   6 C                                       1.5253722
     2   6 C        3   6 C                                       1.5381259 (max)
     4   6 C        5   8 O                                       1.2212901
     4   6 C        6   8 O                                       1.3467832
     7   6 C        8   6 C                                       1.5113847
     1   6 C        9   1 H                                       1.0941319
     1   6 C       10   1 H                                       1.0956453
     1   6 C       11   1 H                                       1.0964482
     2   6 C       12   1 H                                       1.0949826
     2   6 C       13   1 H                                       1.0950627
     3   6 C       14   1 H                                       1.0954740
     3   6 C       15   1 H                                       1.0926717
     7   6 C       16   1 H                                       1.0915725 (min)
     7   6 C       17   1 H                                       1.0928595
     8   6 C       18   1 H                                       1.0938477
     8   6 C       19   1 H                                       1.0946250
     8   6 C       20   1 H                                       1.0931518

 * 3 distinct bonds (by element types)

   Z      Z             #   av. dist./Å        max./Å        min./Å
   1 H    6 C          12     1.0942061     1.0964482     1.0915725
   6 C    6 C           3     1.5249609     1.5381259     1.5113847
   6 C    8 O           2     1.2840366     1.3467832     1.2212901


optimized geometry written to: xtbopt.coord


           -------------------------------------------------
          | TOTAL ENERGY             -386.242719391791 Eh   |
          | GRADIENT NORM               0.000734614549 Eh/α |
           -------------------------------------------------

------------------------------------------------------------------------
 * finished run on 2025/04/11 at 16:55:14.991     
------------------------------------------------------------------------
 total:
 * wall-time:     0 d,  0 h,  4 min, 18.970 sec
 *  cpu-time:     0 d,  0 h,  0 min,  2.450 sec
 * ratio c/w:     0.009 speedup
 SCF:
 * wall-time:     0 d,  0 h,  0 min, 22.071 sec
 *  cpu-time:     0 d,  0 h,  0 min,  1.047 sec
 * ratio c/w:     0.047 speedup
 ANC optimizer:
 * wall-time:     0 d,  0 h,  3 min, 56.855 sec
 *  cpu-time:     0 d,  0 h,  0 min,  1.329 sec
 * ratio c/w:     0.006 speedup

