20
 energy: -386.242673210016 gnorm: 0.001565772625 xtb: 6.7.1 (edcfbbe)
C           -2.64873455283794       -1.01080474379333       -0.46415462756627
C           -2.25108299312886       -0.23217077904566        0.78634363483016
C           -1.29908080137098        0.93656038789508        0.48091947527034
C           -0.03803245305320        0.47642332804130       -0.19579244037318
O            0.26358638045003        0.72249073217838       -1.35333187347063
O            0.72342875883361       -0.27065894728542        0.62601889687389
C            1.98666750013480       -0.77842440999728        0.08881277798170
C            3.06944084440072        0.27407430852581        0.16963489824931
H           -3.36583091715799       -1.79979749778686       -0.21877743357173
H           -3.11311383160448       -0.35187322454272       -1.20657041023994
H           -1.77960217265017       -1.48599602610130       -0.93415191472183
H           -1.78298026301480       -0.90219618018057        1.51494648938272
H           -3.14315725389164        0.18630410632167        1.26383902448455
H           -1.02722756106993        1.44496486967867        1.41207356444817
H           -1.78313840792218        1.65550049640438       -0.18432251711947
H            2.21611237433129       -1.63606163067659        0.72360885822266
H            1.82063362246251       -1.12148436915617       -0.93531531985883
H            3.20694684159259        0.61121322814514        1.20105095288598
H            4.01243872000341       -0.15906398787573       -0.17854932589412
H            2.83552861350259        1.13707904959918       -0.45942127290830
20
 energy: -386.242682292605 gnorm: 0.000661756121 xtb: 6.7.1 (edcfbbe)
C           -2.64542324619509       -1.01093928386596       -0.46334406603008
C           -2.24963040767340       -0.23232735866338        0.78679206546855
C           -1.30019874874435        0.93874755692580        0.48028536496322
C           -0.03966341681298        0.47988326370809       -0.19707783930501
O            0.26080146448605        0.72380993213895       -1.35550622793363
O            0.72191490334406       -0.26766345997481        0.62497395359089
C            1.98442165907133       -0.77806775832318        0.08767639100961
C            3.06865290948564        0.27183399455392        0.16999545584814
H           -3.36079625897071       -1.80212836406779       -0.21894821088328
H           -3.11002242358770       -0.35297838998401       -1.20602311186612
H           -1.77526700181484       -1.48466253132898       -0.93255798776147
H           -1.77860101841381       -0.90145298709324        1.51468335500563
H           -3.14239915927764        0.18329829457885        1.26602862915415
H           -1.02875275393282        1.44844770577257        1.41095039961066
H           -1.78684796076127        1.65670496295903       -0.18444509485361
H            2.21159260728869       -1.63648686327400        0.72263409828935
H            1.81793585126486       -1.12158211238075       -0.93636362298258
H            3.20556134973284        0.60748237454541        1.20202327318522
H            4.01185436487629       -0.16212301584678       -0.17694590223401
H            2.83766919798418        1.13628274703654       -0.45797058984900
20
 energy: -386.242690471877 gnorm: 0.001533988820 xtb: 6.7.1 (edcfbbe)
C           -2.63723165168121       -1.01269756781445       -0.46166468861010
C           -2.24590787248519       -0.23237829526807        0.78778842011486
C           -1.30315774799542        0.94429869765717        0.47911663682119
C           -0.04474851687321        0.48538002327677       -0.20042786311292
O            0.25595723049786        0.72915402986799       -1.35867371983521
O            0.71800242391441       -0.26098239505695        0.62284441895720
C            1.97863351806641       -0.77691772861981        0.08525535595290
C            3.06723426200180        0.26677069271445        0.17130871262689
H           -3.34891521920111       -1.80779632411705       -0.21859435373777
H           -3.10346541969452       -0.35720135771913       -1.20521596062645
H           -1.76437519033316       -1.48274754707606       -0.92961257448628
H           -1.76850373177738       -0.89834755357635        1.51469970136080
H           -3.13985171508705        0.17780703257381        1.26980564662844
H           -1.03192660223539        1.45594343918323        1.40883982131534
H           -1.79469488309837        1.65981478843311       -0.18489662444083
H            2.20011220780332       -1.63763899903388        0.71946536688830
H            1.81028892401478       -1.11912750928262       -0.93902474837041
H            3.20342806704536        0.59918485448062        1.20459336571407
H            4.00962010763529       -0.17058088414693       -0.17387824577183
H            2.84230235274290        1.13414127900569       -0.45487109014807
20
 energy: -386.242696095464 gnorm: 0.001479144446 xtb: 6.7.1 (edcfbbe)
C           -2.63092866087739       -1.01543636255467       -0.46015275758217
C           -2.24349348034920       -0.23218230999361        0.78880895572538
C           -1.30577845138127        0.94821964685373        0.47811094188648
C           -0.04548565034961        0.49388477240385       -0.20076973461164
O            0.25420364540063        0.73544581537983       -1.35961454824442
O            0.71550174603006       -0.25508143328256        0.62185464193973
C            1.97347558565862       -0.77625000956285        0.08322824920471
C            3.06670511744330        0.26230370102701        0.17247756679544
H           -3.33975344244207       -1.81296086043084       -0.21715179361314
H           -3.09906322479847       -0.36235024154874       -1.20487884793736
H           -1.75563043262617       -1.48233736090818       -0.92707256644186
H           -1.76214247455653       -0.89482272762857        1.51598437654012
H           -3.13917610180038        0.17393007805488        1.27076361324862
H           -1.03584719744794        1.46179030600030        1.40702166193082
H           -1.80081150278878        1.66070120975654       -0.18645581080080
H            2.19054063947924       -1.63972080351352        0.71516650086835
H            1.80370692279092       -1.11456633080335       -0.94207425358393
H            3.20312699214976        0.59231891648672        1.20651982587829
H            4.00747047446526       -0.17865039399628       -0.17246037738358
H            2.84617878505856        1.13184297820103       -0.45245067288463
20
 energy: -386.242702546950 gnorm: 0.000776268951 xtb: 6.7.1 (edcfbbe)
C           -2.62684367270410       -1.01829375514916       -0.45878804337726
C           -2.24260039314766       -0.23142713287938        0.78936114995744
C           -1.30787710155559        0.95080502808430        0.47756217570019
C           -0.04627281323888        0.49826625742912       -0.20077192224936
O            0.25509459632894        0.74334647116045       -1.35854229202862
O            0.71363737466026       -0.25194274135088        0.62113868218899
C            1.96979234545165       -0.77538945203282        0.08163171630656
C            3.06717435225357        0.25911005327753        0.17321522342122
H           -3.33335987024848       -1.81744909308190       -0.21474940209280
H           -3.09645649621784       -0.36772731554215       -1.20489060611476
H           -1.74973105902577       -1.48304255710355       -0.92434174547190
H           -1.76027957826032       -0.89158473956989        1.51795363525330
H           -3.14027147311202        0.17261531780296        1.26913044138773
H           -1.03913668284959        1.46569175980849        1.40605576191295
H           -1.80411702201679        1.66155985664894       -0.18780963562628
H            2.18422487513563       -1.64145799437181        0.71077940593689
H            1.79964916350266       -1.10950564396777       -0.94495634410092
H            3.20421096156231        0.58715282951648        1.20770732325872
H            4.00630519413049       -0.18479871981688       -0.17224549857856
H            2.84965566604515        1.13015004300528       -0.45058683364696
20
 energy: -386.242712122897 gnorm: 0.000808178641 xtb: 6.7.1 (edcfbbe)
C           -2.61618053309380       -1.02576454875091       -0.45505948965636
C           -2.24125688608335       -0.22929445971604        0.79073807931741
C           -1.31323688838423        0.95679025751643        0.47614491644295
C           -0.04820276434671        0.50928683673313       -0.20066086941318
O            0.25768879190209        0.76539166470939       -1.35491694066826
O            0.70938573218890       -0.24565289298150        0.61805110202274
C            1.96151904088349       -0.77380247867042        0.07609491703219
C            3.06777150181204        0.25155645454895        0.17539486396278
H           -3.31679817692692       -1.82905969602045       -0.20801159557159
H           -3.08964757211370       -0.38256164380767       -1.20520499154258
H           -1.73432832501506       -1.48575663321219       -0.91650930999384
H           -1.75787398578275       -0.88270236871918        1.52458886270874
H           -3.14343247653914        0.17173569704845        1.26444654493450
H           -1.04736740455135        1.47591446231839        1.40326040401715
H           -1.81205512642192        1.66341733502245       -0.19158234946872
H            2.16914151475578       -1.64647301987332        0.69828729136290
H            1.78956789900725       -1.09774290941265       -0.95344022359098
H            3.20683159734857        0.57332392295951        1.21157545844474
H            4.00274782770461       -0.19978365974142       -0.17156140906970
H            2.85852230681705        1.12725585727802       -0.44478601002345
20
 energy: -386.242715947799 gnorm: 0.001116693778 xtb: 6.7.1 (edcfbbe)
C           -2.60613557445185       -1.03289291995982       -0.45047704809261
C           -2.24031538377335       -0.22683508194863        0.79210420047532
C           -1.31809705163878        0.96257309584946        0.47429521792665
C           -0.05016566138093        0.52024424675524       -0.20098800328816
O            0.26110878338421        0.78755823269002       -1.35133364622629
O            0.70399267725985       -0.24173232526427        0.61398938906295
C            1.95407615310641       -0.77241502291475        0.06987616078196
C            3.06794369310845        0.24397602022009        0.17737257753192
H           -3.30093625049734       -1.84055012034737       -0.20114388016560
H           -3.08264878856582       -0.39730984314679       -1.20525279167793
H           -1.71923982537587       -1.48818342564745       -0.90712160425090
H           -1.75644067652600       -0.87340293586159        1.53164823629065
H           -3.14691297070593        0.17142300791361        1.25970068526937
H           -1.05496476949847        1.48600460397765        1.39991624080239
H           -1.81948933982354        1.66524329911635       -0.19562493778567
H            2.15554928133049       -1.65136314521585        0.68525338410662
H            1.78158687178232       -1.08690361774311       -0.96252255578697
H            3.20750504832041        0.55820072687404        1.21581888059939
H            4.00006630919506       -0.21245861789300       -0.17067722590785
H            2.86631147016445        1.12490174157216       -0.43798695420083
20
 energy: -386.242719327148 gnorm: 0.000790774613 xtb: 6.7.1 (edcfbbe)
C           -2.60257377463369       -1.03542261561284       -0.44789219865665
C           -2.24053275138962       -0.22529319818310        0.79282398345126
C           -1.31907867711021        0.96403040342907        0.47303885108550
C           -0.05014723561571        0.52339369127849       -0.20138573306393
O            0.26445457105859        0.79702673863089       -1.34929678292004
O            0.70159408368590       -0.24385483714017        0.61104238260965
C            1.95230487542441       -0.77305697334286        0.06602863123643
C            3.06646681716903        0.24195295213898        0.17863978270074
H           -3.29555612280058       -1.84417333478086       -0.19724888722590
H           -3.07954823162917       -0.40330440101517       -1.20509787029547
H           -1.71410732565329       -1.48979658205864       -0.90217190046002
H           -1.75798444018069       -0.86899093594868        1.53564765762948
H           -3.14854632423111        0.17358438901845        1.25711927065268
H           -1.05682583977213        1.48946183932740        1.39781353544597
H           -1.82097337292970        1.66542937586676       -0.19783548572075
H            2.15235904607852       -1.65417969533058        0.67850837574984
H            1.78057348705123       -1.08382978238636       -0.96754296170867
H            3.20563541911153        0.55202364736075        1.21834689161109
H            3.99831166029505       -0.21431810480142       -0.17019466409116
H            2.86696763133766        1.12539531536045       -0.43349606881021
20
 energy: -386.242719327148 gnorm: 0.000790774613 xtb: 6.7.1 (edcfbbe)
C           -2.60257377463369       -1.03542261561284       -0.44789219865665
C           -2.24053275138962       -0.22529319818310        0.79282398345126
C           -1.31907867711021        0.96403040342907        0.47303885108550
C           -0.05014723561571        0.52339369127849       -0.20138573306393
O            0.26445457105859        0.79702673863089       -1.34929678292004
O            0.70159408368590       -0.24385483714017        0.61104238260965
C            1.95230487542441       -0.77305697334286        0.06602863123643
C            3.06646681716903        0.24195295213898        0.17863978270074
H           -3.29555612280058       -1.84417333478086       -0.19724888722590
H           -3.07954823162917       -0.40330440101517       -1.20509787029547
H           -1.71410732565329       -1.48979658205864       -0.90217190046002
H           -1.75798444018069       -0.86899093594868        1.53564765762948
H           -3.14854632423111        0.17358438901845        1.25711927065268
H           -1.05682583977213        1.48946183932740        1.39781353544597
H           -1.82097337292970        1.66542937586676       -0.19783548572075
H            2.15235904607852       -1.65417969533058        0.67850837574984
H            1.78057348705123       -1.08382978238636       -0.96754296170867
H            3.20563541911153        0.55202364736075        1.21834689161109
H            3.99831166029505       -0.21431810480142       -0.17019466409116
H            2.86696763133766        1.12539531536045       -0.43349606881021
